<?xml version="1.0" encoding="ISO-8859-1"?>
<modeling>
 <generator>
  <i name="program" type="string">vasp </i>
  <i name="version" type="string">5.2.12  </i>
  <i name="subversion" type="string">11Nov11 complex                                                      parallel </i>
  <i name="platform" type="string">LinuxIFC </i>
  <i name="date" type="string">2012 10 17 </i>
  <i name="time" type="string">11:07:02 </i>
 </generator>
 <incar>
  <i type="int" name="ISTART">     0</i>
  <i type="string" name="PREC">accurate</i>
  <i type="int" name="ISPIN">     2</i>
  <i name="ENCUT">    400.00000000</i>
  <v name="MAGMOM">      6.00000000</v>
  <i type="logical" name="LREAL"> F  </i>
  <i type="int" name="ISMEAR">     1</i>
  <i name="SIGMA">      0.05000000</i>
  <i type="logical" name="LORBIT"> F  </i>
 </incar>
 <kpoints>
  <generation param="Monkhorst-Pack">
   <v type="int" name="divisions">       8        8        8 </v>
   <v name="usershift">      0.00000000       0.00000000       0.00000000 </v>
   <v name="genvec1">      0.12500000       0.00000000       0.00000000 </v>
   <v name="genvec2">      0.00000000       0.12500000       0.00000000 </v>
   <v name="genvec3">      0.00000000       0.00000000       0.12500000 </v>
   <v name="shift">      0.50000000       0.50000000       0.50000000 </v>
  </generation>
  <varray name="kpointlist" >
   <v>       0.06250000       0.06250000       0.06250000 </v>
   <v>       0.18750000       0.06250000       0.06250000 </v>
   <v>       0.31250000       0.06250000       0.06250000 </v>
   <v>       0.43750000       0.06250000       0.06250000 </v>
   <v>      -0.43750000       0.06250000       0.06250000 </v>
   <v>      -0.31250000       0.06250000       0.06250000 </v>
   <v>      -0.18750000       0.06250000       0.06250000 </v>
   <v>      -0.06250000       0.06250000       0.06250000 </v>
   <v>       0.18750000       0.18750000       0.06250000 </v>
   <v>       0.31250000       0.18750000       0.06250000 </v>
   <v>       0.43750000       0.18750000       0.06250000 </v>
   <v>      -0.43750000       0.18750000       0.06250000 </v>
   <v>      -0.31250000       0.18750000       0.06250000 </v>
   <v>      -0.18750000       0.18750000       0.06250000 </v>
   <v>      -0.06250000       0.18750000       0.06250000 </v>
   <v>       0.31250000       0.31250000       0.06250000 </v>
   <v>       0.43750000       0.31250000       0.06250000 </v>
   <v>      -0.43750000       0.31250000       0.06250000 </v>
   <v>      -0.31250000       0.31250000       0.06250000 </v>
   <v>      -0.18750000       0.31250000       0.06250000 </v>
   <v>      -0.06250000       0.31250000       0.06250000 </v>
   <v>       0.43750000       0.43750000       0.06250000 </v>
   <v>      -0.43750000       0.43750000       0.06250000 </v>
   <v>      -0.31250000       0.43750000       0.06250000 </v>
   <v>      -0.18750000       0.43750000       0.06250000 </v>
   <v>      -0.06250000       0.43750000       0.06250000 </v>
   <v>      -0.43750000      -0.43750000       0.06250000 </v>
   <v>      -0.31250000      -0.43750000       0.06250000 </v>
   <v>      -0.18750000      -0.43750000       0.06250000 </v>
   <v>      -0.31250000      -0.31250000       0.06250000 </v>
   <v>      -0.18750000      -0.31250000       0.06250000 </v>
   <v>      -0.18750000      -0.18750000       0.06250000 </v>
   <v>       0.18750000       0.18750000       0.18750000 </v>
   <v>       0.31250000       0.18750000       0.18750000 </v>
   <v>       0.43750000       0.18750000       0.18750000 </v>
   <v>      -0.43750000       0.18750000       0.18750000 </v>
   <v>      -0.31250000       0.18750000       0.18750000 </v>
   <v>      -0.18750000       0.18750000       0.18750000 </v>
   <v>       0.31250000       0.31250000       0.18750000 </v>
   <v>       0.43750000       0.31250000       0.18750000 </v>
   <v>      -0.43750000       0.31250000       0.18750000 </v>
   <v>      -0.31250000       0.31250000       0.18750000 </v>
   <v>      -0.18750000       0.31250000       0.18750000 </v>
   <v>       0.43750000       0.43750000       0.18750000 </v>
   <v>      -0.43750000       0.43750000       0.18750000 </v>
   <v>      -0.31250000       0.43750000       0.18750000 </v>
   <v>      -0.18750000       0.43750000       0.18750000 </v>
   <v>      -0.43750000      -0.43750000       0.18750000 </v>
   <v>      -0.31250000      -0.43750000       0.18750000 </v>
   <v>      -0.31250000      -0.31250000       0.18750000 </v>
   <v>       0.31250000       0.31250000       0.31250000 </v>
   <v>       0.43750000       0.31250000       0.31250000 </v>
   <v>      -0.43750000       0.31250000       0.31250000 </v>
   <v>      -0.31250000       0.31250000       0.31250000 </v>
   <v>       0.43750000       0.43750000       0.31250000 </v>
   <v>      -0.43750000       0.43750000       0.31250000 </v>
   <v>      -0.31250000       0.43750000       0.31250000 </v>
   <v>      -0.43750000      -0.43750000       0.31250000 </v>
   <v>       0.43750000       0.43750000       0.43750000 </v>
   <v>      -0.43750000       0.43750000       0.43750000 </v>
  </varray>
  <varray name="weights" >
   <v>       0.00390625 </v>
   <v>       0.01171875 </v>
   <v>       0.01171875 </v>
   <v>       0.01171875 </v>
   <v>       0.01171875 </v>
   <v>       0.01171875 </v>
   <v>       0.01171875 </v>
   <v>       0.01171875 </v>
   <v>       0.01171875 </v>
   <v>       0.02343750 </v>
   <v>       0.02343750 </v>
   <v>       0.02343750 </v>
   <v>       0.02343750 </v>
   <v>       0.02343750 </v>
   <v>       0.02343750 </v>
   <v>       0.01171875 </v>
   <v>       0.02343750 </v>
   <v>       0.02343750 </v>
   <v>       0.02343750 </v>
   <v>       0.02343750 </v>
   <v>       0.02343750 </v>
   <v>       0.01171875 </v>
   <v>       0.02343750 </v>
   <v>       0.02343750 </v>
   <v>       0.02343750 </v>
   <v>       0.02343750 </v>
   <v>       0.01171875 </v>
   <v>       0.02343750 </v>
   <v>       0.02343750 </v>
   <v>       0.01171875 </v>
   <v>       0.02343750 </v>
   <v>       0.01171875 </v>
   <v>       0.00390625 </v>
   <v>       0.01171875 </v>
   <v>       0.01171875 </v>
   <v>       0.01171875 </v>
   <v>       0.01171875 </v>
   <v>       0.01171875 </v>
   <v>       0.01171875 </v>
   <v>       0.02343750 </v>
   <v>       0.02343750 </v>
   <v>       0.02343750 </v>
   <v>       0.02343750 </v>
   <v>       0.01171875 </v>
   <v>       0.02343750 </v>
   <v>       0.02343750 </v>
   <v>       0.02343750 </v>
   <v>       0.01171875 </v>
   <v>       0.02343750 </v>
   <v>       0.01171875 </v>
   <v>       0.00390625 </v>
   <v>       0.01171875 </v>
   <v>       0.01171875 </v>
   <v>       0.01171875 </v>
   <v>       0.01171875 </v>
   <v>       0.02343750 </v>
   <v>       0.02343750 </v>
   <v>       0.01171875 </v>
   <v>       0.00390625 </v>
   <v>       0.01171875 </v>
  </varray>
 </kpoints>
 <parameters>
  <separator name="general" >
   <i type="string" name="SYSTEM">unknown system</i>
   <i type="logical" name="LCOMPAT"> F  </i>
  </separator>
  <separator name="electronic" >
   <i type="string" name="PREC">accura</i>
   <i name="ENMAX">    400.00000000</i>
   <i name="ENAUG">    332.07500000</i>
   <i name="EDIFF">      0.00010000</i>
   <i type="int" name="IALGO">    38</i>
   <i type="int" name="IWAVPR">    10</i>
   <i type="int" name="NBANDS">     9</i>
   <i name="NELECT">      5.00000000</i>
   <i type="int" name="TURBO">     0</i>
   <i type="int" name="IRESTART">     0</i>
   <i type="int" name="NREBOOT">     0</i>
   <i type="int" name="NMIN">     0</i>
   <i name="EREF">      0.00000000</i>
   <separator name="electronic smearing" >
    <i type="int" name="ISMEAR">     1</i>
    <i name="SIGMA">      0.05000000</i>
    <i name="KSPACING">      0.50000000</i>
    <i type="logical" name="KGAMMA"> T  </i>
   </separator>
   <separator name="electronic projectors" >
    <i type="logical" name="LREAL"> F  </i>
    <v name="ROPT">      0.00000000</v>
    <i type="int" name="LMAXPAW">  -100</i>
    <i type="int" name="LMAXMIX">     2</i>
    <i type="logical" name="NLSPLINE"> F  </i>
   </separator>
   <separator name="electronic startup" >
    <i type="int" name="ISTART">     0</i>
    <i type="int" name="ICHARG">     2</i>
    <i type="int" name="INIWAV">     1</i>
   </separator>
   <separator name="electronic spin" >
    <i type="int" name="ISPIN">     2</i>
    <i type="logical" name="LNONCOLLINEAR"> F  </i>
    <v name="MAGMOM">      6.00000000</v>
    <i name="NUPDOWN">     -1.00000000</i>
    <i type="logical" name="LSORBIT"> F  </i>
    <v name="SAXIS">      0.00000000      0.00000000      1.00000000</v>
    <i type="logical" name="LSPIRAL"> F  </i>
    <v name="QSPIRAL">      0.00000000      0.00000000      0.00000000</v>
    <i type="logical" name="LZEROZ"> F  </i>
   </separator>
   <separator name="electronic exchange-correlation" >
    <i type="logical" name="LASPH"> F  </i>
    <i type="logical" name="LMETAGGA"> F  </i>
   </separator>
   <separator name="electronic convergence" >
    <i type="int" name="NELM">    60</i>
    <i type="int" name="NELMDL">    -5</i>
    <i type="int" name="NELMIN">     2</i>
    <i name="ENINI">    400.00000000</i>
    <separator name="electronic convergence detail" >
     <i type="logical" name="LDIAG"> T  </i>
     <i type="logical" name="LSUBROT"> T  </i>
     <i name="WEIMIN">      0.00000000</i>
     <i name="EBREAK">      0.00000278</i>
     <i name="DEPER">      0.30000000</i>
     <i type="int" name="NRMM">     4</i>
     <i name="TIME">      0.40000000</i>
    </separator>
   </separator>
   <separator name="electronic mixer" >
    <i name="AMIX">      0.40000000</i>
    <i name="BMIX">      1.00000000</i>
    <i name="AMIN">      0.10000000</i>
    <i name="AMIX_MAG">      1.60000000</i>
    <i name="BMIX_MAG">      1.00000000</i>
    <separator name="electronic mixer details" >
     <i type="int" name="IMIX">     4</i>
     <i type="int" name="MAXMIX">   -45</i>
     <i name="WC">    100.00000000</i>
     <i type="int" name="INIMIX">     1</i>
     <i type="int" name="MIXPRE">     1</i>
     <i type="int" name="MREMOVE">     5</i>
    </separator>
   </separator>
   <separator name="electronic dipolcorrection" >
    <i type="logical" name="LDIPOL"> F  </i>
    <i type="logical" name="LMONO"> F  </i>
    <i type="int" name="IDIPOL">     0</i>
    <i name="EPSILON">      1.00000000</i>
    <v name="DIPOL">   -100.00000000   -100.00000000   -100.00000000</v>
    <i name="EFIELD">      0.00000000</i>
   </separator>
  </separator>
  <separator name="grids" >
   <i type="int" name="NGX">    20</i>
   <i type="int" name="NGY">    20</i>
   <i type="int" name="NGZ">    20</i>
   <i type="int" name="NGXF">    40</i>
   <i type="int" name="NGYF">    40</i>
   <i type="int" name="NGZF">    40</i>
   <i type="logical" name="ADDGRID"> F  </i>
  </separator>
  <separator name="ionic" >
   <i type="int" name="NSW">     0</i>
   <i type="int" name="IBRION">    -1</i>
   <i type="int" name="ISIF">     2</i>
   <i name="PSTRESS">      0.00000000</i>
   <i name="EDIFFG">      0.00100000</i>
   <i type="int" name="NFREE">     0</i>
   <i name="POTIM">      0.50000000</i>
   <i name="SMASS">     -3.00000000</i>
   <i name="SCALEE">      1.00000000</i>
  </separator>
  <separator name="ionic md" >
   <i name="TEBEG">      0.00010000</i>
   <i name="TEEND">      0.00010000</i>
   <i type="int" name="NBLOCK">     1</i>
   <i type="int" name="KBLOCK">     1</i>
   <i type="int" name="NPACO">   256</i>
   <i name="APACO">     16.00000000</i>
  </separator>
  <separator name="symmetry" >
   <i type="int" name="ISYM">     2</i>
   <i name="SYMPREC">      0.00001000</i>
  </separator>
  <separator name="dos" >
   <i type="logical" name="LORBIT"> F  </i>
   <v name="RWIGS">     -1.00000000</v>
   <i type="int" name="NEDOS">   301</i>
   <i name="EMIN">     10.00000000</i>
   <i name="EMAX">    -10.00000000</i>
   <i name="EFERMI">      0.00000000</i>
  </separator>
  <separator name="writing" >
   <i type="int" name="NWRITE">     2</i>
   <i type="logical" name="LWAVE"> T  </i>
   <i type="logical" name="LCHARG"> T  </i>
   <i type="logical" name="LPARD"> F  </i>
   <i type="logical" name="LVTOT"> F  </i>
   <i type="logical" name="LVHAR"> F  </i>
   <i type="logical" name="LELF"> F  </i>
   <i type="logical" name="LOPTICS"> F  </i>
   <v name="STM">      0.00000000      0.00000000      0.00000000      0.00000000      0.00000000      0.00000000      0.00000000</v>
  </separator>
  <separator name="performance" >
   <i type="int" name="NPAR">     1</i>
   <i type="int" name="NSIM">     4</i>
   <i type="int" name="NBLK">    -1</i>
   <i type="logical" name="LPLANE"> T  </i>
   <i type="logical" name="LSCALAPACK"> F  </i>
   <i type="logical" name="LSCAAWARE"> F  </i>
   <i type="logical" name="LSCALU"> F  </i>
   <i type="logical" name="LASYNC"> F  </i>
   <i type="logical" name="LORBITALREAL"> F  </i>
  </separator>
  <separator name="miscellaneous" >
   <i type="int" name="IDIOT">     3</i>
   <i type="logical" name="LMUSIC"> F  </i>
   <v name="POMASS">    180.94800000</v>
   <v name="DARWINR">      0.00000000</v>
   <v name="DARWINV">      1.00000000</v>
   <i type="logical" name="LCORR"> T  </i>
  </separator>
  <i type="logical" name="GGA_COMPAT"> T  </i>
  <i type="logical" name="LBERRY"> F  </i>
  <i type="int" name="ICORELEVEL">     0</i>
  <i type="logical" name="LDAU"> F  </i>
  <i type="int" name="I_CONSTRAINED_M">     0</i>
  <separator name="electronic exchange-correlation" >
   <i type="string" name="GGA">--</i>
   <i type="int" name="VOSKOWN">     0</i>
   <i type="logical" name="LHFCALC"> F  </i>
   <i type="string" name="PRECFOCK"></i>
   <i type="logical" name="LHFONE"> F  </i>
   <i type="logical" name="LRHFCALC"> F  </i>
   <i type="logical" name="LTHOMAS"> F  </i>
   <i type="logical" name="LMODELHF"> F  </i>
   <i name="ENCUT4O">     -1.00000000</i>
   <i type="int" name="EXXOEP">     0</i>
   <i type="int" name="FOURORBIT">     0</i>
   <i name="AEXX">      0.00000000</i>
   <i name="HFALPHA">      0.00000000</i>
   <i name="ALDAX">      1.00000000</i>
   <i name="AGGAX">      1.00000000</i>
   <i name="ALDAC">      1.00000000</i>
   <i name="AGGAC">      1.00000000</i>
   <i type="int" name="NKREDX">     1</i>
   <i type="int" name="NKREDY">     1</i>
   <i type="int" name="NKREDZ">     1</i>
   <i type="logical" name="SHIFTRED"> F  </i>
   <i type="logical" name="ODDONLY"> F  </i>
   <i type="logical" name="EVENONLY"> F  </i>
   <i type="int" name="LMAXFOCK">     0</i>
   <i type="int" name="NMAXFOCKAE">     0</i>
   <i type="logical" name="LFOCKAEDFT"> F  </i>
   <i name="HFSCREEN">      0.00000000</i>
   <i name="HFSCREENC">      0.00000000</i>
  </separator>
  <separator name="vdW DFT" >
   <i type="logical" name="LUSE_VDW"> F  </i>
   <i name="Zab_VDW">     -0.84910000</i>
   <i name="PARAM1">      0.12340000</i>
   <i name="PARAM2">      1.00000000</i>
   <i name="PARAM3">      0.00000000</i>
  </separator>
  <separator name="model GW" >
   <i type="int" name="MODEL_GW">     0</i>
   <i name="MODEL_EPS0">     11.03400885</i>
   <i name="MODEL_ALPHA">      1.00000000</i>
  </separator>
  <separator name="linear response parameters" >
   <i type="logical" name="LEPSILON"> F  </i>
   <i type="logical" name="LRPA"> F  </i>
   <i type="logical" name="LNABLA"> F  </i>
   <i type="logical" name="LVEL"> F  </i>
   <i type="int" name="KINTER">     0</i>
   <i name="CSHIFT">      0.10000000</i>
   <i name="OMEGAMAX">     -1.00000000</i>
  </separator>
  <separator name="orbital magnetization" >
   <i type="logical" name="NUCIND"> F  </i>
   <v name="MAGPOS">      0.00000000      0.00000000      0.00000000</v>
   <i type="logical" name="LNICSALL"> T  </i>
   <i type="logical" name="ORBITALMAG"> F  </i>
   <i type="logical" name="LMAGBLOCH"> F  </i>
   <i type="logical" name="LCHIMAG"> F  </i>
   <i type="logical" name="LGAUGE"> T  </i>
   <i type="int" name="MAGATOM">     0</i>
   <v name="MAGDIPOL">      0.00000000      0.00000000      0.00000000</v>
   <v name="AVECCONST">      0.00000000      0.00000000      0.00000000</v>
  </separator>
  <separator name="response functions" >
   <i type="logical" name="LADDER"> F  </i>
   <i type="logical" name="LHARTREE"> T  </i>
   <i type="int" name="IBSE">     0</i>
   <i type="logical" name="LTCTE"> F  </i>
   <i type="logical" name="LTETE"> F  </i>
   <i type="logical" name="LFXCEPS"> F  </i>
   <i type="logical" name="L2ORDER"> F  </i>
   <i type="logical" name="LUSEW"> F  </i>
   <i name="ENCUTGW">     -2.00000000</i>
   <i name="ENCUTGWSOFT">     -2.00000000</i>
   <i name="ENCUTLF">     -1.00000000</i>
   <i type="int" name="LMAXMP2">    -1</i>
   <i name="SCISSOR">      0.00000000</i>
   <i type="int" name="NOMEGA">     0</i>
   <i type="int" name="NOMEGAR">     0</i>
   <i type="int" name="NBANDSGW">    -1</i>
   <i type="int" name="NBANDSO">    -1</i>
   <i type="int" name="NBANDSV">    -1</i>
   <i name="OPTEMAX">      0.00000000</i>
   <i type="int" name="NELM">     1</i>
   <i type="int" name="DIM">     3</i>
   <i type="int" name="ANTIRES">     0</i>
   <i name="OMEGAMAX">    -30.00000000</i>
   <i name="OMEGATL">   -200.00000000</i>
   <i type="int" name="OMEGAGRID">     0</i>
   <i name="CSHIFT">     -0.10000000</i>
   <i type="logical" name="SELFENERGY"> F  </i>
   <i type="logical" name="LSPECTRAL"> F  </i>
   <i type="logical" name="ODDONLYGW"> F  </i>
   <i type="logical" name="EVENONLYGW"> F  </i>
   <i type="int" name="NKREDLFX">     1</i>
   <i type="int" name="NKREDLFY">     1</i>
   <i type="int" name="NKREDLFZ">     1</i>
   <i type="int" name="MAXMEM">  1800</i>
   <i type="int" name="TELESCOPE">     0</i>
  </separator>
 </parameters>
 <atominfo>
  <atoms>       1 </atoms>
  <types>       1 </types>
  <array name="atoms" >
   <dimension dim="1">ion</dimension>
   <field type="string">element</field>
   <field type="int">atomtype</field>
   <set>
    <rc><c>Ta</c><c>   1</c></rc>
   </set>
  </array>
  <array name="atomtypes" >
   <dimension dim="1">type</dimension>
   <field type="int">atomspertype</field>
   <field type="string">element</field>
   <field>mass</field>
   <field>valence</field>
   <field type="string">pseudopotential</field>
   <set>
    <rc><c>   1</c><c>Ta</c><c>    180.94800000</c><c>      5.00000000</c><c>  PAW_PBE Ta 17Jan2003                  </c></rc>
   </set>
  </array>
 </atominfo>
 <structure name="initialpos" >
  <crystal>
   <varray name="basis" >
    <v>       0.00000000       2.09500000       2.09500000 </v>
    <v>       2.09500000       0.00000000       2.09500000 </v>
    <v>       2.09500000       2.09500000       0.00000000 </v>
   </varray>
   <i name="volume">     18.39001475 </i>
   <varray name="rec_basis" >
    <v>      -0.23866348       0.23866348       0.23866348 </v>
    <v>       0.23866348      -0.23866348       0.23866348 </v>
    <v>       0.23866348       0.23866348      -0.23866348 </v>
   </varray>
  </crystal>
  <varray name="positions" >
   <v>       0.00000000       0.00000000       0.00000000 </v>
  </varray>
 </structure>
 <calculation>
  <scstep>
   <time name="dav">    2.92    2.92</time>
   <time name="total">    3.17    3.17</time>
   <energy>
    <i name="alphaZ">     30.15482628 </i>
    <i name="ewald">   -196.96013737 </i>
    <i name="hartreedc">     -2.62452757 </i>
    <i name="XCdc">    -60.71023667 </i>
    <i name="pawpsdc">    143.51874798 </i>
    <i name="pawaedc">    -69.33493833 </i>
    <i name="eentropy">     -0.00001177 </i>
    <i name="bandstr">     34.30393472 </i>
    <i name="atom">    130.64884137 </i>
    <i name="e_fr_energy">      8.99649862 </i>
    <i name="e_wo_entrp">      8.99651039 </i>
    <i name="e_0_energy">      8.99650254 </i>
   </energy>
  </scstep>
  <scstep>
   <time name="dav">    3.61    3.61</time>
   <time name="total">    3.61    3.62</time>
   <energy>
    <i name="e_fr_energy">     -1.72832226 </i>
    <i name="e_wo_entrp">     -1.72826489 </i>
    <i name="e_0_energy">     -1.72830314 </i>
   </energy>
  </scstep>
  <scstep>
   <time name="dav">    3.21    3.21</time>
   <time name="total">    3.21    3.25</time>
   <energy>
    <i name="e_fr_energy">     -1.89808734 </i>
    <i name="e_wo_entrp">     -1.89849663 </i>
    <i name="e_0_energy">     -1.89822377 </i>
   </energy>
  </scstep>
  <scstep>
   <time name="dav">    3.65    3.65</time>
   <time name="total">    3.66    3.67</time>
   <energy>
    <i name="e_fr_energy">     -1.89835283 </i>
    <i name="e_wo_entrp">     -1.89876463 </i>
    <i name="e_0_energy">     -1.89849010 </i>
   </energy>
  </scstep>
  <scstep>
   <time name="dav">    3.13    3.13</time>
   <time name="total">    3.34    3.35</time>
   <energy>
    <i name="e_fr_energy">     -1.89835295 </i>
    <i name="e_wo_entrp">     -1.89876475 </i>
    <i name="e_0_energy">     -1.89849021 </i>
   </energy>
  </scstep>
  <scstep>
   <time name="dav">    3.04    3.04</time>
   <time name="total">    3.53    3.55</time>
   <energy>
    <i name="e_fr_energy">    -11.21430894 </i>
    <i name="e_wo_entrp">    -11.21411138 </i>
    <i name="e_0_energy">    -11.21424309 </i>
   </energy>
  </scstep>
  <scstep>
   <time name="dav">    3.40    3.40</time>
   <time name="total">    3.87    3.89</time>
   <energy>
    <i name="e_fr_energy">    -11.15971748 </i>
    <i name="e_wo_entrp">    -11.15990742 </i>
    <i name="e_0_energy">    -11.15978080 </i>
   </energy>
  </scstep>
  <scstep>
   <time name="dav">    3.01    3.01</time>
   <time name="total">    3.49    3.51</time>
   <energy>
    <i name="e_fr_energy">    -11.40068017 </i>
    <i name="e_wo_entrp">    -11.40078480 </i>
    <i name="e_0_energy">    -11.40071505 </i>
   </energy>
  </scstep>
  <scstep>
   <time name="dav">    3.01    3.01</time>
   <time name="total">    3.49    3.50</time>
   <energy>
    <i name="e_fr_energy">    -11.54253621 </i>
    <i name="e_wo_entrp">    -11.54258400 </i>
    <i name="e_0_energy">    -11.54255214 </i>
   </energy>
  </scstep>
  <scstep>
   <time name="dav">    3.15    3.15</time>
   <time name="total">    3.63    3.65</time>
   <energy>
    <i name="e_fr_energy">    -11.60702369 </i>
    <i name="e_wo_entrp">    -11.60707677 </i>
    <i name="e_0_energy">    -11.60704138 </i>
   </energy>
  </scstep>
  <scstep>
   <time name="dav">    3.42    3.42</time>
   <time name="total">    3.89    3.91</time>
   <energy>
    <i name="e_fr_energy">    -11.61256379 </i>
    <i name="e_wo_entrp">    -11.61245898 </i>
    <i name="e_0_energy">    -11.61252885 </i>
   </energy>
  </scstep>
  <scstep>
   <time name="dav">    2.92    2.92</time>
   <time name="total">    3.39    3.42</time>
   <energy>
    <i name="e_fr_energy">    -11.61334646 </i>
    <i name="e_wo_entrp">    -11.61328200 </i>
    <i name="e_0_energy">    -11.61332497 </i>
   </energy>
  </scstep>
  <scstep>
   <time name="dav">    3.04    3.04</time>
   <time name="total">    3.50    3.51</time>
   <energy>
    <i name="e_fr_energy">    -11.61428822 </i>
    <i name="e_wo_entrp">    -11.61419487 </i>
    <i name="e_0_energy">    -11.61425710 </i>
   </energy>
  </scstep>
  <scstep>
   <time name="dav">    2.35    2.35</time>
   <time name="total">    2.61    2.63</time>
   <energy>
    <i name="alphaZ">     30.15482628 </i>
    <i name="ewald">   -196.96013737 </i>
    <i name="hartreedc">     -0.65481430 </i>
    <i name="XCdc">    -65.97770196 </i>
    <i name="pawpsdc">    189.96144513 </i>
    <i name="pawaedc">   -116.58063186 </i>
    <i name="eentropy">     -0.00010939 </i>
    <i name="bandstr">     17.79402080 </i>
    <i name="atom">    130.64884137 </i>
    <i name="e_fr_energy">    -11.61426132 </i>
    <i name="e_wo_entrp">    -11.61415192 </i>
    <i name="e_0_energy">    -11.61422485 </i>
   </energy>
  </scstep>
  <parameters_embedded>
   <separator name="dft+d2" >
    <i type="logical" name="LVDW"> F  </i>
   </separator>
  </parameters_embedded>
  <structure>
   <crystal>
    <varray name="basis" >
     <v>       0.00000000       2.09500000       2.09500000 </v>
     <v>       2.09500000       0.00000000       2.09500000 </v>
     <v>       2.09500000       2.09500000       0.00000000 </v>
    </varray>
    <i name="volume">     18.39001475 </i>
    <varray name="rec_basis" >
     <v>      -0.23866348       0.23866348       0.23866348 </v>
     <v>       0.23866348      -0.23866348       0.23866348 </v>
     <v>       0.23866348       0.23866348      -0.23866348 </v>
    </varray>
   </crystal>
   <varray name="positions" >
    <v>       0.00000000       0.00000000       0.00000000 </v>
   </varray>
  </structure>
  <varray name="forces" >
   <v>       0.00000000       0.00000000       0.00000000 </v>
  </varray>
  <varray name="stress" >
   <v>      27.64884903       0.00000000       0.00000000 </v>
   <v>       0.00000000      27.64884903       0.00000000 </v>
   <v>       0.00000000       0.00000000      27.64884903 </v>
  </varray>
  <energy>
   <i name="e_fr_energy">    -11.61426132 </i>
   <i name="e_wo_entrp">    -11.61422485 </i>
   <i name="e_0_energy">     -0.00010939 </i>
  </energy>
  <time name="totalsc">   50.40   50.74</time>
  <eigenvalues>
   <array>
    <dimension dim="1">band</dimension>
    <dimension dim="2">kpoint</dimension>
    <dimension dim="3">spin</dimension>
    <field>eigene</field>
    <field>occ</field>
    <set>
     <set comment="spin 1">
      <set comment="kpoint 1">
       <r>   -2.0833    1.0000 </r>
       <r>    6.2616    0.0000 </r>
       <r>    6.4788    0.0000 </r>
       <r>    6.4788    0.0000 </r>
       <r>    9.3922    0.0000 </r>
       <r>    9.3922    0.0000 </r>
       <r>   18.8221    0.0000 </r>
       <r>   19.6178    0.0000 </r>
       <r>   22.6123    0.0000 </r>
      </set>
      <set comment="kpoint 2">
       <r>   -1.2890    1.0000 </r>
       <r>    5.6567    1.0000 </r>
       <r>    6.7904    0.0000 </r>
       <r>    6.8222    0.0000 </r>
       <r>    8.7972    0.0000 </r>
       <r>    9.5193    0.0000 </r>
       <r>   19.6164    0.0000 </r>
       <r>   20.2185    0.0000 </r>
       <r>   21.0697    0.0000 </r>
      </set>
      <set comment="kpoint 3">
       <r>    0.2558    1.0000 </r>
       <r>    5.1216    1.0000 </r>
       <r>    6.6515    0.0000 </r>
       <r>    6.8780    0.0000 </r>
       <r>    9.1578    0.0000 </r>
       <r>   10.3360    0.0000 </r>
       <r>   18.5238    0.0000 </r>
       <r>   19.6199    0.0000 </r>
       <r>   22.4383    0.0000 </r>
      </set>
      <set comment="kpoint 4">
       <r>    1.2693    1.0000 </r>
       <r>    5.7869    1.0002 </r>
       <r>    6.2271    0.0000 </r>
       <r>    6.4174    0.0000 </r>
       <r>   10.7972    0.0000 </r>
       <r>   11.7781    0.0000 </r>
       <r>   16.8942    0.0000 </r>
       <r>   19.4804    0.0000 </r>
       <r>   19.6482    0.0000 </r>
      </set>
      <set comment="kpoint 5">
       <r>    1.4092    1.0000 </r>
       <r>    5.8476    1.0205 </r>
       <r>    6.3007    0.0000 </r>
       <r>    6.6402    0.0000 </r>
       <r>   11.8859    0.0000 </r>
       <r>   11.9907    0.0000 </r>
       <r>   16.1436    0.0000 </r>
       <r>   18.4490    0.0000 </r>
       <r>   19.6226    0.0000 </r>
      </set>
      <set comment="kpoint 6">
       <r>    1.0575    1.0000 </r>
       <r>    5.4116    1.0000 </r>
       <r>    6.2785    0.0000 </r>
       <r>    6.6127    0.0000 </r>
       <r>   10.4465    0.0000 </r>
       <r>   11.1365    0.0000 </r>
       <r>   17.3840    0.0000 </r>
       <r>   19.6155    0.0000 </r>
       <r>   20.5381    0.0000 </r>
      </set>
      <set comment="kpoint 7">
       <r>   -0.2784    1.0000 </r>
       <r>    5.1733    1.0000 </r>
       <r>    6.8105    0.0000 </r>
       <r>    6.9694    0.0000 </r>
       <r>    8.8969    0.0000 </r>
       <r>    9.8720    0.0000 </r>
       <r>   19.1876    0.0000 </r>
       <r>   19.6233    0.0000 </r>
       <r>   22.3136    0.0000 </r>
      </set>
      <set comment="kpoint 8">
       <r>   -1.6743    1.0000 </r>
       <r>    5.8714    1.0351 </r>
       <r>    6.6990    0.0000 </r>
       <r>    6.7122    0.0000 </r>
       <r>    8.8751    0.0000 </r>
       <r>    9.5666    0.0000 </r>
       <r>   19.6172    0.0000 </r>
       <r>   19.6582    0.0000 </r>
       <r>   21.8390    0.0000 </r>
      </set>
      <set comment="kpoint 9">
       <r>   -0.9044    1.0000 </r>
       <r>    5.2097    1.0000 </r>
       <r>    7.0958    0.0000 </r>
       <r>    7.1760    0.0000 </r>
       <r>    8.0998    0.0000 </r>
       <r>    9.8994    0.0000 </r>
       <r>   19.6167    0.0000 </r>
       <r>   21.0934    0.0000 </r>
       <r>   21.6147    0.0000 </r>
      </set>
      <set comment="kpoint 10">
       <r>    0.4065    1.0000 </r>
       <r>    4.5610    1.0000 </r>
       <r>    6.4496    0.0000 </r>
       <r>    7.7520    0.0000 </r>
       <r>    8.4991    0.0000 </r>
       <r>   10.6447    0.0000 </r>
       <r>   19.6128    0.0000 </r>
       <r>   20.4433    0.0000 </r>
       <r>   23.2926    0.0000 </r>
      </set>
      <set comment="kpoint 11">
       <r>    1.7705    1.0000 </r>
       <r>    4.6336    1.0000 </r>
       <r>    5.6228    1.0000 </r>
       <r>    7.3910    0.0000 </r>
       <r>   10.3944    0.0000 </r>
       <r>   12.1004    0.0000 </r>
       <r>   17.8748    0.0000 </r>
       <r>   19.6230    0.0000 </r>
       <r>   21.1272    0.0000 </r>
      </set>
      <set comment="kpoint 12">
       <r>    2.1923    1.0000 </r>
       <r>    4.7780    1.0000 </r>
       <r>    6.1073    0.0000 </r>
       <r>    7.0363    0.0000 </r>
       <r>   11.6103    0.0000 </r>
       <r>   13.1716    0.0000 </r>
       <r>   15.5090    0.0000 </r>
       <r>   19.6214    0.0000 </r>
       <r>   20.2167    0.0000 </r>
      </set>
      <set comment="kpoint 13">
       <r>    2.0739    1.0000 </r>
       <r>    4.9771    1.0000 </r>
       <r>    5.5637    1.0000 </r>
       <r>    7.1316    0.0000 </r>
       <r>   10.3713    0.0000 </r>
       <r>   12.9259    0.0000 </r>
       <r>   17.0247    0.0000 </r>
       <r>   19.6222    0.0000 </r>
       <r>   20.6769    0.0000 </r>
      </set>
      <set comment="kpoint 14">
       <r>    0.9644    1.0000 </r>
       <r>    4.6837    1.0000 </r>
       <r>    6.0699   -0.0003 </r>
       <r>    7.6282    0.0000 </r>
       <r>    8.5188    0.0000 </r>
       <r>   11.4309    0.0000 </r>
       <r>   19.5190    0.0000 </r>
       <r>   19.6768    0.0000 </r>
       <r>   22.8995    0.0000 </r>
      </set>
      <set comment="kpoint 15">
       <r>   -0.5610    1.0000 </r>
       <r>    5.1707    1.0000 </r>
       <r>    6.8473    0.0000 </r>
       <r>    7.1995    0.0000 </r>
       <r>    8.3515    0.0000 </r>
       <r>    9.9612    0.0000 </r>
       <r>   19.6145    0.0000 </r>
       <r>   20.3405    0.0000 </r>
       <r>   21.8073    0.0000 </r>
      </set>
      <set comment="kpoint 16">
       <r>    1.0922    1.0000 </r>
       <r>    3.7818    1.0000 </r>
       <r>    6.3233    0.0000 </r>
       <r>    8.7481    0.0000 </r>
       <r>    9.1352    0.0000 </r>
       <r>   10.8953    0.0000 </r>
       <r>   19.6148    0.0000 </r>
       <r>   21.6554    0.0000 </r>
       <r>   22.7992    0.0000 </r>
      </set>
      <set comment="kpoint 17">
       <r>    1.9702    1.0000 </r>
       <r>    3.4609    1.0000 </r>
       <r>    5.9687    0.0197 </r>
       <r>    9.3015    0.0000 </r>
       <r>   10.5025    0.0000 </r>
       <r>   12.1737    0.0000 </r>
       <r>   18.7210    0.0000 </r>
       <r>   19.6270    0.0000 </r>
       <r>   20.9473    0.0000 </r>
      </set>
      <set comment="kpoint 18">
       <r>    2.7023    1.0000 </r>
       <r>    3.7716    1.0000 </r>
       <r>    5.7596    1.0000 </r>
       <r>    8.6733    0.0000 </r>
       <r>   11.7147    0.0000 </r>
       <r>   14.1451    0.0000 </r>
       <r>   15.1817    0.0000 </r>
       <r>   19.6182    0.0000 </r>
       <r>   20.9164    0.0000 </r>
      </set>
      <set comment="kpoint 19">
       <r>    3.3998    1.0000 </r>
       <r>    3.9613    1.0000 </r>
       <r>    5.2643    1.0000 </r>
       <r>    8.1923    0.0000 </r>
       <r>   10.6062    0.0000 </r>
       <r>   13.2880    0.0000 </r>
       <r>   17.5649    0.0000 </r>
       <r>   19.6092    0.0000 </r>
       <r>   19.7494    0.0000 </r>
      </set>
      <set comment="kpoint 20">
       <r>    2.5015    1.0000 </r>
       <r>    4.6720    1.0000 </r>
       <r>    4.9889    1.0000 </r>
       <r>    7.7684    0.0000 </r>
       <r>    9.4617    0.0000 </r>
       <r>   13.1559    0.0000 </r>
       <r>   18.0165    0.0000 </r>
       <r>   19.6248    0.0000 </r>
       <r>   21.8237    0.0000 </r>
      </set>
      <set comment="kpoint 21">
       <r>    0.9770    1.0000 </r>
       <r>    4.9567    1.0000 </r>
       <r>    6.1938    0.0000 </r>
       <r>    6.9983    0.0000 </r>
       <r>    9.5269    0.0000 </r>
       <r>   11.2340    0.0000 </r>
       <r>   18.3602    0.0000 </r>
       <r>   19.6205    0.0000 </r>
       <r>   21.7103    0.0000 </r>
      </set>
      <set comment="kpoint 22">
       <r>    1.6679    1.0000 </r>
       <r>    2.8262    1.0000 </r>
       <r>    7.5563    0.0000 </r>
       <r>   10.8223    0.0000 </r>
       <r>   11.6749    0.0000 </r>
       <r>   11.9677    0.0000 </r>
       <r>   18.0890    0.0000 </r>
       <r>   19.0150    0.0000 </r>
       <r>   19.6095    0.0000 </r>
      </set>
      <set comment="kpoint 23">
       <r>    1.9060    1.0000 </r>
       <r>    2.9182    1.0000 </r>
       <r>    7.5848    0.0000 </r>
       <r>   10.5733    0.0000 </r>
       <r>   12.3333    0.0000 </r>
       <r>   13.8273    0.0000 </r>
       <r>   15.8615    0.0000 </r>
       <r>   18.0528    0.0000 </r>
       <r>   19.6070    0.0000 </r>
      </set>
      <set comment="kpoint 24">
       <r>    2.6798    1.0000 </r>
       <r>    3.6363    1.0000 </r>
       <r>    6.1995    0.0000 </r>
       <r>    9.1176    0.0000 </r>
       <r>   11.6469    0.0000 </r>
       <r>   13.9201    0.0000 </r>
       <r>   16.0059    0.0000 </r>
       <r>   19.4652    0.0000 </r>
       <r>   19.6635    0.0000 </r>
      </set>
      <set comment="kpoint 25">
       <r>    2.8423    1.0000 </r>
       <r>    4.2369    1.0000 </r>
       <r>    5.7174    1.0000 </r>
       <r>    7.6380    0.0000 </r>
       <r>   11.1615    0.0000 </r>
       <r>   13.6153    0.0000 </r>
       <r>   15.8063    0.0000 </r>
       <r>   19.6205    0.0000 </r>
       <r>   21.1020    0.0000 </r>
      </set>
      <set comment="kpoint 26">
       <r>    1.6486    1.0000 </r>
       <r>    5.4339    1.0000 </r>
       <r>    6.2405    0.0000 </r>
       <r>    6.5986    0.0000 </r>
       <r>   11.3276    0.0000 </r>
       <r>   12.4190    0.0000 </r>
       <r>   16.3166    0.0000 </r>
       <r>   19.3308    0.0000 </r>
       <r>   19.6244    0.0000 </r>
      </set>
      <set comment="kpoint 27">
       <r>    1.5668    1.0000 </r>
       <r>    2.6247    1.0000 </r>
       <r>    8.4985    0.0000 </r>
       <r>   11.4887    0.0000 </r>
       <r>   12.4219    0.0000 </r>
       <r>   12.7924    0.0000 </r>
       <r>   16.6866    0.0000 </r>
       <r>   17.7474    0.0000 </r>
       <r>   19.1682    0.0000 </r>
      </set>
      <set comment="kpoint 28">
       <r>    2.0135    1.0000 </r>
       <r>    3.1024    1.0000 </r>
       <r>    6.7628    0.0000 </r>
       <r>   10.1283    0.0000 </r>
       <r>   11.6329    0.0000 </r>
       <r>   12.9659    0.0000 </r>
       <r>   17.0218    0.0000 </r>
       <r>   19.2067    0.0000 </r>
       <r>   19.6204    0.0000 </r>
      </set>
      <set comment="kpoint 29">
       <r>    2.4297    1.0000 </r>
       <r>    4.1473    1.0000 </r>
       <r>    5.4464    1.0000 </r>
       <r>    7.9968    0.0000 </r>
       <r>   11.3907    0.0000 </r>
       <r>   12.9151    0.0000 </r>
       <r>   16.5192    0.0000 </r>
       <r>   19.6214    0.0000 </r>
       <r>   21.5580    0.0000 </r>
      </set>
      <set comment="kpoint 30">
       <r>    1.6361    1.0000 </r>
       <r>    3.2195    1.0000 </r>
       <r>    6.5699    0.0000 </r>
       <r>    9.7840    0.0000 </r>
       <r>   10.3412    0.0000 </r>
       <r>   11.4483    0.0000 </r>
       <r>   19.6037    0.0000 </r>
       <r>   20.0616    0.0000 </r>
       <r>   20.8695    0.0000 </r>
      </set>
      <set comment="kpoint 31">
       <r>    1.3869    1.0000 </r>
       <r>    3.9641    1.0000 </r>
       <r>    5.9049    0.8762 </r>
       <r>    8.4544    0.0000 </r>
       <r>    9.3531    0.0000 </r>
       <r>   11.4111    0.0000 </r>
       <r>   19.6058    0.0000 </r>
       <r>   20.2245    0.0000 </r>
       <r>   22.8319    0.0000 </r>
      </set>
      <set comment="kpoint 32">
       <r>    0.1059    1.0000 </r>
       <r>    4.4704    1.0000 </r>
       <r>    6.8329    0.0000 </r>
       <r>    7.8615    0.0000 </r>
       <r>    8.1932    0.0000 </r>
       <r>   10.3585    0.0000 </r>
       <r>   19.6160    0.0000 </r>
       <r>   21.6624    0.0000 </r>
       <r>   23.1690    0.0000 </r>
      </set>
      <set comment="kpoint 33">
       <r>   -0.9396    1.0000 </r>
       <r>    5.5101    1.0000 </r>
       <r>    6.8376    0.0000 </r>
       <r>    6.8376    0.0000 </r>
       <r>    9.2004    0.0000 </r>
       <r>    9.2004    0.0000 </r>
       <r>   19.5620    0.0000 </r>
       <r>   19.6473    0.0000 </r>
       <r>   21.4398    0.0000 </r>
      </set>
      <set comment="kpoint 34">
       <r>    0.0891    1.0000 </r>
       <r>    5.0025    1.0000 </r>
       <r>    6.5782    0.0000 </r>
       <r>    7.3644    0.0000 </r>
       <r>    8.2672    0.0000 </r>
       <r>   10.5321    0.0000 </r>
       <r>   19.5968    0.0000 </r>
       <r>   19.7886    0.0000 </r>
       <r>   22.6158    0.0000 </r>
      </set>
      <set comment="kpoint 35">
       <r>    1.6976    1.0000 </r>
       <r>    4.7479    1.0000 </r>
       <r>    5.6196    1.0000 </r>
       <r>    7.5071    0.0000 </r>
       <r>    8.7841    0.0000 </r>
       <r>   12.4014    0.0000 </r>
       <r>   18.8822    0.0000 </r>
       <r>   19.6302    0.0000 </r>
       <r>   21.9801    0.0000 </r>
      </set>
      <set comment="kpoint 36">
       <r>    2.4259    1.0000 </r>
       <r>    4.7396    1.0000 </r>
       <r>    5.7478    1.0000 </r>
       <r>    7.2048    0.0000 </r>
       <r>   10.6907    0.0000 </r>
       <r>   13.3019    0.0000 </r>
       <r>   16.4003    0.0000 </r>
       <r>   19.6217    0.0000 </r>
       <r>   20.8723    0.0000 </r>
      </set>
      <set comment="kpoint 37">
       <r>    2.2790    1.0000 </r>
       <r>    4.5069    1.0000 </r>
       <r>    5.8203    1.0039 </r>
       <r>    7.3744    0.0000 </r>
       <r>   11.9952    0.0000 </r>
       <r>   12.7192    0.0000 </r>
       <r>   15.7649    0.0000 </r>
       <r>   19.6212    0.0000 </r>
       <r>   20.7066    0.0000 </r>
      </set>
      <set comment="kpoint 38">
       <r>    1.5272    1.0000 </r>
       <r>    4.2055    1.0000 </r>
       <r>    5.7910    1.0003 </r>
       <r>    7.8142    0.0000 </r>
       <r>   10.2152    0.0000 </r>
       <r>   11.4357    0.0000 </r>
       <r>   18.9742    0.0000 </r>
       <r>   19.6297    0.0000 </r>
       <r>   22.0711    0.0000 </r>
      </set>
      <set comment="kpoint 39">
       <r>    0.6057    1.0000 </r>
       <r>    4.7080    1.0000 </r>
       <r>    6.3563    0.0000 </r>
       <r>    7.2885    0.0000 </r>
       <r>    9.2299    0.0000 </r>
       <r>   10.6664    0.0000 </r>
       <r>   19.2357    0.0000 </r>
       <r>   19.6276    0.0000 </r>
       <r>   22.7093    0.0000 </r>
      </set>
      <set comment="kpoint 40">
       <r>    1.9054    1.0000 </r>
       <r>    4.2936    1.0000 </r>
       <r>    5.4054    1.0000 </r>
       <r>    8.1119    0.0000 </r>
       <r>    9.3339    0.0000 </r>
       <r>   12.3494    0.0000 </r>
       <r>   18.9391    0.0000 </r>
       <r>   19.6321    0.0000 </r>
       <r>   22.2191    0.0000 </r>
      </set>
      <set comment="kpoint 41">
       <r>    3.2248    1.0000 </r>
       <r>    4.2203    1.0000 </r>
       <r>    4.7285    1.0000 </r>
       <r>    8.2729    0.0000 </r>
       <r>   10.4060    0.0000 </r>
       <r>   13.5543    0.0000 </r>
       <r>   17.3557    0.0000 </r>
       <r>   19.6219    0.0000 </r>
       <r>   20.3387    0.0000 </r>
      </set>
      <set comment="kpoint 42">
       <r>    3.2692    1.0000 </r>
       <r>    3.8722    1.0000 </r>
       <r>    5.3796    1.0000 </r>
       <r>    8.1545    0.0000 </r>
       <r>   11.2985    0.0000 </r>
       <r>   14.7867    0.0000 </r>
       <r>   15.0106    0.0000 </r>
       <r>   19.6188    0.0000 </r>
       <r>   20.9360    0.0000 </r>
      </set>
      <set comment="kpoint 43">
       <r>    2.5660    1.0000 </r>
       <r>    3.9089    1.0000 </r>
       <r>    5.1685    1.0000 </r>
       <r>    8.7808    0.0000 </r>
       <r>   10.4045    0.0000 </r>
       <r>   13.1399    0.0000 </r>
       <r>   17.6662    0.0000 </r>
       <r>   19.6231    0.0000 </r>
       <r>   20.7826    0.0000 </r>
      </set>
      <set comment="kpoint 44">
       <r>    2.1417    1.0000 </r>
       <r>    3.7276    1.0000 </r>
       <r>    5.7466    1.0000 </r>
       <r>    8.5241    0.0000 </r>
       <r>   11.6093    0.0000 </r>
       <r>   11.9995    0.0000 </r>
       <r>   17.5140    0.0000 </r>
       <r>   19.6221    0.0000 </r>
       <r>   21.7252    0.0000 </r>
      </set>
      <set comment="kpoint 45">
       <r>    2.6351    1.0000 </r>
       <r>    3.6205    1.0000 </r>
       <r>    5.6953    1.0000 </r>
       <r>    9.2753    0.0000 </r>
       <r>   11.4625    0.0000 </r>
       <r>   13.9401    0.0000 </r>
       <r>   16.5069    0.0000 </r>
       <r>   19.1695    0.0000 </r>
       <r>   19.6238    0.0000 </r>
      </set>
      <set comment="kpoint 46">
       <r>    3.0920    1.0000 </r>
       <r>    4.2358    1.0000 </r>
       <r>    5.2407    1.0000 </r>
       <r>    8.2424    0.0000 </r>
       <r>   12.2666    0.0000 </r>
       <r>   15.2950    0.0000 </r>
       <r>   16.0883    0.0000 </r>
       <r>   17.7565    0.0000 </r>
       <r>   19.6237    0.0000 </r>
      </set>
      <set comment="kpoint 47">
       <r>    3.3208    1.0000 </r>
       <r>    4.1614    1.0000 </r>
       <r>    4.8366    1.0000 </r>
       <r>    8.4746    0.0000 </r>
       <r>   11.4047    0.0000 </r>
       <r>   14.2075    0.0000 </r>
       <r>   16.7242    0.0000 </r>
       <r>   19.0246    0.0000 </r>
       <r>   19.6253    0.0000 </r>
      </set>
      <set comment="kpoint 48">
       <r>    2.1718    1.0000 </r>
       <r>    3.1934    1.0000 </r>
       <r>    7.0589    0.0000 </r>
       <r>   10.0264    0.0000 </r>
       <r>   11.9978    0.0000 </r>
       <r>   14.3251    0.0000 </r>
       <r>   14.9649    0.0000 </r>
       <r>   19.5905    0.0000 </r>
       <r>   19.9433    0.0000 </r>
      </set>
      <set comment="kpoint 49">
       <r>    2.5030    1.0000 </r>
       <r>    3.4777    1.0000 </r>
       <r>    6.3868    0.0000 </r>
       <r>    9.2651    0.0000 </r>
       <r>   12.2809    0.0000 </r>
       <r>   14.9408    0.0000 </r>
       <r>   15.6199    0.0000 </r>
       <r>   17.9814    0.0000 </r>
       <r>   19.6216    0.0000 </r>
      </set>
      <set comment="kpoint 50">
       <r>    2.2530    1.0000 </r>
       <r>    3.3696    1.0000 </r>
       <r>    6.3757    0.0000 </r>
       <r>    9.3385    0.0000 </r>
       <r>   12.1750    0.0000 </r>
       <r>   13.2206    0.0000 </r>
       <r>   15.8009    0.0000 </r>
       <r>   19.6175    0.0000 </r>
       <r>   20.5178    0.0000 </r>
      </set>
      <set comment="kpoint 51">
       <r>    0.5832    1.0000 </r>
       <r>    5.3083    1.0000 </r>
       <r>    6.6136    0.0000 </r>
       <r>    6.6136    0.0000 </r>
       <r>   10.1722    0.0000 </r>
       <r>   10.1722    0.0000 </r>
       <r>   17.6672    0.0000 </r>
       <r>   19.6173    0.0000 </r>
       <r>   21.6490    0.0000 </r>
      </set>
      <set comment="kpoint 52">
       <r>    1.4795    1.0000 </r>
       <r>    5.1719    1.0000 </r>
       <r>    5.8940    0.9696 </r>
       <r>    6.8745    0.0000 </r>
       <r>    9.7563    0.0000 </r>
       <r>   12.1550    0.0000 </r>
       <r>   17.8184    0.0000 </r>
       <r>   19.6206    0.0000 </r>
       <r>   20.7429    0.0000 </r>
      </set>
      <set comment="kpoint 53">
       <r>    3.0182    1.0000 </r>
       <r>    4.4565    1.0000 </r>
       <r>    5.0805    1.0000 </r>
       <r>    7.8032    0.0000 </r>
       <r>    9.8920    0.0000 </r>
       <r>   13.3412    0.0000 </r>
       <r>   17.6732    0.0000 </r>
       <r>   19.6229    0.0000 </r>
       <r>   20.7747    0.0000 </r>
      </set>
      <set comment="kpoint 54">
       <r>    3.0088    1.0000 </r>
       <r>    3.8669    1.0000 </r>
       <r>    5.8057    1.0012 </r>
       <r>    8.6633    0.0000 </r>
       <r>   11.0539    0.0000 </r>
       <r>   13.1318    0.0000 </r>
       <r>   17.1348    0.0000 </r>
       <r>   19.5340    0.0000 </r>
       <r>   19.6738    0.0000 </r>
      </set>
      <set comment="kpoint 55">
       <r>    1.6472    1.0000 </r>
       <r>    5.1245    1.0000 </r>
       <r>    5.9327    0.4613 </r>
       <r>    6.8746    0.0000 </r>
       <r>   11.3507    0.0000 </r>
       <r>   11.8248    0.0000 </r>
       <r>   16.9262    0.0000 </r>
       <r>   19.6183    0.0000 </r>
       <r>   20.0137    0.0000 </r>
      </set>
      <set comment="kpoint 56">
       <r>    2.7151    1.0000 </r>
       <r>    4.3447    1.0000 </r>
       <r>    5.4734    1.0000 </r>
       <r>    7.6520    0.0000 </r>
       <r>   11.0678    0.0000 </r>
       <r>   13.5971    0.0000 </r>
       <r>   15.9866    0.0000 </r>
       <r>   19.6213    0.0000 </r>
       <r>   21.3322    0.0000 </r>
      </set>
      <set comment="kpoint 57">
       <r>    3.3268    1.0000 </r>
       <r>    3.9578    1.0000 </r>
       <r>    5.2981    1.0000 </r>
       <r>    8.3643    0.0000 </r>
       <r>   11.4530    0.0000 </r>
       <r>   14.0255    0.0000 </r>
       <r>   16.7615    0.0000 </r>
       <r>   19.0797    0.0000 </r>
       <r>   19.6295    0.0000 </r>
      </set>
      <set comment="kpoint 58">
       <r>    2.7973    1.0000 </r>
       <r>    4.0246    1.0000 </r>
       <r>    5.7888    1.0002 </r>
       <r>    8.0424    0.0000 </r>
       <r>   11.6156    0.0000 </r>
       <r>   13.5899    0.0000 </r>
       <r>   15.4548    0.0000 </r>
       <r>   19.6194    0.0000 </r>
       <r>   21.0588    0.0000 </r>
      </set>
      <set comment="kpoint 59">
       <r>    1.2250    1.0000 </r>
       <r>    6.2213    0.0000 </r>
       <r>    6.2213    0.0000 </r>
       <r>    6.4075    0.0000 </r>
       <r>   11.6087    0.0000 </r>
       <r>   11.6087    0.0000 </r>
       <r>   16.4720    0.0000 </r>
       <r>   18.5454    0.0000 </r>
       <r>   19.6244    0.0000 </r>
      </set>
      <set comment="kpoint 60">
       <r>    1.8263    1.0000 </r>
       <r>    5.2559    1.0000 </r>
       <r>    6.3847    0.0000 </r>
       <r>    6.6443    0.0000 </r>
       <r>   11.5040    0.0000 </r>
       <r>   12.7950    0.0000 </r>
       <r>   15.8393    0.0000 </r>
       <r>   19.4262    0.0000 </r>
       <r>   19.6221    0.0000 </r>
      </set>
     </set>
     <set comment="spin 2">
      <set comment="kpoint 1">
       <r>   -2.0853    1.0000 </r>
       <r>    6.2567    0.0000 </r>
       <r>    6.4739    0.0000 </r>
       <r>    6.4739    0.0000 </r>
       <r>    9.3931    0.0000 </r>
       <r>    9.3931    0.0000 </r>
       <r>   18.8186    0.0000 </r>
       <r>   19.6135    0.0000 </r>
       <r>   22.6120    0.0000 </r>
      </set>
      <set comment="kpoint 2">
       <r>   -1.2911    1.0000 </r>
       <r>    5.6520    1.0000 </r>
       <r>    6.7859    0.0000 </r>
       <r>    6.8173    0.0000 </r>
       <r>    8.7981    0.0000 </r>
       <r>    9.5198    0.0000 </r>
       <r>   19.6121    0.0000 </r>
       <r>   20.2154    0.0000 </r>
       <r>   21.0675    0.0000 </r>
      </set>
      <set comment="kpoint 3">
       <r>    0.2535    1.0000 </r>
       <r>    5.1174    1.0000 </r>
       <r>    6.6489    0.0000 </r>
       <r>    6.8754    0.0000 </r>
       <r>    9.1563    0.0000 </r>
       <r>   10.3347    0.0000 </r>
       <r>   18.5217    0.0000 </r>
       <r>   19.6156    0.0000 </r>
       <r>   22.4346    0.0000 </r>
      </set>
      <set comment="kpoint 4">
       <r>    1.2662    1.0000 </r>
       <r>    5.7847    1.0001 </r>
       <r>    6.2248    0.0000 </r>
       <r>    6.4160    0.0000 </r>
       <r>   10.7945    0.0000 </r>
       <r>   11.7757    0.0000 </r>
       <r>   16.8914    0.0000 </r>
       <r>   19.4769    0.0000 </r>
       <r>   19.6440    0.0000 </r>
      </set>
      <set comment="kpoint 5">
       <r>    1.4057    1.0000 </r>
       <r>    5.8467    1.0197 </r>
       <r>    6.2993    0.0000 </r>
       <r>    6.6375    0.0000 </r>
       <r>   11.8831    0.0000 </r>
       <r>   11.9881    0.0000 </r>
       <r>   16.1402    0.0000 </r>
       <r>   18.4459    0.0000 </r>
       <r>   19.6182    0.0000 </r>
      </set>
      <set comment="kpoint 6">
       <r>    1.0547    1.0000 </r>
       <r>    5.4085    1.0000 </r>
       <r>    6.2768    0.0000 </r>
       <r>    6.6108    0.0000 </r>
       <r>   10.4440    0.0000 </r>
       <r>   11.1344    0.0000 </r>
       <r>   17.3815    0.0000 </r>
       <r>   19.6112    0.0000 </r>
       <r>   20.5346    0.0000 </r>
      </set>
      <set comment="kpoint 7">
       <r>   -0.2806    1.0000 </r>
       <r>    5.1689    1.0000 </r>
       <r>    6.8075    0.0000 </r>
       <r>    6.9658    0.0000 </r>
       <r>    8.8959    0.0000 </r>
       <r>    9.8716    0.0000 </r>
       <r>   19.1856    0.0000 </r>
       <r>   19.6191    0.0000 </r>
       <r>   22.3099    0.0000 </r>
      </set>
      <set comment="kpoint 8">
       <r>   -1.6764    1.0000 </r>
       <r>    5.8666    1.0351 </r>
       <r>    6.6942    0.0000 </r>
       <r>    6.7073    0.0000 </r>
       <r>    8.8759    0.0000 </r>
       <r>    9.5675    0.0000 </r>
       <r>   19.6129    0.0000 </r>
       <r>   19.6547    0.0000 </r>
       <r>   21.8376    0.0000 </r>
      </set>
      <set comment="kpoint 9">
       <r>   -0.9065    1.0000 </r>
       <r>    5.2049    1.0000 </r>
       <r>    7.0917    0.0000 </r>
       <r>    7.1713    0.0000 </r>
       <r>    8.1000    0.0000 </r>
       <r>    9.9003    0.0000 </r>
       <r>   19.6124    0.0000 </r>
       <r>   21.0902    0.0000 </r>
       <r>   21.6122    0.0000 </r>
      </set>
      <set comment="kpoint 10">
       <r>    0.4044    1.0000 </r>
       <r>    4.5565    1.0000 </r>
       <r>    6.4484    0.0000 </r>
       <r>    7.7483    0.0000 </r>
       <r>    8.4965    0.0000 </r>
       <r>   10.6442    0.0000 </r>
       <r>   19.6084    0.0000 </r>
       <r>   20.4410    0.0000 </r>
       <r>   23.2890    0.0000 </r>
      </set>
      <set comment="kpoint 11">
       <r>    1.7679    1.0000 </r>
       <r>    4.6306    1.0000 </r>
       <r>    5.6208    1.0000 </r>
       <r>    7.3894    0.0000 </r>
       <r>   10.3915    0.0000 </r>
       <r>   12.0982    0.0000 </r>
       <r>   17.8722    0.0000 </r>
       <r>   19.6186    0.0000 </r>
       <r>   21.1240    0.0000 </r>
      </set>
      <set comment="kpoint 12">
       <r>    2.1888    1.0000 </r>
       <r>    4.7776    1.0000 </r>
       <r>    6.1036    0.0000 </r>
       <r>    7.0353    0.0000 </r>
       <r>   11.6071    0.0000 </r>
       <r>   13.1693    0.0000 </r>
       <r>   15.5058    0.0000 </r>
       <r>   19.6171    0.0000 </r>
       <r>   20.2135    0.0000 </r>
      </set>
      <set comment="kpoint 13">
       <r>    2.0708    1.0000 </r>
       <r>    4.9760    1.0000 </r>
       <r>    5.5603    1.0000 </r>
       <r>    7.1308    0.0000 </r>
       <r>   10.3680    0.0000 </r>
       <r>   12.9233    0.0000 </r>
       <r>   17.0222    0.0000 </r>
       <r>   19.6179    0.0000 </r>
       <r>   20.6736    0.0000 </r>
      </set>
      <set comment="kpoint 14">
       <r>    0.9622    1.0000 </r>
       <r>    4.6793    1.0000 </r>
       <r>    6.0683   -0.0003 </r>
       <r>    7.6266    0.0000 </r>
       <r>    8.5159    0.0000 </r>
       <r>   11.4292    0.0000 </r>
       <r>   19.5158    0.0000 </r>
       <r>   19.6733    0.0000 </r>
       <r>   22.8961    0.0000 </r>
      </set>
      <set comment="kpoint 15">
       <r>   -0.5631    1.0000 </r>
       <r>    5.1661    1.0000 </r>
       <r>    6.8440    0.0000 </r>
       <r>    7.1950    0.0000 </r>
       <r>    8.3514    0.0000 </r>
       <r>    9.9612    0.0000 </r>
       <r>   19.6102    0.0000 </r>
       <r>   20.3384    0.0000 </r>
       <r>   21.8038    0.0000 </r>
      </set>
      <set comment="kpoint 16">
       <r>    1.0906    1.0000 </r>
       <r>    3.7772    1.0000 </r>
       <r>    6.3230    0.0000 </r>
       <r>    8.7439    0.0000 </r>
       <r>    9.1308    0.0000 </r>
       <r>   10.8958    0.0000 </r>
       <r>   19.6104    0.0000 </r>
       <r>   21.6534    0.0000 </r>
       <r>   22.7979    0.0000 </r>
      </set>
      <set comment="kpoint 17">
       <r>    1.9691    1.0000 </r>
       <r>    3.4565    1.0000 </r>
       <r>    5.9669    0.0305 </r>
       <r>    9.2997    0.0000 </r>
       <r>   10.4988    0.0000 </r>
       <r>   12.1716    0.0000 </r>
       <r>   18.7188    0.0000 </r>
       <r>   19.6227    0.0000 </r>
       <r>   20.9452    0.0000 </r>
      </set>
      <set comment="kpoint 18">
       <r>    2.7007    1.0000 </r>
       <r>    3.7689    1.0000 </r>
       <r>    5.7561    1.0000 </r>
       <r>    8.6729    0.0000 </r>
       <r>   11.7107    0.0000 </r>
       <r>   14.1423    0.0000 </r>
       <r>   15.1789    0.0000 </r>
       <r>   19.6139    0.0000 </r>
       <r>   20.9143    0.0000 </r>
      </set>
      <set comment="kpoint 19">
       <r>    3.3965    1.0000 </r>
       <r>    3.9609    1.0000 </r>
       <r>    5.2602    1.0000 </r>
       <r>    8.1930    0.0000 </r>
       <r>   10.6012    0.0000 </r>
       <r>   13.2851    0.0000 </r>
       <r>   17.5629    0.0000 </r>
       <r>   19.6050    0.0000 </r>
       <r>   19.7464    0.0000 </r>
      </set>
      <set comment="kpoint 20">
       <r>    2.4988    1.0000 </r>
       <r>    4.6686    1.0000 </r>
       <r>    4.9872    1.0000 </r>
       <r>    7.7687    0.0000 </r>
       <r>    9.4572    0.0000 </r>
       <r>   13.1532    0.0000 </r>
       <r>   18.0145    0.0000 </r>
       <r>   19.6205    0.0000 </r>
       <r>   21.8203    0.0000 </r>
      </set>
      <set comment="kpoint 21">
       <r>    0.9745    1.0000 </r>
       <r>    4.9529    1.0000 </r>
       <r>    6.1921    0.0000 </r>
       <r>    6.9963    0.0000 </r>
       <r>    9.5244    0.0000 </r>
       <r>   11.2322    0.0000 </r>
       <r>   18.3579    0.0000 </r>
       <r>   19.6162    0.0000 </r>
       <r>   21.7068    0.0000 </r>
      </set>
      <set comment="kpoint 22">
       <r>    1.6675    1.0000 </r>
       <r>    2.8217    1.0000 </r>
       <r>    7.5541    0.0000 </r>
       <r>   10.8204    0.0000 </r>
       <r>   11.6701    0.0000 </r>
       <r>   11.9660    0.0000 </r>
       <r>   18.0870    0.0000 </r>
       <r>   19.0131    0.0000 </r>
       <r>   19.6049    0.0000 </r>
      </set>
      <set comment="kpoint 23">
       <r>    1.9059    1.0000 </r>
       <r>    2.9137    1.0000 </r>
       <r>    7.5815    0.0000 </r>
       <r>   10.5742    0.0000 </r>
       <r>   12.3279    0.0000 </r>
       <r>   13.8227    0.0000 </r>
       <r>   15.8600    0.0000 </r>
       <r>   18.0513    0.0000 </r>
       <r>   19.6035    0.0000 </r>
      </set>
      <set comment="kpoint 24">
       <r>    2.6790    1.0000 </r>
       <r>    3.6329    1.0000 </r>
       <r>    6.1956    0.0000 </r>
       <r>    9.1183    0.0000 </r>
       <r>   11.6417    0.0000 </r>
       <r>   13.9180    0.0000 </r>
       <r>   16.0021    0.0000 </r>
       <r>   19.4632    0.0000 </r>
       <r>   19.6599    0.0000 </r>
      </set>
      <set comment="kpoint 25">
       <r>    2.8388    1.0000 </r>
       <r>    4.2367    1.0000 </r>
       <r>    5.7134    1.0000 </r>
       <r>    7.6376    0.0000 </r>
       <r>   11.1575    0.0000 </r>
       <r>   13.6127    0.0000 </r>
       <r>   15.8037    0.0000 </r>
       <r>   19.6162    0.0000 </r>
       <r>   21.0989    0.0000 </r>
      </set>
      <set comment="kpoint 26">
       <r>    1.6452    1.0000 </r>
       <r>    5.4332    1.0000 </r>
       <r>    6.2372    0.0000 </r>
       <r>    6.5973    0.0000 </r>
       <r>   11.3248    0.0000 </r>
       <r>   12.4166    0.0000 </r>
       <r>   16.3135    0.0000 </r>
       <r>   19.3276    0.0000 </r>
       <r>   19.6201    0.0000 </r>
      </set>
      <set comment="kpoint 27">
       <r>    1.5667    1.0000 </r>
       <r>    2.6201    1.0000 </r>
       <r>    8.4957    0.0000 </r>
       <r>   11.4897    0.0000 </r>
       <r>   12.4168    0.0000 </r>
       <r>   12.7872    0.0000 </r>
       <r>   16.6851    0.0000 </r>
       <r>   17.7459    0.0000 </r>
       <r>   19.1672    0.0000 </r>
      </set>
      <set comment="kpoint 28">
       <r>    2.0131    1.0000 </r>
       <r>    3.0980    1.0000 </r>
       <r>    6.7600    0.0000 </r>
       <r>   10.1280    0.0000 </r>
       <r>   11.6287    0.0000 </r>
       <r>   12.9623    0.0000 </r>
       <r>   17.0199    0.0000 </r>
       <r>   19.2048    0.0000 </r>
       <r>   19.6161    0.0000 </r>
      </set>
      <set comment="kpoint 29">
       <r>    2.4272    1.0000 </r>
       <r>    4.1451    1.0000 </r>
       <r>    5.4435    1.0000 </r>
       <r>    7.9956    0.0000 </r>
       <r>   11.3876    0.0000 </r>
       <r>   12.9124    0.0000 </r>
       <r>   16.5166    0.0000 </r>
       <r>   19.6171    0.0000 </r>
       <r>   21.5547    0.0000 </r>
      </set>
      <set comment="kpoint 30">
       <r>    1.6352    1.0000 </r>
       <r>    3.2150    1.0000 </r>
       <r>    6.5687    0.0000 </r>
       <r>    9.7805    0.0000 </r>
       <r>   10.3366    0.0000 </r>
       <r>   11.4483    0.0000 </r>
       <r>   19.5995    0.0000 </r>
       <r>   20.0595    0.0000 </r>
       <r>   20.8676    0.0000 </r>
      </set>
      <set comment="kpoint 31">
       <r>    1.3851    1.0000 </r>
       <r>    3.9596    1.0000 </r>
       <r>    5.9040    0.8860 </r>
       <r>    8.4517    0.0000 </r>
       <r>    9.3496    0.0000 </r>
       <r>   11.4100    0.0000 </r>
       <r>   19.6015    0.0000 </r>
       <r>   20.2223    0.0000 </r>
       <r>   22.8395    0.0000 </r>
      </set>
      <set comment="kpoint 32">
       <r>    0.1039    1.0000 </r>
       <r>    4.4657    1.0000 </r>
       <r>    6.8326    0.0000 </r>
       <r>    7.8570    0.0000 </r>
       <r>    8.1893    0.0000 </r>
       <r>   10.3593    0.0000 </r>
       <r>   19.6117    0.0000 </r>
       <r>   21.6600    0.0000 </r>
       <r>   23.1653    0.0000 </r>
      </set>
      <set comment="kpoint 33">
       <r>   -0.9417    1.0000 </r>
       <r>    5.5055    1.0000 </r>
       <r>    6.8334    0.0000 </r>
       <r>    6.8334    0.0000 </r>
       <r>    9.2007    0.0000 </r>
       <r>    9.2007    0.0000 </r>
       <r>   19.5591    0.0000 </r>
       <r>   19.6439    0.0000 </r>
       <r>   21.4364    0.0000 </r>
      </set>
      <set comment="kpoint 34">
       <r>    0.0869    1.0000 </r>
       <r>    4.9980    1.0000 </r>
       <r>    6.5756    0.0000 </r>
       <r>    7.3608    0.0000 </r>
       <r>    8.2668    0.0000 </r>
       <r>   10.5310    0.0000 </r>
       <r>   19.5927    0.0000 </r>
       <r>   19.7862    0.0000 </r>
       <r>   22.6123    0.0000 </r>
      </set>
      <set comment="kpoint 35">
       <r>    1.6951    1.0000 </r>
       <r>    4.7438    1.0000 </r>
       <r>    5.6181    1.0000 </r>
       <r>    7.5071    0.0000 </r>
       <r>    8.7800    0.0000 </r>
       <r>   12.3992    0.0000 </r>
       <r>   18.8798    0.0000 </r>
       <r>   19.6259    0.0000 </r>
       <r>   21.9768    0.0000 </r>
      </set>
      <set comment="kpoint 36">
       <r>    2.4225    1.0000 </r>
       <r>    4.7392    1.0000 </r>
       <r>    5.7440    1.0000 </r>
       <r>    7.2042    0.0000 </r>
       <r>   10.6870    0.0000 </r>
       <r>   13.2992    0.0000 </r>
       <r>   16.3979    0.0000 </r>
       <r>   19.6174    0.0000 </r>
       <r>   20.8688    0.0000 </r>
      </set>
      <set comment="kpoint 37">
       <r>    2.2758    1.0000 </r>
       <r>    4.5062    1.0000 </r>
       <r>    5.8167    1.0030 </r>
       <r>    7.3732    0.0000 </r>
       <r>   11.9923    0.0000 </r>
       <r>   12.7167    0.0000 </r>
       <r>   15.7618    0.0000 </r>
       <r>   19.6169    0.0000 </r>
       <r>   20.7036    0.0000 </r>
      </set>
      <set comment="kpoint 38">
       <r>    1.5251    1.0000 </r>
       <r>    4.2015    1.0000 </r>
       <r>    5.7897    1.0003 </r>
       <r>    7.8118    0.0000 </r>
       <r>   10.2118    0.0000 </r>
       <r>   11.4344    0.0000 </r>
       <r>   18.9718    0.0000 </r>
       <r>   19.6254    0.0000 </r>
       <r>   22.0679    0.0000 </r>
      </set>
      <set comment="kpoint 39">
       <r>    0.6035    1.0000 </r>
       <r>    4.7038    1.0000 </r>
       <r>    6.3549    0.0000 </r>
       <r>    7.2855    0.0000 </r>
       <r>    9.2272    0.0000 </r>
       <r>   10.6655    0.0000 </r>
       <r>   19.2334    0.0000 </r>
       <r>   19.6234    0.0000 </r>
       <r>   22.7058    0.0000 </r>
      </set>
      <set comment="kpoint 40">
       <r>    1.9032    1.0000 </r>
       <r>    4.2894    1.0000 </r>
       <r>    5.4042    1.0000 </r>
       <r>    8.1110    0.0000 </r>
       <r>    9.3301    0.0000 </r>
       <r>   12.3472    0.0000 </r>
       <r>   18.9368    0.0000 </r>
       <r>   19.6278    0.0000 </r>
       <r>   22.2159    0.0000 </r>
      </set>
      <set comment="kpoint 41">
       <r>    3.2224    1.0000 </r>
       <r>    4.2188    1.0000 </r>
       <r>    4.7246    1.0000 </r>
       <r>    8.2733    0.0000 </r>
       <r>   10.4012    0.0000 </r>
       <r>   13.5512    0.0000 </r>
       <r>   17.3540    0.0000 </r>
       <r>   19.6176    0.0000 </r>
       <r>   20.3358    0.0000 </r>
      </set>
      <set comment="kpoint 42">
       <r>    3.2665    1.0000 </r>
       <r>    3.8711    1.0000 </r>
       <r>    5.3756    1.0000 </r>
       <r>    8.1546    0.0000 </r>
       <r>   11.2939    0.0000 </r>
       <r>   14.7843    0.0000 </r>
       <r>   15.0078    0.0000 </r>
       <r>   19.6145    0.0000 </r>
       <r>   20.9336    0.0000 </r>
      </set>
      <set comment="kpoint 43">
       <r>    2.5646    1.0000 </r>
       <r>    3.9048    1.0000 </r>
       <r>    5.1663    1.0000 </r>
       <r>    8.7805    0.0000 </r>
       <r>   10.4002    0.0000 </r>
       <r>   13.1370    0.0000 </r>
       <r>   17.6642    0.0000 </r>
       <r>   19.6188    0.0000 </r>
       <r>   20.7802    0.0000 </r>
      </set>
      <set comment="kpoint 44">
       <r>    2.1401    1.0000 </r>
       <r>    3.7239    1.0000 </r>
       <r>    5.7444    1.0000 </r>
       <r>    8.5223    0.0000 </r>
       <r>   11.6058    0.0000 </r>
       <r>   11.9974    0.0000 </r>
       <r>   17.5115    0.0000 </r>
       <r>   19.6178    0.0000 </r>
       <r>   21.7247    0.0000 </r>
      </set>
      <set comment="kpoint 45">
       <r>    2.6346    1.0000 </r>
       <r>    3.6163    1.0000 </r>
       <r>    5.6922    1.0000 </r>
       <r>    9.2757    0.0000 </r>
       <r>   11.4575    0.0000 </r>
       <r>   13.9365    0.0000 </r>
       <r>   16.5053    0.0000 </r>
       <r>   19.1672    0.0000 </r>
       <r>   19.6195    0.0000 </r>
      </set>
      <set comment="kpoint 46">
       <r>    3.0920    1.0000 </r>
       <r>    4.2316    1.0000 </r>
       <r>    5.2367    1.0000 </r>
       <r>    8.2429    0.0000 </r>
       <r>   12.2611    0.0000 </r>
       <r>   15.2931    0.0000 </r>
       <r>   16.0854    0.0000 </r>
       <r>   17.7543    0.0000 </r>
       <r>   19.6194    0.0000 </r>
      </set>
      <set comment="kpoint 47">
       <r>    3.3205    1.0000 </r>
       <r>    4.1576    1.0000 </r>
       <r>    4.8328    1.0000 </r>
       <r>    8.4750    0.0000 </r>
       <r>   11.3995    0.0000 </r>
       <r>   14.2046    0.0000 </r>
       <r>   16.7222    0.0000 </r>
       <r>   19.0221    0.0000 </r>
       <r>   19.6210    0.0000 </r>
      </set>
      <set comment="kpoint 48">
       <r>    2.1714    1.0000 </r>
       <r>    3.1894    1.0000 </r>
       <r>    7.0554    0.0000 </r>
       <r>   10.0271    0.0000 </r>
       <r>   11.9927    0.0000 </r>
       <r>   14.3228    0.0000 </r>
       <r>   14.9608    0.0000 </r>
       <r>   19.5865    0.0000 </r>
       <r>   19.9478    0.0000 </r>
      </set>
      <set comment="kpoint 49">
       <r>    2.5029    1.0000 </r>
       <r>    3.4734    1.0000 </r>
       <r>    6.3831    0.0000 </r>
       <r>    9.2658    0.0000 </r>
       <r>   12.2754    0.0000 </r>
       <r>   14.9370    0.0000 </r>
       <r>   15.6184    0.0000 </r>
       <r>   17.9796    0.0000 </r>
       <r>   19.6173    0.0000 </r>
      </set>
      <set comment="kpoint 50">
       <r>    2.2521    1.0000 </r>
       <r>    3.3658    1.0000 </r>
       <r>    6.3726    0.0000 </r>
       <r>    9.3377    0.0000 </r>
       <r>   12.1717    0.0000 </r>
       <r>   13.2170    0.0000 </r>
       <r>   15.7985    0.0000 </r>
       <r>   19.6132    0.0000 </r>
       <r>   20.5163    0.0000 </r>
      </set>
      <set comment="kpoint 51">
       <r>    0.5807    1.0000 </r>
       <r>    5.3046    1.0000 </r>
       <r>    6.6114    0.0000 </r>
       <r>    6.6114    0.0000 </r>
       <r>   10.1703    0.0000 </r>
       <r>   10.1703    0.0000 </r>
       <r>   17.6649    0.0000 </r>
       <r>   19.6130    0.0000 </r>
       <r>   21.6454    0.0000 </r>
      </set>
      <set comment="kpoint 52">
       <r>    1.4767    1.0000 </r>
       <r>    5.1688    1.0000 </r>
       <r>    5.8920    0.9815 </r>
       <r>    6.8734    0.0000 </r>
       <r>    9.7533    0.0000 </r>
       <r>   12.1528    0.0000 </r>
       <r>   17.8159    0.0000 </r>
       <r>   19.6163    0.0000 </r>
       <r>   20.7395    0.0000 </r>
      </set>
      <set comment="kpoint 53">
       <r>    3.0149    1.0000 </r>
       <r>    4.4561    1.0000 </r>
       <r>    5.0764    1.0000 </r>
       <r>    7.8038    0.0000 </r>
       <r>    9.8871    0.0000 </r>
       <r>   13.3382    0.0000 </r>
       <r>   17.6715    0.0000 </r>
       <r>   19.6185    0.0000 </r>
       <r>   20.7714    0.0000 </r>
      </set>
      <set comment="kpoint 54">
       <r>    3.0068    1.0000 </r>
       <r>    3.8648    1.0000 </r>
       <r>    5.8018    1.0008 </r>
       <r>    8.6640    0.0000 </r>
       <r>   11.0488    0.0000 </r>
       <r>   13.1292    0.0000 </r>
       <r>   17.1316    0.0000 </r>
       <r>   19.5312    0.0000 </r>
       <r>   19.6705    0.0000 </r>
      </set>
      <set comment="kpoint 55">
       <r>    1.6441    1.0000 </r>
       <r>    5.1230    1.0000 </r>
       <r>    5.9298    0.5102 </r>
       <r>    6.8730    0.0000 </r>
       <r>   11.3480    0.0000 </r>
       <r>   11.8225    0.0000 </r>
       <r>   16.9233    0.0000 </r>
       <r>   19.6140    0.0000 </r>
       <r>   20.0104    0.0000 </r>
      </set>
      <set comment="kpoint 56">
       <r>    2.7118    1.0000 </r>
       <r>    4.3442    1.0000 </r>
       <r>    5.4695    1.0000 </r>
       <r>    7.6514    0.0000 </r>
       <r>   11.0641    0.0000 </r>
       <r>   13.5943    0.0000 </r>
       <r>   15.9842    0.0000 </r>
       <r>   19.6169    0.0000 </r>
       <r>   21.3279    0.0000 </r>
      </set>
      <set comment="kpoint 57">
       <r>    3.3263    1.0000 </r>
       <r>    3.9544    1.0000 </r>
       <r>    5.2940    1.0000 </r>
       <r>    8.3648    0.0000 </r>
       <r>   11.4478    0.0000 </r>
       <r>   14.0232    0.0000 </r>
       <r>   16.7586    0.0000 </r>
       <r>   19.0777    0.0000 </r>
       <r>   19.6252    0.0000 </r>
      </set>
      <set comment="kpoint 58">
       <r>    2.7944    1.0000 </r>
       <r>    4.0235    1.0000 </r>
       <r>    5.7849    1.0002 </r>
       <r>    8.0419    0.0000 </r>
       <r>   11.6118    0.0000 </r>
       <r>   13.5874    0.0000 </r>
       <r>   15.4517    0.0000 </r>
       <r>   19.6151    0.0000 </r>
       <r>   21.0563    0.0000 </r>
      </set>
      <set comment="kpoint 59">
       <r>    1.2217    1.0000 </r>
       <r>    6.2199    0.0000 </r>
       <r>    6.2199    0.0000 </r>
       <r>    6.4051    0.0000 </r>
       <r>   11.6060    0.0000 </r>
       <r>   11.6060    0.0000 </r>
       <r>   16.4688    0.0000 </r>
       <r>   18.5422    0.0000 </r>
       <r>   19.6200    0.0000 </r>
      </set>
      <set comment="kpoint 60">
       <r>    1.8228    1.0000 </r>
       <r>    5.2553    1.0000 </r>
       <r>    6.3814    0.0000 </r>
       <r>    6.6432    0.0000 </r>
       <r>   11.5009    0.0000 </r>
       <r>   12.7926    0.0000 </r>
       <r>   15.8361    0.0000 </r>
       <r>   19.4230    0.0000 </r>
       <r>   19.6178    0.0000 </r>
      </set>
     </set>
    </set>
   </array>
  </eigenvalues>
  <separator name="orbital magnetization" >
   <v name="MAGDIPOLOUT">      0.00000000      0.00000000      0.00000000</v>
  </separator>
  <dos>
   <i name="efermi">      5.93044262 </i>
   <total>
    <array>
     <dimension dim="1">gridpoints</dimension>
     <dimension dim="2">spin</dimension>
     <field>energy</field>
     <field>total</field>
     <field>integrated</field>
     <set>
      <set comment="spin 1">
       <r>    -3.3542     0.0000     0.0000 </r>
       <r>    -3.2612     0.0000     0.0000 </r>
       <r>    -3.1681     0.0000     0.0000 </r>
       <r>    -3.0751     0.0000     0.0000 </r>
       <r>    -2.9820     0.0000     0.0000 </r>
       <r>    -2.8890     0.0000     0.0000 </r>
       <r>    -2.7959     0.0000     0.0000 </r>
       <r>    -2.7029     0.0000     0.0000 </r>
       <r>    -2.6098     0.0000     0.0000 </r>
       <r>    -2.5168     0.0000     0.0000 </r>
       <r>    -2.4237     0.0000     0.0000 </r>
       <r>    -2.3307     0.0000     0.0000 </r>
       <r>    -2.2376     0.0000     0.0000 </r>
       <r>    -2.1445    -0.0015    -0.0001 </r>
       <r>    -2.0515     0.0408     0.0037 </r>
       <r>    -1.9584     0.0028     0.0039 </r>
       <r>    -1.8654     0.0000     0.0039 </r>
       <r>    -1.7723    -0.0011     0.0038 </r>
       <r>    -1.6793     0.0535     0.0088 </r>
       <r>    -1.5862     0.0756     0.0158 </r>
       <r>    -1.4932    -0.0020     0.0156 </r>
       <r>    -1.4001    -0.0005     0.0156 </r>
       <r>    -1.3071     0.0276     0.0182 </r>
       <r>    -1.2140     0.1023     0.0277 </r>
       <r>    -1.1210    -0.0035     0.0273 </r>
       <r>    -1.0279    -0.0008     0.0273 </r>
       <r>    -0.9349     0.0347     0.0305 </r>
       <r>    -0.8418     0.1389     0.0434 </r>
       <r>    -0.7488    -0.0048     0.0430 </r>
       <r>    -0.6557    -0.0028     0.0427 </r>
       <r>    -0.5627     0.1215     0.0540 </r>
       <r>    -0.4696     0.1365     0.0667 </r>
       <r>    -0.3766    -0.0045     0.0663 </r>
       <r>    -0.2835     0.0533     0.0713 </r>
       <r>    -0.1904     0.0757     0.0783 </r>
       <r>    -0.0974    -0.0020     0.0781 </r>
       <r>    -0.0043    -0.0020     0.0779 </r>
       <r>     0.0887     0.0928     0.0866 </r>
       <r>     0.1818     0.1625     0.1017 </r>
       <r>     0.2748     0.0988     0.1109 </r>
       <r>     0.3679     0.0305     0.1137 </r>
       <r>     0.4609     0.2551     0.1375 </r>
       <r>     0.5540    -0.0079     0.1367 </r>
       <r>     0.6470     0.1688     0.1524 </r>
       <r>     0.7401    -0.0010     0.1523 </r>
       <r>     0.8331    -0.0003     0.1523 </r>
       <r>     0.9262    -0.0017     0.1522 </r>
       <r>     1.0192     0.5127     0.1999 </r>
       <r>     1.1123     0.2251     0.2208 </r>
       <r>     1.2053     0.0238     0.2230 </r>
       <r>     1.2984     0.1495     0.2369 </r>
       <r>     1.3914     0.1854     0.2542 </r>
       <r>     1.4845     0.2830     0.2805 </r>
       <r>     1.5775     0.2470     0.3035 </r>
       <r>     1.6706     0.5741     0.3569 </r>
       <r>     1.7637     0.3350     0.3881 </r>
       <r>     1.8567     0.2613     0.4124 </r>
       <r>     1.9498     0.5627     0.4648 </r>
       <r>     2.0428     0.4647     0.5080 </r>
       <r>     2.1359     0.3048     0.5364 </r>
       <r>     2.2289     0.4619     0.5794 </r>
       <r>     2.3220     0.2412     0.6018 </r>
       <r>     2.4150     0.0954     0.6107 </r>
       <r>     2.5081     0.5802     0.6647 </r>
       <r>     2.6011     0.4711     0.7085 </r>
       <r>     2.6942     0.6949     0.7732 </r>
       <r>     2.7872     0.4714     0.8171 </r>
       <r>     2.8803     0.4613     0.8600 </r>
       <r>     2.9733     0.2563     0.8838 </r>
       <r>     3.0664     0.2870     0.9105 </r>
       <r>     3.1594     0.4665     0.9540 </r>
       <r>     3.2525     0.5099     1.0014 </r>
       <r>     3.3455     0.6711     1.0638 </r>
       <r>     3.4386     0.4930     1.1097 </r>
       <r>     3.5316     0.4687     1.1533 </r>
       <r>     3.6247     0.2103     1.1729 </r>
       <r>     3.7178     0.3207     1.2027 </r>
       <r>     3.8108     0.4381     1.2435 </r>
       <r>     3.9039     0.4647     1.2868 </r>
       <r>     3.9969     0.9387     1.3741 </r>
       <r>     4.0900     0.1236     1.3856 </r>
       <r>     4.1830     0.4743     1.4297 </r>
       <r>     4.2761     0.9782     1.5208 </r>
       <r>     4.3691     0.4184     1.5597 </r>
       <r>     4.4622     0.1480     1.5735 </r>
       <r>     4.5552     0.3605     1.6070 </r>
       <r>     4.6483     0.3739     1.6418 </r>
       <r>     4.7413     0.9696     1.7320 </r>
       <r>     4.8344     0.5747     1.7855 </r>
       <r>     4.9274     0.1290     1.7975 </r>
       <r>     5.0205     0.8347     1.8752 </r>
       <r>     5.1135     0.2189     1.8956 </r>
       <r>     5.2066     0.9868     1.9874 </r>
       <r>     5.2996     0.8656     2.0679 </r>
       <r>     5.3927     0.4218     2.1072 </r>
       <r>     5.4857     1.0538     2.2052 </r>
       <r>     5.5788     0.2885     2.2321 </r>
       <r>     5.6719     0.5706     2.2852 </r>
       <r>     5.7649     0.9087     2.3697 </r>
       <r>     5.8580     0.8596     2.4497 </r>
       <r>     5.9510     0.6647     2.5116 </r>
       <r>     6.0441     0.2404     2.5339 </r>
       <r>     6.1371     0.4401     2.5749 </r>
       <r>     6.2302     0.7137     2.6413 </r>
       <r>     6.3232     0.6210     2.6991 </r>
       <r>     6.4163     0.7888     2.7725 </r>
       <r>     6.5093     0.4213     2.8117 </r>
       <r>     6.6024     0.4439     2.8530 </r>
       <r>     6.6954     0.7464     2.9224 </r>
       <r>     6.7885     0.4558     2.9649 </r>
       <r>     6.8815     1.0231     3.0601 </r>
       <r>     6.9746     0.2546     3.0838 </r>
       <r>     7.0676     0.6033     3.1399 </r>
       <r>     7.1607     0.4459     3.1814 </r>
       <r>     7.2537     0.5045     3.2283 </r>
       <r>     7.3468     0.1501     3.2423 </r>
       <r>     7.4398     0.4695     3.2860 </r>
       <r>     7.5329     0.1088     3.2961 </r>
       <r>     7.6260     0.6113     3.3530 </r>
       <r>     7.7190     0.5521     3.4044 </r>
       <r>     7.8121     0.6295     3.4629 </r>
       <r>     7.9051     0.2305     3.4844 </r>
       <r>     7.9982     0.1289     3.4964 </r>
       <r>     8.0912     0.3333     3.5274 </r>
       <r>     8.1843     0.6554     3.5884 </r>
       <r>     8.2773     0.7340     3.6567 </r>
       <r>     8.3704     0.5121     3.7043 </r>
       <r>     8.4634     0.4023     3.7418 </r>
       <r>     8.5565     1.0176     3.8365 </r>
       <r>     8.6495     0.0645     3.8425 </r>
       <r>     8.7426     0.3713     3.8770 </r>
       <r>     8.8356     0.5747     3.9305 </r>
       <r>     8.9287     0.2392     3.9527 </r>
       <r>     9.0217     0.0013     3.9529 </r>
       <r>     9.1148     0.1376     3.9657 </r>
       <r>     9.2078     0.4321     4.0059 </r>
       <r>     9.3009     0.7469     4.0754 </r>
       <r>     9.3939     0.8366     4.1532 </r>
       <r>     9.4870     0.2609     4.1775 </r>
       <r>     9.5801     0.5047     4.2244 </r>
       <r>     9.6731     0.0204     4.2263 </r>
       <r>     9.7662     0.1124     4.2368 </r>
       <r>     9.8592     0.1892     4.2544 </r>
       <r>     9.9523     0.4262     4.2941 </r>
       <r>    10.0453     0.2560     4.3179 </r>
       <r>    10.1384     0.1949     4.3360 </r>
       <r>    10.2314     0.2657     4.3608 </r>
       <r>    10.3245     0.0784     4.3681 </r>
       <r>    10.4175     1.1660     4.4766 </r>
       <r>    10.5106     0.4714     4.5204 </r>
       <r>    10.6036     0.5480     4.5714 </r>
       <r>    10.6967     0.6098     4.6282 </r>
       <r>    10.7897     0.1051     4.6379 </r>
       <r>    10.8828     0.2408     4.6603 </r>
       <r>    10.9758     0.0784     4.6676 </r>
       <r>    11.0689     0.2203     4.6881 </r>
       <r>    11.1619     0.3950     4.7249 </r>
       <r>    11.2550     0.3439     4.7569 </r>
       <r>    11.3480     0.5447     4.8076 </r>
       <r>    11.4411     1.2772     4.9264 </r>
       <r>    11.5342     0.8669     5.0071 </r>
       <r>    11.6272     0.5971     5.0627 </r>
       <r>    11.7203     0.7881     5.1360 </r>
       <r>    11.8133     0.2505     5.1593 </r>
       <r>    11.9064     0.1869     5.1767 </r>
       <r>    11.9994     0.4308     5.2168 </r>
       <r>    12.0925     0.3163     5.2462 </r>
       <r>    12.1855     0.5393     5.2964 </r>
       <r>    12.2786     0.4088     5.3344 </r>
       <r>    12.3716     0.6916     5.3988 </r>
       <r>    12.4647     0.5512     5.4501 </r>
       <r>    12.5577    -0.0089     5.4492 </r>
       <r>    12.6508    -0.0043     5.4488 </r>
       <r>    12.7438     0.1070     5.4588 </r>
       <r>    12.8369     0.2661     5.4835 </r>
       <r>    12.9299     0.3468     5.5158 </r>
       <r>    13.0230     0.4287     5.5557 </r>
       <r>    13.1160     0.0498     5.5603 </r>
       <r>    13.2091     0.8654     5.6409 </r>
       <r>    13.3021     0.3335     5.6719 </r>
       <r>    13.3952     0.2584     5.6959 </r>
       <r>    13.4883    -0.0175     5.6943 </r>
       <r>    13.5813     0.3545     5.7273 </r>
       <r>    13.6744     0.5560     5.7790 </r>
       <r>    13.7674    -0.0270     5.7765 </r>
       <r>    13.8605     0.2325     5.7981 </r>
       <r>    13.9535     0.4407     5.8392 </r>
       <r>    14.0466     0.2983     5.8669 </r>
       <r>    14.1396     0.1402     5.8800 </r>
       <r>    14.2327     0.3788     5.9152 </r>
       <r>    14.3257     0.0946     5.9240 </r>
       <r>    14.4188     0.0625     5.9298 </r>
       <r>    14.5118    -0.0015     5.9297 </r>
       <r>    14.6049     0.0000     5.9297 </r>
       <r>    14.6979    -0.0039     5.9293 </r>
       <r>    14.7910     0.1481     5.9431 </r>
       <r>    14.8840     0.0984     5.9523 </r>
       <r>    14.9771     0.3542     5.9852 </r>
[...]
       </set>
       <set comment="band 6">
        <r>  0.1315  0.0084  0.1856  0.0092  0.0021  0.5236  0.0716  0.0157  0.0358 </r>
       </set>
       <set comment="band 7">
        <r>  0.2935  0.1158  0.0949  0.0838  0.0255  0.0003  0.0016  0.0453  0.1531 </r>
       </set>
       <set comment="band 8">
        <r>  0.1936  0.0346  0.0322  0.5168  0.0689  0.0017  0.0048  0.1205  0.0542 </r>
       </set>
       <set comment="band 9">
        <r> 43.8807  0.0016  0.0001  0.0028  0.0003  0.0001  0.0000  0.0005  0.0012 </r>
       </set>
      </set>
      <set comment="kpoint 46">
       <set comment="band 1">
        <r>  0.0133  0.1157  0.0031  0.0002  0.0084  0.0000  0.6466  0.0000  0.0920 </r>
       </set>
       <set comment="band 2">
        <r>  0.0133  0.0060  0.0028  0.1757  0.7618  0.0093  0.0014  0.0039  0.0053 </r>
       </set>
       <set comment="band 3">
        <r>  0.0181  0.0003  0.2770  0.0037  0.0149  0.6388  0.0003  0.0048  0.0088 </r>
       </set>
       <set comment="band 4">
        <r>  0.1553  0.0096  0.0147  0.0052  0.0041  0.0079  0.0917  0.0020  0.6162 </r>
       </set>
       <set comment="band 5">
        <r>  0.0073  0.0000  0.0090  0.0121  0.0149  0.0296  0.0000  0.9036  0.0000 </r>
       </set>
       <set comment="band 6">
        <r>  0.4146  0.0019  0.0918  0.0451  0.0310  0.0996  0.0478  0.0519  0.1190 </r>
       </set>
       <set comment="band 7">
        <r>  0.0230  0.0155  0.3493  0.2000  0.0812  0.2000  0.0087  0.0010  0.0411 </r>
       </set>
       <set comment="band 8">
        <r>  0.1025  0.0005  0.1104  0.3793  0.1038  0.0413  0.0443  0.0314  0.0861 </r>
       </set>
       <set comment="band 9">
        <r> 44.1695  0.0001  0.0001  0.0002  0.0000  0.0000  0.0000  0.0000  0.0006 </r>
       </set>
      </set>
      <set comment="kpoint 47">
       <set comment="band 1">
        <r>  0.0435  0.1158  0.0003  0.0431  0.0071  0.0243  0.3807  0.0014  0.2655 </r>
       </set>
       <set comment="band 2">
        <r>  0.0520  0.0088  0.1240  0.0351  0.1512  0.5046  0.0622  0.0300  0.0036 </r>
       </set>
       <set comment="band 3">
        <r>  0.0661  0.0022  0.0570  0.1544  0.4127  0.2328  0.0426  0.0013  0.0001 </r>
       </set>
       <set comment="band 4">
        <r>  0.0485  0.0106  0.0041  0.0777  0.0150  0.0000  0.2328  0.0198  0.5115 </r>
       </set>
       <set comment="band 5">
        <r>  0.0167  0.0004  0.0406  0.0000  0.0280  0.0826  0.0030  0.7772  0.0051 </r>
       </set>
       <set comment="band 6">
        <r>  0.3160  0.0036  0.0066  0.1443  0.3366  0.0008  0.0160  0.0280  0.0762 </r>
       </set>
       <set comment="band 7">
        <r>  0.1604  0.0602  0.1654  0.1505  0.0297  0.0746  0.1690  0.0612  0.0219 </r>
       </set>
       <set comment="band 8">
        <r>  0.1648  0.0273  0.4191  0.0953  0.0214  0.1126  0.0725  0.1077  0.0316 </r>
       </set>
       <set comment="band 9">
        <r> 44.0014  0.0007  0.0019  0.0005  0.0000  0.0004  0.0014  0.0004  0.0003 </r>
       </set>
      </set>
      <set comment="kpoint 48">
       <set comment="band 1">
        <r>  0.0980  0.0093  0.0044  0.0093  0.0943  0.0004  0.6921  0.0004  0.0000 </r>
       </set>
       <set comment="band 2">
        <r>  0.0004  0.0490  0.0000  0.0490  0.8264  0.0008  0.0616  0.0008  0.0000 </r>
       </set>
       <set comment="band 3">
        <r>  0.0181  0.0001  0.5203  0.0001  0.0039  0.1993  0.0100  0.1993  0.0000 </r>
       </set>
       <set comment="band 4">
        <r>  0.0000  0.0355  0.0000  0.0355  0.0000  0.0302  0.0000  0.0302  0.8052 </r>
       </set>
       <set comment="band 5">
        <r>  0.0000  0.0001  0.0000  0.0001  0.0000  0.4532  0.0000  0.4532  0.0666 </r>
       </set>
       <set comment="band 6">
        <r>  0.3026  0.1347  0.1181  0.1347  0.0532  0.0317  0.0000  0.0317  0.0000 </r>
       </set>
       <set comment="band 7">
        <r>  0.1517  0.0059  0.2300  0.0059  0.0034  0.2828  0.0231  0.2828  0.0000 </r>
       </set>
       <set comment="band 8">
        <r> 39.0472  0.0123  0.0033  0.0124  0.0018  0.0011  0.0317  0.0011  0.0000 </r>
       </set>
       <set comment="band 9">
        <r>  5.3121  0.1172  0.0343  0.1156  0.0154  0.0097  0.3952  0.0096  0.0000 </r>
       </set>
      </set>
      <set comment="kpoint 49">
       <set comment="band 1">
        <r>  0.0683  0.0621  0.0043  0.0001  0.0227  0.0004  0.7203  0.0001  0.0146 </r>
       </set>
       <set comment="band 2">
        <r>  0.0009  0.0096  0.0000  0.0957  0.8686  0.0004  0.0138  0.0015  0.0010 </r>
       </set>
       <set comment="band 3">
        <r>  0.0218  0.0008  0.4127  0.0001  0.0016  0.4902  0.0060  0.0117  0.0100 </r>
       </set>
       <set comment="band 4">
        <r>  0.0832  0.0518  0.0212  0.0028  0.0008  0.0021  0.0166  0.0042  0.7302 </r>
       </set>
       <set comment="band 5">
        <r>  0.0062  0.0004  0.0051  0.0138  0.0065  0.0583  0.0000  0.8850  0.0015 </r>
       </set>
       <set comment="band 6">
        <r>  0.0922  0.0000  0.3531  0.0004  0.0000  0.4384  0.0280  0.0641  0.0022 </r>
       </set>
       <set comment="band 7">
        <r>  0.3379  0.0584  0.0646  0.1570  0.0422  0.0217  0.0108  0.0069  0.1439 </r>
       </set>
       <set comment="band 8">
        <r>  0.0824  0.0105  0.0234  0.5085  0.0676  0.0058  0.0427  0.0244  0.0698 </r>
       </set>
       <set comment="band 9">
        <r> 43.9856  0.0013  0.0000  0.0004  0.0000  0.0000  0.0001  0.0000  0.0010 </r>
       </set>
      </set>
      <set comment="kpoint 50">
       <set comment="band 1">
        <r>  0.1483  0.0073  0.0434  0.0073  0.1205  0.0052  0.5749  0.0052  0.0000 </r>
       </set>
       <set comment="band 2">
        <r>  0.0000  0.0515  0.0005  0.0515  0.7683  0.0067  0.0923  0.0067  0.0000 </r>
       </set>
       <set comment="band 3">
        <r>  0.1013  0.0003  0.3827  0.0003  0.0336  0.1678  0.0967  0.1678  0.0000 </r>
       </set>
       <set comment="band 4">
        <r>  0.0000  0.0331  0.0000  0.0331  0.0000  0.1364  0.0000  0.1364  0.5996 </r>
       </set>
       <set comment="band 5">
        <r>  0.0000  0.0002  0.0000  0.0002  0.0000  0.3362  0.0000  0.3362  0.3141 </r>
       </set>
       <set comment="band 6">
        <r>  0.0027  0.0680  0.2598  0.0680  0.0279  0.2213  0.0705  0.2213  0.0000 </r>
       </set>
       <set comment="band 7">
        <r>  0.3842  0.0916  0.0152  0.0916  0.0316  0.0968  0.0104  0.0968  0.0000 </r>
       </set>
       <set comment="band 8">
        <r> 43.8179  0.0005  0.0003  0.0005  0.0001  0.0003  0.0003  0.0003  0.0000 </r>
       </set>
       <set comment="band 9">
        <r>  0.0001  0.3072  0.0000  0.3089  0.0000  0.0262  0.0000  0.0265  0.1197 </r>
       </set>
      </set>
      <set comment="kpoint 51">
       <set comment="band 1">
        <r>  0.5788  0.0364  0.0364  0.0364  0.0805  0.0805  0.0000  0.0805  0.0000 </r>
       </set>
       <set comment="band 2">
        <r>  0.0326  0.1042  0.1042  0.1042  0.1923  0.1923  0.0000  0.1923  0.0000 </r>
       </set>
       <set comment="band 3">
        <r>  0.0000  0.0005  0.0018  0.0014  0.2552  0.1988  0.3363  0.0671  0.1215 </r>
       </set>
       <set comment="band 4">
        <r>  0.0000  0.0020  0.0007  0.0011  0.0922  0.1485  0.1215  0.2803  0.3363 </r>
       </set>
       <set comment="band 5">
        <r>  0.0000  0.0019  0.0081  0.0022  0.2950  0.0811  0.4948  0.0674  0.0011 </r>
       </set>
       <set comment="band 6">
        <r>  0.0000  0.0063  0.0000  0.0059  0.0007  0.2145  0.0011  0.2282  0.4948 </r>
       </set>
       <set comment="band 7">
        <r>  0.0879  0.0192  0.0192  0.0192  0.0277  0.0277  0.0000  0.0277  0.0000 </r>
       </set>
       <set comment="band 8">
        <r> 43.8142  0.0001  0.0001  0.0001  0.0000  0.0000  0.0000  0.0000  0.0000 </r>
       </set>
       <set comment="band 9">
        <r>  0.3673  0.0754  0.0754  0.0754  0.1240  0.1240  0.0000  0.1240  0.0000 </r>
       </set>
      </set>
      <set comment="kpoint 52">
       <set comment="band 1">
        <r>  0.4696  0.0657  0.0657  0.0000  0.0926  0.1599  0.0009  0.0926  0.0028 </r>
       </set>
       <set comment="band 2">
        <r>  0.0294  0.1032  0.1032  0.1513  0.2183  0.0222  0.0167  0.2183  0.0502 </r>
       </set>
       <set comment="band 3">
        <r>  0.0052  0.0040  0.0040  0.0146  0.0832  0.2977  0.1154  0.0832  0.3463 </r>
       </set>
       <set comment="band 4">
        <r>  0.0000  0.0022  0.0022  0.0000  0.1713  0.0000  0.4641  0.1713  0.1547 </r>
       </set>
       <set comment="band 5">
        <r>  0.0000  0.0059  0.0059  0.0000  0.3093  0.0000  0.2348  0.3093  0.0783 </r>
       </set>
       <set comment="band 6">
        <r>  0.0280  0.0305  0.0305  0.0028  0.0148  0.4489  0.1034  0.0148  0.3101 </r>
       </set>
       <set comment="band 7">
        <r>  0.1790  0.0524  0.0524  0.0323  0.0438  0.1173  0.0114  0.0438  0.0341 </r>
       </set>
       <set comment="band 8">
        <r> 43.8741  0.0000  0.0000  0.0000  0.0000  0.0003  0.0001  0.0000  0.0002 </r>
       </set>
       <set comment="band 9">
        <r>  0.3216  0.0738  0.0738  0.0219  0.0597  0.0089  0.0029  0.0597  0.0086 </r>
       </set>
      </set>
      <set comment="kpoint 53">
       <set comment="band 1">
        <r>  0.3066  0.0925  0.0925  0.0076  0.0319  0.4060  0.0001  0.0319  0.0004 </r>
       </set>
       <set comment="band 2">
        <r>  0.0004  0.0775  0.0775  0.0033  0.0002  0.0830  0.1573  0.0002  0.4720 </r>
       </set>
       <set comment="band 3">
        <r>  0.0065  0.0123  0.0123  0.2243  0.3326  0.0415  0.0012  0.3326  0.0037 </r>
       </set>
       <set comment="band 4">
        <r>  0.0000  0.0179  0.0179  0.0000  0.0332  0.0000  0.6278  0.0332  0.2093 </r>
       </set>
       <set comment="band 5">
        <r>  0.0000  0.0015  0.0015  0.0000  0.4403  0.0000  0.0455  0.4403  0.0152 </r>
       </set>
       <set comment="band 6">
        <r>  0.2631  0.0202  0.0202  0.0038  0.0000  0.4737  0.0408  0.0000  0.1225 </r>
       </set>
       <set comment="band 7">
        <r>  0.1726  0.1359  0.1359  0.0374  0.0343  0.0000  0.0644  0.0343  0.1932 </r>
       </set>
       <set comment="band 8">
        <r> 44.1129  0.0001  0.0001  0.0004  0.0002  0.0001  0.0001  0.0002  0.0003 </r>
       </set>
       <set comment="band 9">
        <r>  0.0285  0.0150  0.0150  0.5026  0.2250  0.0003  0.0097  0.2250  0.0292 </r>
       </set>
      </set>
      <set comment="kpoint 54">
       <set comment="band 1">
        <r>  0.1080  0.0000  0.0000  0.0067  0.0048  0.4081  0.1030  0.0048  0.3091 </r>
       </set>
       <set comment="band 2">
        <r>  0.0218  0.1399  0.1399  0.0006  0.0072  0.2993  0.0761  0.0072  0.2282 </r>
       </set>
       <set comment="band 3">
        <r>  0.0042  0.0037  0.0037  0.3481  0.2835  0.0318  0.0007  0.2835  0.0021 </r>
       </set>
       <set comment="band 4">
        <r>  0.0000  0.0304  0.0304  0.0000  0.0260  0.0000  0.6145  0.0260  0.2048 </r>
       </set>
       <set comment="band 5">
        <r>  0.0000  0.0008  0.0008  0.0000  0.4503  0.0000  0.0377  0.4503  0.0126 </r>
       </set>
       <set comment="band 6">
        <r>  0.4870  0.0522  0.0522  0.0127  0.0007  0.2151  0.0035  0.0007  0.0104 </r>
       </set>
       <set comment="band 7">
        <r>  0.0605  0.0315  0.0315  0.3443  0.2159  0.0058  0.0264  0.2159  0.0791 </r>
       </set>
       <set comment="band 8">
        <r> 15.5568  0.0658  0.0658  0.0946  0.0375  0.0138  0.0532  0.0375  0.1596 </r>
       </set>
       <set comment="band 9">
        <r> 28.6550  0.0411  0.0411  0.0539  0.0203  0.0074  0.0363  0.0203  0.1088 </r>
       </set>
      </set>
      <set comment="kpoint 55">
       <set comment="band 1">
        <r>  0.3899  0.0019  0.0793  0.0019  0.1998  0.1382  0.0195  0.1382  0.0000 </r>
       </set>
       <set comment="band 2">
        <r>  0.0126  0.1287  0.0679  0.1287  0.0767  0.0553  0.3597  0.0553  0.0000 </r>
       </set>
       <set comment="band 3">
        <r>  0.0328  0.0301  0.0737  0.0301  0.4508  0.0446  0.2630  0.0446  0.0000 </r>
       </set>
       <set comment="band 4">
        <r>  0.0000  0.0102  0.0000  0.0102  0.0000  0.2095  0.0000  0.2095  0.5320 </r>
       </set>
       <set comment="band 5">
        <r>  0.0089  0.0294  0.1011  0.0294  0.1721  0.1573  0.2839  0.1573  0.0000 </r>
       </set>
       <set comment="band 6">
        <r>  0.0000  0.0019  0.0000  0.0019  0.0000  0.2744  0.0000  0.2744  0.4295 </r>
       </set>
       <set comment="band 7">
        <r>  0.2915  0.0383  0.0350  0.0383  0.0573  0.1356  0.0040  0.1356  0.0000 </r>
       </set>
       <set comment="band 8">
        <r> 43.4571  0.0000  0.0005  0.0000  0.0002  0.0001  0.0006  0.0001  0.0000 </r>
       </set>
       <set comment="band 9">
        <r>  0.7182  0.0202  0.0564  0.0202  0.0601  0.0064  0.0474  0.0064  0.0000 </r>
       </set>
      </set>
      <set comment="kpoint 56">
       <set comment="band 1">
        <r>  0.2642  0.0129  0.0927  0.0211  0.2484  0.2101  0.0398  0.0843  0.0001 </r>
       </set>
       <set comment="band 2">
        <r>  0.0002  0.1138  0.0152  0.0444  0.0101  0.0730  0.4877  0.0122  0.1234 </r>
       </set>
       <set comment="band 3">
        <r>  0.0265  0.0315  0.1068  0.1258  0.4148  0.2136  0.0159  0.0098  0.0208 </r>
       </set>
       <set comment="band 4">
        <r>  0.0002  0.0049  0.0452  0.0103  0.0238  0.0107  0.1586  0.2008  0.4935 </r>
       </set>
       <set comment="band 5">
        <r>  0.0138  0.0028  0.0223  0.0150  0.1385  0.0545  0.0694  0.4977  0.1327 </r>
       </set>
       <set comment="band 6">
        <r>  0.1110  0.0273  0.1084  0.0510  0.0242  0.4151  0.1305  0.0055  0.0901 </r>
       </set>
       <set comment="band 7">
        <r>  0.3456  0.0511  0.0535  0.0589  0.0891  0.0212  0.0044  0.1459  0.0906 </r>
       </set>
       <set comment="band 8">
        <r> 44.0789  0.0000  0.0000  0.0002  0.0001  0.0002  0.0000  0.0002  0.0000 </r>
       </set>
       <set comment="band 9">
        <r>  0.0017  0.0087  0.0332  0.0667  0.0564  0.0365  0.1275  0.0122  0.0344 </r>
       </set>
      </set>
      <set comment="kpoint 57">
       <set comment="band 1">
        <r>  0.0301  0.0758  0.0000  0.0052  0.0016  0.1221  0.3481  0.0010  0.3098 </r>
       </set>
       <set comment="band 2">
        <r>  0.0741  0.0611  0.1600  0.0081  0.0348  0.5356  0.0707  0.0095  0.0087 </r>
       </set>
       <set comment="band 3">
        <r>  0.0023  0.0040  0.0145  0.2711  0.5712  0.0533  0.0017  0.0484  0.0000 </r>
       </set>
       <set comment="band 4">
        <r>  0.0717  0.0053  0.0374  0.0082  0.0001  0.0154  0.3320  0.0179  0.4308 </r>
       </set>
       <set comment="band 5">
        <r>  0.0215  0.0001  0.0017  0.0215  0.1566  0.0170  0.0026  0.7306  0.0030 </r>
       </set>
       <set comment="band 6">
        <r>  0.4107  0.0137  0.1270  0.0092  0.0008  0.1895  0.0794  0.0297  0.0144 </r>
       </set>
       <set comment="band 7">
        <r>  0.0677  0.0213  0.0747  0.3448  0.2080  0.0172  0.0137  0.1284  0.0910 </r>
       </set>
       <set comment="band 8">
        <r>  0.4004  0.0314  0.2250  0.1874  0.0698  0.0476  0.0059  0.0569  0.2269 </r>
       </set>
       <set comment="band 9">
        <r> 43.8370  0.0006  0.0032  0.0021  0.0007  0.0005  0.0001  0.0005  0.0050 </r>
       </set>
      </set>
      <set comment="kpoint 58">
       <set comment="band 1">
        <r>  0.1827  0.0023  0.0502  0.0023  0.4343  0.0544  0.1884  0.0544  0.0000 </r>
       </set>
       <set comment="band 2">
        <r>  0.0051  0.1171  0.0002  0.1171  0.0997  0.0302  0.4940  0.0302  0.0000 </r>
       </set>
       <set comment="band 3">
        <r>  0.0257  0.0260  0.2627  0.0260  0.2229  0.1871  0.0247  0.1871  0.0000 </r>
       </set>
       <set comment="band 4">
        <r>  0.0000  0.0230  0.0000  0.0230  0.0000  0.1159  0.0000  0.1159  0.6654 </r>
       </set>
       <set comment="band 5">
        <r>  0.0000  0.0015  0.0000  0.0015  0.0000  0.3657  0.0000  0.3657  0.2321 </r>
       </set>
       <set comment="band 6">
        <r>  0.2346  0.0889  0.1431  0.0889  0.2069  0.0031  0.0760  0.0031  0.0000 </r>
       </set>
       <set comment="band 7">
        <r>  0.2963  0.0102  0.1018  0.0102  0.0008  0.2208  0.1138  0.2208  0.0000 </r>
       </set>
       <set comment="band 8">
        <r> 43.9834  0.0001  0.0004  0.0001  0.0001  0.0003  0.0001  0.0003  0.0000 </r>
       </set>
       <set comment="band 9">
        <r>  0.1377  0.0334  0.1916  0.0334  0.0004  0.0635  0.2940  0.0635  0.0000 </r>
       </set>
      </set>
      <set comment="kpoint 59">
       <set comment="band 1">
        <r>  0.3846  0.0048  0.0048  0.0048  0.1962  0.1962  0.0000  0.1962  0.0000 </r>
       </set>
       <set comment="band 2">
        <r>  0.0000  0.0002  0.0000  0.0001  0.0361  0.1238  0.0790  0.2397  0.5042 </r>
       </set>
       <set comment="band 3">
        <r>  0.0000  0.0000  0.0002  0.0001  0.2303  0.1426  0.5042  0.0267  0.0790 </r>
       </set>
       <set comment="band 4">
        <r>  0.0233  0.2482  0.2482  0.2482  0.0286  0.0286  0.0000  0.0286  0.0000 </r>
       </set>
       <set comment="band 5">
        <r>  0.0000  0.0023  0.0016  0.0004  0.2192  0.0528  0.2127  0.3165  0.1680 </r>
       </set>
       <set comment="band 6">
        <r>  0.0000  0.0005  0.0012  0.0024  0.1731  0.3396  0.1680  0.0758  0.2127 </r>
       </set>
       <set comment="band 7">
        <r>  0.3341  0.0083  0.0083  0.0083  0.1247  0.1247  0.0000  0.1247  0.0000 </r>
       </set>
       <set comment="band 8">
        <r>  0.0578  0.0299  0.0299  0.0299  0.0340  0.0340  0.0000  0.0340  0.0000 </r>
       </set>
       <set comment="band 9">
        <r> 44.1575  0.0001  0.0001  0.0001  0.0005  0.0005  0.0000  0.0005  0.0000 </r>
       </set>
      </set>
      <set comment="kpoint 60">
       <set comment="band 1">
        <r>  0.3226  0.0115  0.0115  0.0194  0.1840  0.2570  0.0002  0.1840  0.0007 </r>
       </set>
       <set comment="band 2">
        <r>  0.0003  0.0790  0.0790  0.0233  0.0178  0.0812  0.1482  0.0178  0.4446 </r>
       </set>
       <set comment="band 3">
        <r>  0.0016  0.1378  0.1378  0.2131  0.1057  0.2123  0.0058  0.1057  0.0175 </r>
       </set>
       <set comment="band 4">
        <r>  0.0000  0.0056  0.0056  0.0000  0.1700  0.0000  0.4642  0.1700  0.1547 </r>
       </set>
       <set comment="band 5">
        <r>  0.0000  0.0023  0.0023  0.0000  0.3205  0.0000  0.2412  0.3205  0.0804 </r>
       </set>
       <set comment="band 6">
        <r>  0.0222  0.0448  0.0448  0.0650  0.0429  0.3663  0.0815  0.0429  0.2445 </r>
       </set>
       <set comment="band 7">
        <r>  0.4504  0.0070  0.0070  0.0057  0.1599  0.0971  0.0051  0.1599  0.0153 </r>
       </set>
       <set comment="band 8">
        <r>  0.0299  0.0144  0.0144  0.0237  0.0167  0.0230  0.0067  0.0167  0.0202 </r>
       </set>
       <set comment="band 9">
        <r> 44.0995  0.0000  0.0000  0.0001  0.0003  0.0001  0.0000  0.0003  0.0000 </r>
       </set>
      </set>
     </set>
    </set>
   </array>
  </projected>
 </calculation>
 <structure name="finalpos" >
  <crystal>
   <varray name="basis" >
    <v>       0.00000000       2.09500000       2.09500000 </v>
    <v>       2.09500000       0.00000000       2.09500000 </v>
    <v>       2.09500000       2.09500000       0.00000000 </v>
   </varray>
   <i name="volume">     18.39001475 </i>
   <varray name="rec_basis" >
    <v>      -0.23866348       0.23866348       0.23866348 </v>
    <v>       0.23866348      -0.23866348       0.23866348 </v>
    <v>       0.23866348       0.23866348      -0.23866348 </v>
   </varray>
  </crystal>
  <varray name="positions" >
   <v>       0.00000000       0.00000000       0.00000000 </v>
  </varray>
 </structure>
</modeling>
