   1   1   1   0
  0.1813235E+02  0.2866544E-09  0.2866544E-09  0.2866544E-09  0.5000000E-15
  1.000000000000000E-004
  CAR 
 unknown system                          
     26.30748379     -2.97169774  301      5.64496606      1.00000000
     -2.972  0.0000E+00  0.0000E+00  0.0000E+00  0.0000E+00
     -2.874  0.0000E+00  0.0000E+00  0.0000E+00  0.0000E+00
     -2.777  0.0000E+00  0.0000E+00  0.0000E+00  0.0000E+00
     -2.679  0.0000E+00  0.0000E+00  0.0000E+00  0.0000E+00
     -2.581  0.0000E+00  0.0000E+00  0.0000E+00  0.0000E+00
     -2.484  0.0000E+00  0.0000E+00  0.0000E+00  0.0000E+00
     -2.386  0.0000E+00  0.0000E+00  0.0000E+00  0.0000E+00
     -2.289  0.0000E+00  0.0000E+00  0.0000E+00  0.0000E+00
     -2.191  0.0000E+00  0.0000E+00  0.0000E+00  0.0000E+00
     -2.093 -0.1959E-35  0.0000E+00 -0.1912E-36  0.0000E+00
     -1.996 -0.7507E-22 -0.1629E-37 -0.7326E-23 -0.1590E-38
     -1.898 -0.1256E-11 -0.1752E-23 -0.1225E-12 -0.1710E-24
     -1.801 -0.8619E-05 -0.8303E-13 -0.8412E-06 -0.8103E-14
     -1.703 -0.1007E-01 -0.1653E-05 -0.9837E-03 -0.1613E-06
     -1.605  0.2842E+00 -0.7811E-02  0.2676E-01 -0.7624E-03
     -1.508  0.1062E-01  0.2468E+00  0.2779E-01  0.2333E-01
     -1.410 -0.1552E-03  0.4609E-01  0.2778E-01  0.2783E-01
     -1.313 -0.2013E-09 -0.5106E-03  0.2778E-01  0.2778E-01
     -1.215  0.0000E+00 -0.1984E-08  0.2778E-01  0.2778E-01
     -1.117  0.0000E+00  0.0000E+00  0.2778E-01  0.2778E-01
     -1.020 -0.8863E-33  0.0000E+00  0.2778E-01  0.2778E-01
     -0.922 -0.9267E-20 -0.1023E-34  0.2778E-01  0.2778E-01
     -0.825 -0.4173E-10 -0.2904E-21  0.2778E-01  0.2778E-01
     -0.727 -0.7426E-04 -0.3589E-11  0.2777E-01  0.2778E-01
     -0.629 -0.5028E-02 -0.1806E-04  0.2728E-01  0.2778E-01
     -0.532  0.3955E+00 -0.1322E-01  0.6588E-01  0.2649E-01
     -0.434 -0.1088E-01  0.3876E+00  0.6482E-01  0.6431E-01
     -0.337 -0.3711E-04  0.5310E-02  0.6481E-01  0.6483E-01
     -0.239 -0.1235E-10 -0.1422E-03  0.6481E-01  0.6481E-01
     -0.141 -0.5579E-32 -0.1345E-09  0.6481E-01  0.6481E-01
     -0.044 -0.4927E-19 -0.9285E-34  0.6481E-01  0.6481E-01
      0.054 -0.1870E-09 -0.2063E-20  0.6481E-01  0.6481E-01
      0.151 -0.2790E-03 -0.1990E-10  0.6479E-01  0.6481E-01
      0.249 -0.6219E-02 -0.7766E-04  0.6418E-01  0.6481E-01
      0.347  0.1181E+01 -0.3727E-01  0.1794E+00  0.6117E-01
      0.444 -0.3602E-01  0.1177E+01  0.1759E+00  0.1761E+00
      0.542 -0.8750E-04 -0.1274E-02  0.1759E+00  0.1760E+00
      0.639 -0.2443E-10 -0.3109E-03  0.1759E+00  0.1759E+00
      0.737  0.0000E+00 -0.2273E-09  0.1759E+00  0.1759E+00
      0.835  0.0000E+00  0.0000E+00  0.1759E+00  0.1759E+00
      0.932  0.0000E+00  0.0000E+00  0.1759E+00  0.1759E+00
      1.030  0.0000E+00  0.0000E+00  0.1759E+00  0.1759E+00
      1.127 -0.1804E-29  0.0000E+00  0.1759E+00  0.1759E+00
      1.225 -0.4160E-17 -0.4179E-31  0.1759E+00  0.1759E+00
      1.323 -0.4116E-08 -0.2339E-18  0.1759E+00  0.1759E+00
      1.420 -0.1644E-02 -0.5707E-09  0.1758E+00  0.1759E+00
      1.518  0.1137E+00 -0.5829E-03  0.1869E+00  0.1759E+00
      1.615  0.2231E+01 -0.1027E-01  0.4046E+00  0.1749E+00
      1.713 -0.6556E-01  0.2329E+01  0.3982E+00  0.4022E+00
      1.811 -0.2168E-02 -0.4118E-01  0.3979E+00  0.3982E+00
      1.908  0.1679E+00 -0.1414E-02  0.4143E+00  0.3980E+00
      2.006  0.7096E+00  0.8981E-01  0.4836E+00  0.4068E+00
      2.103 -0.4107E-01  0.7919E+00  0.4796E+00  0.4841E+00
      2.201  0.8043E+00 -0.3873E-01  0.5581E+00  0.4803E+00
      2.299  0.6640E+00  0.6424E+00  0.6229E+00  0.5430E+00
      2.396  0.2689E+00  0.8379E+00  0.6491E+00  0.6248E+00
      2.494 -0.1007E-01  0.2486E+00  0.6481E+00  0.6490E+00
      2.591 -0.8881E-05 -0.9215E-02  0.6481E+00  0.6481E+00
      2.689 -0.1197E-01 -0.3773E-05  0.6470E+00  0.6481E+00
      2.787  0.5784E+00 -0.8259E-02  0.7034E+00  0.6473E+00
      2.884  0.1700E+01  0.4618E+00  0.8694E+00  0.6924E+00
      2.982  0.1546E+00  0.1827E+01  0.8845E+00  0.8707E+00
      3.079  0.5957E+00  0.2149E+00  0.9426E+00  0.8917E+00
      3.177  0.1068E+01  0.5271E+00  0.1047E+01  0.9432E+00
      3.275  0.9067E-01  0.9183E+00  0.1056E+01  0.1033E+01
      3.372 -0.1029E-02  0.2361E+00  0.1056E+01  0.1056E+01
      3.470 -0.1030E-07 -0.2739E-02  0.1056E+01  0.1056E+01
      3.567 -0.2079E-02 -0.3851E-07  0.1055E+01  0.1056E+01
      3.665  0.1872E+00 -0.3524E-02  0.1074E+01  0.1055E+01
      3.763  0.9843E+00  0.2866E+00  0.1170E+01  0.1083E+01
      3.860 -0.3103E-01  0.8796E+00  0.1167E+01  0.1169E+01
      3.958 -0.1498E-02 -0.2424E-01  0.1167E+01  0.1167E+01
      4.055  0.1262E+00 -0.5659E-03  0.1179E+01  0.1167E+01
      4.153  0.4573E+00  0.5054E-01  0.1223E+01  0.1172E+01
      4.251 -0.4600E-02  0.5377E+00  0.1223E+01  0.1224E+01
      4.348  0.1638E+01 -0.3936E-01  0.1383E+01  0.1220E+01
      4.446  0.1017E+01  0.1700E+01  0.1482E+01  0.1386E+01
      4.543  0.1036E+01  0.7966E+00  0.1583E+01  0.1464E+01
      4.641  0.2002E+01  0.1213E+01  0.1779E+01  0.1582E+01
      4.738  0.3279E+00  0.1856E+01  0.1811E+01  0.1763E+01
      4.836  0.2112E+00  0.5323E+00  0.1831E+01  0.1815E+01
      4.934  0.9561E+00  0.1687E+00  0.1925E+01  0.1832E+01
      5.031  0.2000E+01  0.8437E+00  0.2120E+01  0.1914E+01
      5.129  0.4894E+00  0.2004E+01  0.2168E+01  0.2110E+01
      5.226 -0.9148E-02  0.5963E+00  0.2167E+01  0.2168E+01
      5.324 -0.1557E-01 -0.1279E-01  0.2165E+01  0.2167E+01
      5.422  0.6806E+00 -0.8304E-02  0.2232E+01  0.2166E+01
      5.519  0.1399E+01  0.4784E+00  0.2368E+01  0.2213E+01
      5.617  0.2154E+01  0.1435E+01  0.2578E+01  0.2353E+01
      5.714 -0.4290E-01  0.2314E+01  0.2574E+01  0.2578E+01
      5.812 -0.3207E-03 -0.4434E-01  0.2574E+01  0.2574E+01
      5.910 -0.3651E-01 -0.3767E-03  0.2571E+01  0.2574E+01
      6.007  0.1180E+01 -0.3648E-01  0.2686E+01  0.2571E+01
      6.105 -0.4435E-02  0.1180E+01  0.2685E+01  0.2686E+01
      6.202 -0.3001E-03 -0.4577E-02  0.2685E+01  0.2685E+01
      6.300 -0.1928E-01 -0.2924E-03  0.2683E+01  0.2685E+01
      6.398  0.5353E+00 -0.1517E-01  0.2736E+01  0.2684E+01
      6.495  0.4642E+00  0.4734E+00  0.2781E+01  0.2730E+01
      6.593  0.5570E+00  0.4796E+00  0.2835E+01  0.2777E+01
      6.690  0.5057E-01  0.5994E+00  0.2840E+01  0.2835E+01
      6.788  0.1980E+00  0.1940E-01  0.2859E+01  0.2837E+01
      6.886  0.8346E+00  0.2390E+00  0.2941E+01  0.2860E+01
      6.983  0.9009E+00  0.6753E+00  0.3029E+01  0.2926E+01
      7.081 -0.1077E-01  0.1031E+01  0.3028E+01  0.3027E+01
      7.178 -0.1156E-03  0.8463E-02  0.3028E+01  0.3028E+01
      7.276 -0.6684E-10 -0.2674E-03  0.3028E+01  0.3028E+01
      7.374 -0.1870E-05 -0.3052E-09  0.3028E+01  0.3028E+01
      7.471 -0.2156E-01 -0.1153E-05  0.3026E+01  0.3028E+01
      7.569  0.8330E+00 -0.1825E-01  0.3107E+01  0.3026E+01
      7.666  0.3314E+00  0.7690E+00  0.3139E+01  0.3101E+01
      7.764 -0.4312E-02  0.3933E+00  0.3139E+01  0.3139E+01
      7.862 -0.3699E-07 -0.5556E-02  0.3139E+01  0.3139E+01
      7.959 -0.2920E-06 -0.6401E-07  0.3139E+01  0.3139E+01
      8.057 -0.1074E-01 -0.1285E-05  0.3138E+01  0.3139E+01
      8.154  0.5793E+00 -0.1896E-01  0.3194E+01  0.3137E+01
      8.252  0.9400E+00  0.7768E+00  0.3286E+01  0.3213E+01
      8.350  0.7881E+00  0.8188E+00  0.3363E+01  0.3293E+01
      8.447 -0.2610E-01  0.7163E+00  0.3360E+01  0.3363E+01
      8.545  0.2622E+00 -0.2088E-01  0.3386E+01  0.3361E+01
      8.642  0.1191E+00  0.2285E+00  0.3398E+01  0.3383E+01
      8.740  0.2097E+00  0.1484E+00  0.3418E+01  0.3397E+01
      8.838  0.6622E+00  0.2705E+00  0.3483E+01  0.3424E+01
      8.935  0.1957E+01  0.7022E+00  0.3674E+01  0.3492E+01
      9.033  0.1176E+01  0.1860E+01  0.3789E+01  0.3674E+01
      9.130 -0.1503E-01  0.1198E+01  0.3787E+01  0.3791E+01
      9.228 -0.2256E-03 -0.3800E-01  0.3787E+01  0.3787E+01
      9.326 -0.2422E-02 -0.7710E-04  0.3787E+01  0.3787E+01
      9.423  0.1954E+00 -0.1064E-01  0.3806E+01  0.3786E+01
      9.521  0.5750E+00  0.4797E+00  0.3862E+01  0.3833E+01
      9.618  0.4355E+00  0.2751E+00  0.3904E+01  0.3860E+01
      9.716  0.7050E+00  0.7835E+00  0.3973E+01  0.3936E+01
      9.814  0.2481E+00  0.3633E+00  0.3998E+01  0.3972E+01
      9.911  0.3157E+00  0.4256E+00  0.4028E+01  0.4013E+01
     10.009  0.4097E-01  0.1480E+00  0.4032E+01  0.4028E+01
     10.106  0.5191E+00  0.1644E+00  0.4083E+01  0.4044E+01
     10.204  0.8976E+00  0.7516E+00  0.4171E+01  0.4117E+01
     10.302  0.1280E+01  0.8200E+00  0.4295E+01  0.4197E+01
     10.399  0.1177E+01  0.9527E+00  0.4410E+01  0.4290E+01
     10.497  0.1309E+01  0.1462E+01  0.4538E+01  0.4433E+01
     10.594  0.1094E+01  0.1249E+01  0.4645E+01  0.4555E+01
     10.692  0.1749E+01  0.1371E+01  0.4816E+01  0.4688E+01
     10.790  0.1151E+00  0.1336E+01  0.4827E+01  0.4819E+01
     10.887  0.1290E+00  0.1616E+00  0.4840E+01  0.4835E+01
     10.985  0.1143E+01  0.1314E+00  0.4951E+01  0.4847E+01
     11.082  0.9675E+00  0.1091E+01  0.5045E+01  0.4954E+01
     11.180  0.2003E+00  0.1057E+01  0.5065E+01  0.5057E+01
     11.278 -0.2250E-02  0.8076E-01  0.5065E+01  0.5065E+01
     11.375 -0.9632E-08 -0.9392E-03  0.5065E+01  0.5065E+01
     11.473 -0.1047E-26 -0.1751E-08  0.5065E+01  0.5065E+01
     11.570 -0.3427E-15 -0.9946E-26  0.5065E+01  0.5065E+01
     11.668 -0.5031E-07 -0.1852E-14  0.5065E+01  0.5065E+01
     11.765 -0.2305E-02 -0.1494E-06  0.5065E+01  0.5065E+01
     11.863  0.9265E-01 -0.3582E-02  0.5074E+01  0.5064E+01
     11.961  0.1681E+01  0.1219E+00  0.5238E+01  0.5076E+01
     12.058  0.2882E+01  0.1791E+01  0.5519E+01  0.5251E+01
     12.156  0.1880E+00  0.2831E+01  0.5537E+01  0.5527E+01
     12.253 -0.2843E-02  0.1005E+00  0.5537E+01  0.5537E+01
     12.351 -0.9560E-03 -0.1670E-02  0.5537E+01  0.5537E+01
     12.449  0.8247E-01 -0.1880E-02  0.5545E+01  0.5537E+01
     12.546  0.1112E+01  0.1710E+00  0.5654E+01  0.5554E+01
     12.644  0.2370E+00  0.9962E+00  0.5677E+01  0.5651E+01
     12.741  0.8926E-01  0.2620E+00  0.5685E+01  0.5676E+01
     12.839 -0.2038E-02  0.8087E-01  0.5685E+01  0.5684E+01
     12.937 -0.1371E-04  0.9799E-02  0.5685E+01  0.5685E+01
     13.034 -0.6109E-11 -0.1078E-03  0.5685E+01  0.5685E+01
     13.132  0.0000E+00 -0.2693E-09  0.5685E+01  0.5685E+01
     13.229  0.0000E+00  0.0000E+00  0.5685E+01  0.5685E+01
     13.327  0.0000E+00  0.0000E+00  0.5685E+01  0.5685E+01
     13.425  0.0000E+00  0.0000E+00  0.5685E+01  0.5685E+01
     13.522  0.0000E+00  0.0000E+00  0.5685E+01  0.5685E+01
     13.620  0.0000E+00  0.0000E+00  0.5685E+01  0.5685E+01
     13.717  0.0000E+00  0.0000E+00  0.5685E+01  0.5685E+01
     13.815  0.0000E+00  0.0000E+00  0.5685E+01  0.5685E+01
     13.913 -0.1917E-41  0.0000E+00  0.5685E+01  0.5685E+01
     14.010 -0.1541E-26 -0.2776E-39  0.5685E+01  0.5685E+01
     14.108 -0.5389E-15 -0.8099E-25  0.5685E+01  0.5685E+01
     14.205 -0.8662E-07 -0.1048E-13  0.5685E+01  0.5685E+01
     14.303 -0.4315E-02 -0.5817E-06  0.5685E+01  0.5685E+01
     14.401  0.2580E+00 -0.9153E-02  0.5710E+01  0.5684E+01
     14.498  0.3220E+00  0.3851E+00  0.5741E+01  0.5722E+01
     14.596 -0.6433E-02  0.1961E+00  0.5741E+01  0.5741E+01
     14.693 -0.2282E-06 -0.2766E-02  0.5741E+01  0.5741E+01
     14.791 -0.5771E-06 -0.3169E-07  0.5741E+01  0.5741E+01
     14.889 -0.1410E-01 -0.8313E-07  0.5739E+01  0.5741E+01
     14.986  0.6757E+00 -0.6254E-02  0.5805E+01  0.5740E+01
     15.084  0.4846E+00  0.4243E+00  0.5853E+01  0.5782E+01
     15.181 -0.1222E-01  0.7372E+00  0.5851E+01  0.5853E+01
     15.279  0.3394E+00 -0.2672E-01  0.5885E+01  0.5851E+01
     15.377  0.8247E+00  0.5606E+00  0.5965E+01  0.5906E+01
     15.474 -0.2137E-01  0.5991E+00  0.5963E+01  0.5964E+01
     15.572 -0.1325E-01 -0.1147E-01  0.5962E+01  0.5963E+01
     15.669  0.1363E+01 -0.2965E-01  0.6095E+01  0.5960E+01
     15.767  0.1072E+01  0.1501E+01  0.6199E+01  0.6107E+01
     15.865  0.2377E+00  0.9108E+00  0.6222E+01  0.6195E+01
     15.962 -0.2801E-02  0.2782E+00  0.6222E+01  0.6223E+01
     16.060 -0.1994E-01 -0.3406E-02  0.6220E+01  0.6222E+01
     16.157  0.5609E+00 -0.1944E-01  0.6275E+01  0.6220E+01
     16.255  0.2867E-01  0.5504E+00  0.6278E+01  0.6274E+01
     16.353 -0.3695E-03  0.3878E-01  0.6278E+01  0.6278E+01
     16.450 -0.5681E-09 -0.4553E-03  0.6278E+01  0.6278E+01
     16.548 -0.4635E-04 -0.8338E-09  0.6278E+01  0.6278E+01
     16.645 -0.2548E-01 -0.3896E-04  0.6275E+01  0.6278E+01
     16.743  0.7823E+00 -0.2621E-01  0.6352E+01  0.6275E+01
     16.841  0.2428E-02  0.7775E+00  0.6352E+01  0.6351E+01
     16.938 -0.7356E-02  0.8019E-02  0.6351E+01  0.6352E+01
     17.036  0.3397E+00 -0.4715E-02  0.6384E+01  0.6351E+01
     17.133  0.2405E+00  0.2626E+00  0.6408E+01  0.6377E+01
     17.231 -0.3832E-02  0.3174E+00  0.6407E+01  0.6408E+01
     17.329 -0.6580E-07 -0.6259E-02  0.6407E+01  0.6407E+01
     17.426 -0.3792E-15 -0.2130E-06  0.6407E+01  0.6407E+01
     17.524 -0.2202E-19 -0.2149E-14  0.6407E+01  0.6407E+01
     17.621 -0.1063E-09 -0.1407E-18  0.6407E+01  0.6407E+01
     17.719 -0.2031E-03 -0.3892E-09  0.6407E+01  0.6407E+01
     17.817 -0.1822E-01 -0.4184E-03  0.6406E+01  0.6407E+01
     17.914  0.1188E+01  0.1474E-01  0.6522E+01  0.6409E+01
     18.012 -0.3096E-01  0.1164E+01  0.6519E+01  0.6522E+01
     18.109 -0.7893E-03 -0.3956E-01  0.6518E+01  0.6519E+01
     18.207  0.6077E-01 -0.5458E-03  0.6524E+01  0.6518E+01
     18.305  0.5077E+00  0.4232E-01  0.6574E+01  0.6523E+01
     18.402  0.1166E+01  0.5568E+00  0.6688E+01  0.6577E+01
     18.500  0.1323E+00  0.1140E+01  0.6701E+01  0.6688E+01
     18.597  0.1283E+01  0.1828E+00  0.6826E+01  0.6706E+01
     18.695 -0.1779E-01  0.1237E+01  0.6824E+01  0.6827E+01
     18.792 -0.2142E-03 -0.2805E-01  0.6824E+01  0.6824E+01
     18.890 -0.1168E-09 -0.1448E-03  0.6824E+01  0.6824E+01
     18.988 -0.3171E-13 -0.5856E-10  0.6824E+01  0.6824E+01
     19.085 -0.1513E-05 -0.3517E-13  0.6824E+01  0.6824E+01
     19.183 -0.2007E-01 -0.1616E-05  0.6822E+01  0.6824E+01
     19.280  0.7960E+00 -0.2053E-01  0.6900E+01  0.6822E+01
     19.378  0.8885E+00  0.7958E+00  0.6987E+01  0.6900E+01
     19.476  0.9038E+00  0.1110E+01  0.7075E+01  0.7008E+01
     19.573  0.9730E+00  0.7625E+00  0.7170E+01  0.7082E+01
     19.671  0.1050E+01  0.9593E+00  0.7272E+01  0.7176E+01
     19.768 -0.3746E-01  0.9789E+00  0.7269E+01  0.7272E+01
     19.866 -0.2325E+00 -0.3905E-01  0.7246E+01  0.7268E+01
     19.964  0.8608E+01  0.4234E+00  0.8086E+01  0.7309E+01
     20.061  0.2963E+01  0.1111E+02  0.8375E+01  0.8393E+01
     20.159 -0.5174E-01 -0.2316E+00  0.8370E+01  0.8371E+01
     20.256  0.1667E+00 -0.6468E-02  0.8386E+01  0.8370E+01
     20.354  0.1233E+00  0.2006E+00  0.8398E+01  0.8389E+01
     20.452 -0.1999E-02  0.9023E-01  0.8398E+01  0.8398E+01
     20.549 -0.3873E-03 -0.1221E-02  0.8398E+01  0.8398E+01
     20.647 -0.3921E-01 -0.1520E-03  0.8394E+01  0.8398E+01
     20.744  0.2364E+01 -0.7488E-01  0.8625E+01  0.8391E+01
     20.842 -0.4735E-01  0.2353E+01  0.8620E+01  0.8620E+01
     20.940 -0.3334E-03 -0.7237E-04  0.8620E+01  0.8620E+01
     21.037 -0.1756E-09 -0.6384E-03  0.8620E+01  0.8620E+01
     21.135  0.0000E+00 -0.4792E-09  0.8620E+01  0.8620E+01
     21.232 -0.6574E-34  0.0000E+00  0.8620E+01  0.8620E+01
     21.330 -0.1350E-20 -0.4798E-36  0.8620E+01  0.8620E+01
     21.428 -0.1204E-10 -0.2710E-22  0.8620E+01  0.8620E+01
     21.525 -0.4337E-04 -0.6906E-12  0.8620E+01  0.8620E+01
     21.623 -0.1841E-01 -0.7596E-05  0.8619E+01  0.8620E+01
     21.720  0.6218E+00 -0.1828E-01  0.8679E+01  0.8619E+01
     21.818  0.3582E+00  0.5230E+00  0.8714E+01  0.8670E+01
     21.916 -0.1276E-01  0.4526E+00  0.8713E+01  0.8714E+01
     22.013 -0.5722E-05 -0.8552E-02  0.8713E+01  0.8713E+01
     22.111 -0.5290E-05 -0.5614E-04  0.8713E+01  0.8713E+01
     22.208 -0.2950E-01 -0.2086E-04  0.8710E+01  0.8713E+01
     22.306  0.9620E+00 -0.3883E-01  0.8804E+01  0.8709E+01
     22.404  0.2083E+00  0.1100E+01  0.8824E+01  0.8817E+01
     22.501 -0.2352E-02  0.7840E-01  0.8824E+01  0.8824E+01
     22.599 -0.6442E-06 -0.9179E-03  0.8824E+01  0.8824E+01
     22.696 -0.1468E-01 -0.9251E-06  0.8823E+01  0.8824E+01
     22.794  0.6816E+00 -0.1688E-01  0.8889E+01  0.8822E+01
     22.892  0.8684E+00  0.7297E+00  0.8974E+01  0.8894E+01
     22.989 -0.1730E-01  0.8187E+00  0.8972E+01  0.8974E+01
     23.087 -0.4392E-04 -0.1353E-01  0.8972E+01  0.8972E+01
     23.184 -0.1647E-10 -0.5996E-04  0.8972E+01  0.8972E+01
     23.282  0.0000E+00 -0.2851E-10  0.8972E+01  0.8972E+01
     23.380  0.0000E+00  0.0000E+00  0.8972E+01  0.8972E+01
     23.477  0.0000E+00  0.0000E+00  0.8972E+01  0.8972E+01
     23.575  0.0000E+00  0.0000E+00  0.8972E+01  0.8972E+01
     23.672  0.0000E+00  0.0000E+00  0.8972E+01  0.8972E+01
     23.770  0.0000E+00  0.0000E+00  0.8972E+01  0.8972E+01
     23.868  0.0000E+00  0.0000E+00  0.8972E+01  0.8972E+01
     23.965  0.0000E+00  0.0000E+00  0.8972E+01  0.8972E+01
     24.063  0.0000E+00  0.0000E+00  0.8972E+01  0.8972E+01
     24.160  0.0000E+00  0.0000E+00  0.8972E+01  0.8972E+01
     24.258  0.0000E+00  0.0000E+00  0.8972E+01  0.8972E+01
     24.356  0.0000E+00  0.0000E+00  0.8972E+01  0.8972E+01
     24.453 -0.2443E-31  0.0000E+00  0.8972E+01  0.8972E+01
     24.551 -0.1114E-18 -0.2125E-31  0.8972E+01  0.8972E+01
     24.648 -0.2168E-09 -0.1001E-18  0.8972E+01  0.8972E+01
     24.746 -0.1616E-03 -0.2013E-09  0.8972E+01  0.8972E+01
     24.844  0.1143E-01 -0.1552E-03  0.8973E+01  0.8972E+01
     24.941  0.2834E+00  0.1062E-01  0.9001E+01  0.8973E+01
     25.039 -0.1006E-01  0.2842E+00  0.9000E+01  0.9001E+01
     25.136 -0.8201E-05 -0.1007E-01  0.9000E+01  0.9000E+01
     25.234 -0.1155E-11 -0.8619E-05  0.9000E+01  0.9000E+01
     25.332  0.0000E+00 -0.1256E-11  0.9000E+01  0.9000E+01
     25.429  0.0000E+00  0.0000E+00  0.9000E+01  0.9000E+01
     25.527  0.0000E+00  0.0000E+00  0.9000E+01  0.9000E+01
     25.624  0.0000E+00  0.0000E+00  0.9000E+01  0.9000E+01
     25.722  0.0000E+00  0.0000E+00  0.9000E+01  0.9000E+01
     25.819  0.0000E+00  0.0000E+00  0.9000E+01  0.9000E+01
     25.917  0.0000E+00  0.0000E+00  0.9000E+01  0.9000E+01
     26.015  0.0000E+00  0.0000E+00  0.9000E+01  0.9000E+01
     26.112  0.0000E+00  0.0000E+00  0.9000E+01  0.9000E+01
     26.210  0.0000E+00  0.0000E+00  0.9000E+01  0.9000E+01
     26.307  0.0000E+00  0.0000E+00  0.9000E+01  0.9000E+01
     26.30748379     -2.97169774  301      5.64496606      1.00000000
     -2.972  0.0000E+00  0.0000E+00  0.0000E+00  0.0000E+00  0.0000E+00  0.0000E+00  0.0000E+00  0.0000E+00  0.0000E+00  0.0000E+00  0.0000E+00  0.0000E+00  0.0000E+00  0.0000E+00  0.0000E+00  0.0000E+00  0.0000E+00  0.0000E+00
     -2.874  0.0000E+00  0.0000E+00  0.0000E+00  0.0000E+00  0.0000E+00  0.0000E+00  0.0000E+00  0.0000E+00  0.0000E+00  0.0000E+00  0.0000E+00  0.0000E+00  0.0000E+00  0.0000E+00  0.0000E+00  0.0000E+00  0.0000E+00  0.0000E+00
     -2.777  0.0000E+00  0.0000E+00  0.0000E+00  0.0000E+00  0.0000E+00  0.0000E+00  0.0000E+00  0.0000E+00  0.0000E+00  0.0000E+00  0.0000E+00  0.0000E+00  0.0000E+00  0.0000E+00  0.0000E+00  0.0000E+00  0.0000E+00  0.0000E+00
     -2.679  0.0000E+00  0.0000E+00  0.0000E+00  0.0000E+00  0.0000E+00  0.0000E+00  0.0000E+00  0.0000E+00  0.0000E+00  0.0000E+00  0.0000E+00  0.0000E+00  0.0000E+00  0.0000E+00  0.0000E+00  0.0000E+00  0.0000E+00  0.0000E+00
     -2.581  0.0000E+00  0.0000E+00  0.0000E+00  0.0000E+00  0.0000E+00  0.0000E+00  0.0000E+00  0.0000E+00  0.0000E+00  0.0000E+00  0.0000E+00  0.0000E+00  0.0000E+00  0.0000E+00  0.0000E+00  0.0000E+00  0.0000E+00  0.0000E+00
     -2.484  0.0000E+00  0.0000E+00  0.0000E+00  0.0000E+00  0.0000E+00  0.0000E+00  0.0000E+00  0.0000E+00  0.0000E+00  0.0000E+00  0.0000E+00  0.0000E+00  0.0000E+00  0.0000E+00  0.0000E+00  0.0000E+00  0.0000E+00  0.0000E+00
     -2.386  0.0000E+00  0.0000E+00  0.0000E+00  0.0000E+00  0.0000E+00  0.0000E+00  0.0000E+00  0.0000E+00  0.0000E+00  0.0000E+00  0.0000E+00  0.0000E+00  0.0000E+00  0.0000E+00  0.0000E+00  0.0000E+00  0.0000E+00  0.0000E+00
     -2.289  0.0000E+00  0.0000E+00  0.0000E+00  0.0000E+00  0.0000E+00  0.0000E+00  0.0000E+00  0.0000E+00  0.0000E+00  0.0000E+00  0.0000E+00  0.0000E+00  0.0000E+00  0.0000E+00  0.0000E+00  0.0000E+00  0.0000E+00  0.0000E+00
     -2.191  0.0000E+00  0.0000E+00  0.0000E+00  0.0000E+00  0.0000E+00  0.0000E+00  0.0000E+00  0.0000E+00  0.0000E+00  0.0000E+00  0.0000E+00  0.0000E+00  0.0000E+00  0.0000E+00  0.0000E+00  0.0000E+00  0.0000E+00  0.0000E+00
     -2.093 -0.1610E-35  0.0000E+00 -0.3785E-49  0.0000E+00 -0.1481E-49  0.0000E+00 -0.8977E-37  0.0000E+00 -0.1244E-47  0.0000E+00 -0.1408E-47  0.0000E+00 -0.8869E-39  0.0000E+00 -0.1195E-47  0.0000E+00 -0.2661E-38  0.0000E+00
     -1.996 -0.6170E-22 -0.1337E-37 -0.1450E-35 -0.2109E-51 -0.5675E-36 -0.2039E-51 -0.3440E-23 -0.7463E-39 -0.4765E-34 -0.8978E-50 -0.5396E-34 -0.9539E-50 -0.3398E-25 -0.7403E-41 -0.4577E-34 -0.8918E-50 -0.1019E-24 -0.2221E-40
     -1.898 -0.1032E-11 -0.1437E-23 -0.2426E-25 -0.2269E-37 -0.9492E-26 -0.2193E-37 -0.5753E-13 -0.8027E-25 -0.7970E-24 -0.9657E-36 -0.9026E-24 -0.1026E-35 -0.5684E-15 -0.7963E-27 -0.7657E-24 -0.9592E-36 -0.1705E-14 -0.2389E-26
     -1.801 -0.7085E-05 -0.6812E-13 -0.1665E-18 -0.1075E-26 -0.6516E-19 -0.1039E-26 -0.3949E-06 -0.3804E-14 -0.5471E-17 -0.4576E-25 -0.6196E-17 -0.4862E-25 -0.3902E-08 -0.3773E-16 -0.5256E-17 -0.4546E-25 -0.1171E-07 -0.1132E-15
     -1.703 -0.8278E-02 -0.1356E-05 -0.1945E-15 -0.2140E-19 -0.7613E-16 -0.2068E-19 -0.4614E-03 -0.7571E-07 -0.6392E-14 -0.9108E-18 -0.7239E-14 -0.9676E-18 -0.4559E-05 -0.7510E-09 -0.6141E-14 -0.9047E-18 -0.1368E-04 -0.2253E-08
     -1.605  0.2336E+00 -0.6408E-02  0.5491E-14 -0.1011E-15  0.2149E-14 -0.9776E-16  0.1302E-01 -0.3578E-03  0.1804E-12 -0.4305E-14  0.2043E-12 -0.4573E-14  0.1287E-03 -0.3550E-05  0.1733E-12 -0.4276E-14  0.3860E-03 -0.1065E-04
     -1.508  0.8726E-02  0.2025E+00  0.2051E-15  0.3197E-14  0.8025E-16  0.3090E-14  0.4864E-03  0.1131E-01  0.6738E-14  0.1361E-12  0.7631E-14  0.1445E-12  0.4806E-05  0.1122E-03  0.6473E-14  0.1351E-12  0.1442E-04  0.3366E-03
     -1.410 -0.1276E-03  0.3782E-01 -0.2999E-17  0.5968E-15 -0.1174E-17  0.5769E-15 -0.7114E-05  0.2112E-02 -0.9854E-16  0.2540E-13 -0.1116E-15  0.2699E-13 -0.7028E-07  0.2095E-04 -0.9467E-16  0.2523E-13 -0.2108E-06  0.6284E-04
     -1.313 -0.1655E-09 -0.4190E-03 -0.3889E-23 -0.6612E-17 -0.1522E-23 -0.6392E-17 -0.9224E-11 -0.2340E-04 -0.1278E-21 -0.2814E-15 -0.1447E-21 -0.2990E-15 -0.9113E-13 -0.2321E-06 -0.1227E-21 -0.2796E-15 -0.2734E-12 -0.6962E-06
     -1.215  0.0000E+00 -0.1628E-08  0.0000E+00 -0.2569E-22  0.0000E+00 -0.2483E-22  0.0000E+00 -0.9089E-10  0.0000E+00 -0.1093E-20  0.0000E+00 -0.1162E-20  0.0000E+00 -0.9016E-12  0.0000E+00 -0.1086E-20  0.0000E+00 -0.2705E-11
     -1.117  0.0000E+00  0.0000E+00  0.0000E+00  0.0000E+00  0.0000E+00  0.0000E+00  0.0000E+00  0.0000E+00  0.0000E+00  0.0000E+00  0.0000E+00  0.0000E+00  0.0000E+00  0.0000E+00  0.0000E+00  0.0000E+00  0.0000E+00  0.0000E+00
     -1.020 -0.6633E-33  0.0000E+00 -0.3415E-34  0.0000E+00 -0.3415E-34  0.0000E+00 -0.3415E-34  0.0000E+00 -0.7807E-35  0.0000E+00 -0.7807E-35  0.0000E+00 -0.1500E-48  0.0000E+00 -0.7807E-35  0.0000E+00 -0.3832E-48  0.0000E+00
     -0.922 -0.6935E-20 -0.7641E-35 -0.3570E-21 -0.3943E-36 -0.3570E-21 -0.3943E-36 -0.3570E-21 -0.3943E-36 -0.8163E-22 -0.8997E-37 -0.8163E-22 -0.8997E-37 -0.1569E-35 -0.2275E-57 -0.8163E-22 -0.8997E-37 -0.4007E-35 -0.2512E-57
     -0.825 -0.3123E-10 -0.2169E-21 -0.1608E-11 -0.1119E-22 -0.1608E-11 -0.1119E-22 -0.1608E-11 -0.1119E-22 -0.3676E-12 -0.2554E-23 -0.3676E-12 -0.2554E-23 -0.7063E-26 -0.6460E-44 -0.3676E-12 -0.2554E-23 -0.1804E-25 -0.7130E-44
     -0.727 -0.5557E-04 -0.2681E-11 -0.2861E-05 -0.1383E-12 -0.2861E-05 -0.1383E-12 -0.2861E-05 -0.1383E-12 -0.6541E-06 -0.3156E-13 -0.6541E-06 -0.3156E-13 -0.1257E-19 -0.7982E-34 -0.6541E-06 -0.3156E-13 -0.3211E-19 -0.8811E-34
     -0.629 -0.3763E-02 -0.1349E-04 -0.1937E-03 -0.6959E-06 -0.1937E-03 -0.6959E-06 -0.1937E-03 -0.6959E-06 -0.4429E-04 -0.1588E-06 -0.4429E-04 -0.1588E-06 -0.8511E-18 -0.4017E-27 -0.4429E-04 -0.1588E-06 -0.2174E-17 -0.4433E-27
     -0.532  0.2960E+00 -0.9873E-02  0.1524E-01 -0.5094E-03  0.1524E-01 -0.5094E-03  0.1524E-01 -0.5094E-03  0.3484E-02 -0.1162E-03  0.3484E-02 -0.1162E-03  0.6695E-16 -0.2940E-24  0.3484E-02 -0.1162E-03  0.1710E-15 -0.3245E-24
     -0.434 -0.8146E-02  0.2895E+00 -0.4193E-03  0.1494E-01 -0.4193E-03  0.1494E-01 -0.4193E-03  0.1494E-01 -0.9588E-04  0.3408E-02 -0.9588E-04  0.3408E-02 -0.1842E-17  0.8620E-23 -0.9588E-04  0.3408E-02 -0.4706E-17  0.9514E-23
     -0.337 -0.2777E-04  0.3966E-02 -0.1430E-05  0.2046E-03 -0.1430E-05  0.2046E-03 -0.1430E-05  0.2046E-03 -0.3269E-06  0.4670E-04 -0.3269E-06  0.4670E-04 -0.6282E-20  0.1181E-24 -0.3269E-06  0.4670E-04 -0.1605E-19  0.1304E-24
     -0.239 -0.9242E-11 -0.1062E-03 -0.4758E-12 -0.5480E-05 -0.4758E-12 -0.5480E-05 -0.4758E-12 -0.5480E-05 -0.1088E-12 -0.1251E-05 -0.1088E-12 -0.1251E-05 -0.2091E-26 -0.3163E-26 -0.1088E-12 -0.1251E-05 -0.5340E-26 -0.3491E-26
     -0.141 -0.3652E-32 -0.1004E-09 -0.1337E-33 -0.5182E-11 -0.6974E-45 -0.5182E-11 -0.7605E-33 -0.5182E-11 -0.3439E-33 -0.1182E-11 -0.6822E-44 -0.1182E-11 -0.1215E-33 -0.2991E-32 -0.6229E-44 -0.1182E-11 -0.5909E-34 -0.3301E-32
     -0.044 -0.3225E-19 -0.6064E-34 -0.1181E-20 -0.2227E-35 -0.6159E-32 -0.3015E-48 -0.6716E-20 -0.1265E-34 -0.3037E-20 -0.5713E-35 -0.6025E-31 -0.7419E-46 -0.1073E-20 -0.2032E-35 -0.5501E-31 -0.6390E-46 -0.5218E-21 -0.9879E-36
      0.054 -0.1224E-09 -0.1347E-20 -0.4483E-11 -0.4949E-22 -0.2338E-22 -0.6699E-35 -0.2549E-10 -0.2811E-21 -0.1153E-10 -0.1269E-21 -0.2287E-21 -0.1648E-32 -0.4073E-11 -0.4515E-22 -0.2088E-21 -0.1420E-32 -0.1981E-11 -0.2195E-22
      0.151 -0.1826E-03 -0.1300E-10 -0.6687E-05 -0.4774E-12 -0.3487E-16 -0.6462E-25 -0.3802E-04 -0.2712E-11 -0.1719E-04 -0.1225E-11 -0.3411E-15 -0.1590E-22 -0.6075E-05 -0.4356E-12 -0.3114E-15 -0.1370E-22 -0.2954E-05 -0.2117E-12
      0.249 -0.4070E-02 -0.5072E-04 -0.1491E-03 -0.1863E-05 -0.7773E-15 -0.2522E-18 -0.8476E-03 -0.1058E-04 -0.3833E-03 -0.4779E-05 -0.7604E-14 -0.6205E-16 -0.1354E-03 -0.1700E-05 -0.6943E-14 -0.5344E-16 -0.6586E-04 -0.8263E-06
      0.347  0.7731E+00 -0.2434E-01  0.2831E-01 -0.8942E-03  0.1476E-12 -0.1210E-15  0.1610E+00 -0.5080E-02  0.7280E-01 -0.2294E-02  0.1444E-11 -0.2978E-13  0.2572E-01 -0.8159E-03  0.1319E-11 -0.2565E-13  0.1251E-01 -0.3966E-03
      0.444 -0.2358E-01  0.7689E+00 -0.8635E-03  0.2824E-01 -0.4503E-14  0.3823E-14 -0.4910E-02  0.1605E+00 -0.2220E-02  0.7245E-01 -0.4404E-13  0.9408E-12 -0.7844E-03  0.2577E-01 -0.4022E-13  0.8103E-12 -0.3815E-03  0.1253E-01
      0.542 -0.5727E-04 -0.8319E-03 -0.2097E-05 -0.3056E-04 -0.1094E-16 -0.4136E-17 -0.1193E-04 -0.1736E-03 -0.5393E-05 -0.7838E-04 -0.1070E-15 -0.1018E-14 -0.1905E-05 -0.2788E-04 -0.9768E-16 -0.8767E-15 -0.9267E-06 -0.1355E-04
      0.639 -0.1599E-10 -0.2031E-03 -0.5856E-12 -0.7458E-05 -0.3054E-23 -0.1010E-17 -0.3330E-11 -0.4237E-04 -0.1506E-11 -0.1913E-04 -0.2987E-22 -0.2484E-15 -0.5320E-12 -0.6805E-05 -0.2727E-22 -0.2140E-15 -0.2587E-12 -0.3308E-05
      0.737  0.0000E+00 -0.1484E-09  0.0000E+00 -0.5452E-11  0.0000E+00 -0.7380E-24  0.0000E+00 -0.3098E-10  0.0000E+00 -0.1399E-10  0.0000E+00 -0.1816E-21  0.0000E+00 -0.4975E-11  0.0000E+00 -0.1564E-21  0.0000E+00 -0.2418E-11
      0.835  0.0000E+00  0.0000E+00  0.0000E+00  0.0000E+00  0.0000E+00  0.0000E+00  0.0000E+00  0.0000E+00  0.0000E+00  0.0000E+00  0.0000E+00  0.0000E+00  0.0000E+00  0.0000E+00  0.0000E+00  0.0000E+00  0.0000E+00  0.0000E+00
      0.932  0.0000E+00  0.0000E+00  0.0000E+00  0.0000E+00  0.0000E+00  0.0000E+00  0.0000E+00  0.0000E+00  0.0000E+00  0.0000E+00  0.0000E+00  0.0000E+00  0.0000E+00  0.0000E+00  0.0000E+00  0.0000E+00  0.0000E+00  0.0000E+00
      1.030  0.0000E+00  0.0000E+00  0.0000E+00  0.0000E+00  0.0000E+00  0.0000E+00  0.0000E+00  0.0000E+00  0.0000E+00  0.0000E+00  0.0000E+00  0.0000E+00  0.0000E+00  0.0000E+00  0.0000E+00  0.0000E+00  0.0000E+00  0.0000E+00
      1.127 -0.8714E-30  0.0000E+00 -0.1069E-30  0.0000E+00 -0.1069E-30  0.0000E+00 -0.7446E-31  0.0000E+00 -0.9468E-32  0.0000E+00 -0.4215E-30  0.0000E+00 -0.2697E-31  0.0000E+00 -0.8777E-32  0.0000E+00 -0.7975E-31  0.0000E+00
      1.225 -0.2006E-17 -0.2011E-31 -0.2455E-18 -0.2472E-32 -0.2454E-18 -0.2472E-32 -0.1717E-18 -0.1725E-32 -0.2803E-19 -0.2372E-33 -0.9677E-18 -0.9741E-32 -0.6550E-19 -0.6384E-33 -0.2015E-19 -0.2027E-33 -0.1831E-18 -0.1856E-32
      1.323 -0.1972E-08 -0.1123E-18 -0.2381E-09 -0.1375E-19 -0.2381E-09 -0.1375E-19 -0.1705E-09 -0.9665E-20 -0.5830E-10 -0.1898E-20 -0.9387E-09 -0.5416E-19 -0.8115E-10 -0.3880E-20 -0.1955E-10 -0.1127E-20 -0.1778E-09 -0.1032E-19
      1.420 -0.7622E-03 -0.2717E-09 -0.8583E-04 -0.3268E-10 -0.8574E-04 -0.3267E-10 -0.6916E-04 -0.2368E-10 -0.8255E-04 -0.1016E-10 -0.3381E-03 -0.1287E-09 -0.6408E-04 -0.1244E-10 -0.7040E-05 -0.2678E-11 -0.6443E-04 -0.2458E-10
      1.518  0.5799E-01 -0.2683E-03  0.7862E-02 -0.3002E-04  0.7870E-02 -0.2999E-04  0.4562E-02 -0.2457E-04 -0.6606E-02 -0.3180E-04  0.3103E-01 -0.1182E-03 -0.2150E-02 -0.2424E-04  0.6462E-03 -0.2459E-05  0.5826E-02 -0.2270E-04
      1.615  0.8858E+00  0.1080E-02  0.6230E-01  0.1590E-02  0.6181E-01  0.1605E-02  0.1000E+00 -0.6708E-03  0.4580E+00 -0.1407E-01  0.2437E+00  0.6325E-02  0.2719E+00 -0.7702E-02  0.5075E-02  0.1316E-03  0.4892E-01  0.1117E-02
      1.713 -0.2675E-01  0.9320E+00 -0.2094E-02  0.6880E-01 -0.2081E-02  0.6831E-01 -0.2909E-02  0.1039E+00 -0.1178E-01  0.4534E+00 -0.8205E-02  0.2692E+00 -0.7094E-02  0.2726E+00 -0.1709E-03  0.5600E-02 -0.1624E-02  0.5407E-01
      1.811 -0.7878E-03 -0.1968E-01 -0.7105E-06 -0.2385E-02 -0.6582E-06 -0.2384E-02 -0.3766E-03 -0.1706E-02 -0.4803E-04 -0.5646E-03 -0.4420E-03 -0.9395E-02 -0.1210E-03 -0.8073E-03 -0.5404E-07 -0.1955E-03 -0.2817E-03 -0.1792E-02
      1.908  0.5982E-01 -0.5179E-03 -0.3217E-13 -0.2756E-05 -0.1866E-13 -0.2626E-05  0.2872E-01 -0.2237E-03 -0.1745E-10 -0.1193E-03  0.4011E-01 -0.2091E-03  0.7777E-02 -0.1172E-03  0.2870E-13 -0.2153E-06  0.2333E-01 -0.1488E-03