    1    1    1    2
  0.1813235E+02  0.2866544E-09  0.2866544E-09  0.2866544E-09  0.5000000E-15
  1.000000000000000E-004
  CAR 
 unknown system                          
    5   14    9
 
  0.8333333E-01  0.8333333E-01  0.8333333E-01  0.3703704E-01
   1       -0.583756     -0.473469
   2        5.482302      5.588648
   3        5.482302      5.588648
   4        8.534240      8.637064
   5        9.438438      9.513701
   6        9.438438      9.513701
   7       19.940653     19.991768
   8       21.750218     21.867385
   9       22.841083     22.941553
 
  0.2500000E+00  0.8333333E-01  0.8333333E-01  0.1111111E+00
   1        1.544140      1.652963
   2        4.462057      4.570270
   3        5.028882      5.131957
   4        9.624886      9.705334
   5       10.242907     10.315945
   6       11.939363     12.034533
   7       19.491516     19.584038
   8       19.915615     20.014856
   9       19.975095     20.030459
 
  0.4166667E+00  0.8333333E-01  0.8333333E-01  0.5555556E-01
   1        1.931994      2.038381
   2        4.073084      4.182050
   3        6.529273      6.633437
   4        9.816189      9.896498
   5       10.623874     10.694783
   6       14.403837     14.488536
   7       16.123692     16.223507
   8       18.234186     18.335166
   9       19.948188     19.999579
 
 -0.8333333E-01  0.8333333E-01  0.8333333E-01  0.2777778E-01
   1       -1.640826     -1.530108
   2        6.366851      6.473768
   3        6.366856      6.473770
   4        6.706348      6.812499
   5        8.723353      8.798706
   6       10.029844     10.099439
   7       19.942545     19.993655
   8       21.676719     21.786705
   9       21.677343     21.792695
 
  0.2500000E+00  0.2500000E+00  0.8333333E-01  0.1111111E+00
   1        3.146792      3.255697
   2        4.289745      4.392913
   3        4.913998      5.019702
   4       10.122564     10.200697
   5       10.575888     10.649489
   6       14.981382     15.091755
   7       15.644861     15.730693
   8       19.380395     19.466258
   9       19.947056     19.998411
 
 -0.2500000E+00  0.2500000E+00  0.8333333E-01  0.1111111E+00
   1        0.292475      0.401792
   2        5.415105      5.523089
   3        5.571642      5.670950
   4        8.154169      8.241613
   5        8.894526      8.996364
   6       10.472283     10.543477
   7       19.934963     19.986238
   8       20.699887     20.800664
   9       22.788524     22.883518
 
 -0.4166667E+00  0.4166667E+00  0.8333333E-01  0.1111111E+00
   1        1.564488      1.670618
   2        4.587124      4.695986
   3        5.964176      6.061743
   4        8.987277      9.075057
   5       10.942012     11.019489
   6       12.479605     12.569613
   7       17.862997     17.953614
   8       19.268945     19.366072
   9       19.954602     20.006474
 
 -0.2500000E+00  0.4166667E+00  0.8333333E-01  0.1111111E+00
   1        2.190227      2.297129
   2        4.353128      4.448848
   3        5.539413      5.645632
   4        8.263168      8.356740
   5       10.386060     10.468808
   6       12.039561     12.130521
   7       18.551322     18.645286
   8       19.950608     20.002245
   9       22.285311     22.372221
 
 -0.4166667E+00 -0.4166667E+00  0.8333333E-01  0.1111111E+00
   1        2.784615      2.888143
   2        4.626895      4.731341
   3        4.970907      5.065671
   4        8.834953      8.927007
   5       11.061090     11.148781
   6       15.291584     15.377557
   7       15.748362     15.848429
   8       19.602273     19.693987
   9       19.949463     20.000820
 
  0.2500000E+00  0.2500000E+00  0.2500000E+00  0.9259259E-02
   1        4.454582      4.561203
   2        4.454582      4.561204
   3        4.454588      4.561204
   4       10.813025     10.883308
   5       10.813025     10.883308
   6       12.693028     12.811442
   7       18.489600     18.575403
   8       18.489601     18.575406
   9       18.489601     18.575406
 
 -0.2500000E+00  0.2500000E+00  0.2500000E+00  0.2777778E-01
   1        1.920596      2.025267
   2        4.760174      4.846574
   3        6.937960      7.043795
   4        6.937964      7.043796
   5        8.878699      8.979995
   6       10.674433     10.755118
   7       19.924154     19.976842
   8       20.252080     20.342664
   9       24.878602     24.976612
 
 -0.4166667E+00  0.4166667E+00  0.2500000E+00  0.1111111E+00
   1        2.845232      2.940937
   2        3.687080      3.778185
   3        6.871226      6.976980
   4        7.555761      7.656790
   5       11.960521     12.051978
   6       12.003279     12.102011
   7       18.351273     18.442296
   8       19.952050     20.003551
   9       20.689987     20.799028
 
 -0.4166667E+00 -0.4166667E+00  0.2500000E+00  0.3703704E-01
   1        3.001736      3.092358
   2        3.001737      3.092359
   3        6.450323      6.558092
   4       10.659301     10.757274
   5       10.659304     10.757277
   6       15.605107     15.706264
   7       16.701492     16.800593
   8       16.701509     16.800607
   9       19.949384     20.000634
 
 -0.4166667E+00  0.4166667E+00  0.4166667E+00  0.2777778E-01
   1        2.234608      2.324505
   2        2.333933      2.424605
   3       10.314616     10.415147
   4       10.314620     10.415151
   5       11.865327     11.955629
   6       12.578780     12.691172
   7       17.030727     17.136088
   8       17.030742     17.136101
   9       19.939941     19.990903
