       N       E                     dE             d eps       ncg     rms          rms(c)
DAV:   1     0.224357167097E+01    0.22436E+01   -0.13759E+03   585   0.215E+02
DAV:   2    -0.143080441918E+01   -0.36744E+01   -0.34004E+01   591   0.311E+01
DAV:   3    -0.146278684092E+01   -0.31982E-01   -0.31923E-01   601   0.246E+00
DAV:   4    -0.146284952076E+01   -0.62680E-04   -0.62667E-04   623   0.894E-02
DAV:   5    -0.146284959341E+01   -0.72645E-07   -0.72025E-07   628   0.287E-03    0.819E+00
DAV:   6    -0.118173587610E+02   -0.10355E+02   -0.36472E+00   556   0.550E+00    0.360E+00
DAV:   7    -0.119098109120E+02   -0.92452E-01   -0.52234E-02   574   0.129E+00    0.286E+00
DAV:   8    -0.117914247552E+02    0.11839E+00   -0.41885E-01   551   0.324E+00    0.175E+00
DAV:   9    -0.118801893278E+02   -0.88765E-01   -0.66819E-02   545   0.130E+00    0.536E-01
DAV:  10    -0.118788228684E+02    0.13665E-02   -0.36574E-04   627   0.104E-01    0.571E-01
DAV:  11    -0.118787116353E+02    0.11123E-03   -0.12538E-04   378   0.535E-02    0.547E-01
DAV:  12    -0.118857504643E+02   -0.70388E-02   -0.13258E-02   552   0.476E-01    0.147E-01
DAV:  13    -0.118865316093E+02   -0.78114E-03   -0.94341E-04   569   0.151E-01    0.525E-02
DAV:  14    -0.118864753242E+02    0.56285E-04   -0.20404E-04   439   0.690E-02
   1 F= -.11886475E+02 E0= -.11886330E+02  d E =-.436653E-03  mag=     0.1562
