 vasp.5.2.12 11Nov11 complex                                                    
  
 executed on             LinuxIFC date 2012.10.17  10:22:31
 running on    1 nodes
 distr:  one band on    1 nodes,    1 groups


--------------------------------------------------------------------------------------------------------


 INCAR:
 POTCAR:    PAW_PBE Ta 17Jan2003                  
 POTCAR:    PAW_PBE Ta 17Jan2003                  
   VRHFIN =Ta:  6s5d                                                            
   LEXCH  = PE                                                                  
   EATOM  =   130.6506 eV,    9.6025 Ry                                         
                                                                                
   TITEL  = PAW_PBE Ta 17Jan2003                                                
   LULTRA =        F    use ultrasoft PP ?                                      
   IUNSCR =        1    unscreen: 0-lin 1-nonlin 2-no                           
   RPACOR =    2.330    partial core radius                                     
   POMASS =  180.948; ZVAL   =    5.000    mass and valenz                      
   RCORE  =    2.900    outmost cutoff radius                                   
   RWIGS  =    2.840; RWIGS  =    1.503    wigner-seitz radius (au A)           
   ENMAX  =  223.667; ENMIN  =  167.750 eV                                      
   RCLOC  =    2.205    cutoff for local pot                                    
   LCOR   =        T    correct aug charges                                     
   LPAW   =        T    paw PP                                                  
   EAUG   =  332.075                                                            
   DEXC   =    -.049                                                            
   RMAX   =    3.083    core radius for proj-oper                               
   RAUG   =    1.300    factor for augmentation sphere                          
   RDEP   =    3.060    radius for radial grids                                 
   QCUT   =   -4.055; QGAM   =    8.109    optimization parameters              
                                                                                
   Description                                                                  
     l     E      TYP  RCUT    TYP  RCUT                                        
     2   .000     23  2.500                                                     
     2   .000     23  2.500                                                     
     0   .000     23  2.500                                                     
     0   .000     23  2.500                                                     
     1   .000     23  2.900                                                     
     1  2.000     23  2.900                                                     
     3   .000      7   .000                                                     
  local pseudopotential read in
  partial core-charges read in
  atomic valenz-charges read in
  non local Contribution for L=           2  read in
    real space projection operators read in
  non local Contribution for L=           2  read in
    real space projection operators read in
  non local Contribution for L=           0  read in
    real space projection operators read in
  non local Contribution for L=           0  read in
    real space projection operators read in
  non local Contribution for L=           1  read in
    real space projection operators read in
  non local Contribution for L=           1  read in
    real space projection operators read in
    PAW grid and wavefunctions read in
 
   number of l-projection  operators is LMAX  =           6
   number of lm-projection operators is LMMAX =          18
 
  PAW_PBE Ta 17Jan2003                  :
 energy of atom  1       EATOM= -130.6506
 kinetic energy error for atom=    0.0711 (will be added to EATOM!!)
 
 
 POSCAR: Ta                                      
  positions in cartesian coordinates
  No initial velocities read in
 exchange correlation table for  LEXCH =        8
   RHO(1)=    0.500       N(1)  =     2000
   RHO(2)=  100.500       N(2)  =     4000
 


--------------------------------------------------------------------------------------------------------


 ion  position               nearest neighbor table
   1  0.000  0.000  0.000-
 
  LATTYP: Found a body centered cubic cell.
 ALAT       =     3.3100000000
  
  Lattice vectors:
  
 A1 = (  -1.6550000000,   1.6550000000,   1.6550000000)
 A2 = (   1.6550000000,  -1.6550000000,   1.6550000000)
 A3 = (   1.6550000000,   1.6550000000,  -1.6550000000)
 Subroutine PRICEL returns:
 Original cell was already a primitive cell.
 

Analysis of symmetry for initial positions (statically):

 Routine SETGRP: Setting up the symmetry group for a 
 body centered cubic supercell.


 Subroutine GETGRP returns: Found 48 space group operations
 (whereof 48 operations were pure point group operations)
 out of a pool of 48 trial point group operations.


The static configuration has the point symmetry O_h .

Analysis of symmetry for dynamics (positions and initial velocities):

 Subroutine DYNSYM returns: Found 48 space group operations
 (whereof 48 operations were pure point group operations)
 out of a pool of 48 trial space group operations
 (whereof 48 operations were pure point group operations)
 and found also     1 'primitive' translations


The dynamic configuration has the point symmetry O_h .

Analysis of magnetic symmetry:

 Subroutine MAGSYM returns: Found 48 space group operations
 (whereof 48 operations were pure point group operations)
 out of a pool of 48 trial space group operations
 (whereof 48 operations were pure point group operations)
 and found also     1 'primitive' translations


The magnetic configuration has the point symmetry O_h .
 
 
 KPOINTS: KPOINTS created by Atomic Simulation Env

Automatic generation of k-mesh.
 
 Subroutine IBZKPT returns following result:
 ===========================================
 
 Found     14 irreducible k-points:
 
 Following reciprocal coordinates:
            Coordinates               Weight
  0.083333  0.083333  0.083333      8.000000
  0.250000  0.083333  0.083333     24.000000
  0.416667  0.083333  0.083333     12.000000
 -0.083333  0.083333  0.083333      6.000000
  0.250000  0.250000  0.083333     24.000000
 -0.250000  0.250000  0.083333     24.000000
 -0.416667  0.416667  0.083333     24.000000
 -0.250000  0.416667  0.083333     24.000000
 -0.416667 -0.416667  0.083333     24.000000
  0.250000  0.250000  0.250000      2.000000
 -0.250000  0.250000  0.250000      6.000000
 -0.416667  0.416667  0.250000     24.000000
 -0.416667 -0.416667  0.250000      8.000000
 -0.416667  0.416667  0.416667      6.000000
 
 Following cartesian coordinates:
            Coordinates               Weight
  0.050352  0.050352  0.050352      8.000000
  0.050352  0.100705  0.100705     24.000000
  0.050352  0.151057  0.151057     12.000000
  0.050352  0.000000  0.000000      6.000000
  0.100705  0.100705  0.151057     24.000000
  0.100705 -0.050352  0.000000     24.000000
  0.151057 -0.100705  0.000000     24.000000
  0.151057 -0.050352  0.050352     24.000000
 -0.100705 -0.100705 -0.251762     24.000000
  0.151057  0.151057  0.151057      2.000000
  0.151057  0.000000  0.000000      6.000000
  0.201410 -0.050352  0.000000     24.000000
 -0.050352 -0.050352 -0.251762      8.000000
  0.251762  0.000000  0.000000      6.000000
 


--------------------------------------------------------------------------------------------------------




 Dimension of arrays:
   k-points           NKPTS =     14   k-points in BZ     NKDIM =     14   number of bands    NBANDS=      9
   number of dos      NEDOS =    301   number of ions     NIONS =      1
   non local maximal  LDIM  =      6   non local SUM 2l+1 LMDIM =     18
   total plane-waves  NPLWV =   2744
   max r-space proj   IRMAX =      1   max aug-charges    IRDMAX=  10500
   dimension x,y,z NGX =    14 NGY =   14 NGZ =   14
   dimension x,y,z NGXF=    28 NGYF=   28 NGZF=   28
   support grid    NGXF=    28 NGYF=   28 NGZF=   28
   ions per type =               1
 NGX,Y,Z   is equivalent  to a cutoff of   8.12,  8.12,  8.12 a.u.
 NGXF,Y,Z  is equivalent  to a cutoff of  16.24, 16.24, 16.24 a.u.


 I would recommend the setting:
   dimension x,y,z NGX =    13 NGY =   13 NGZ =   13
 SYSTEM =  unknown system                          
 POSCAR =  Ta                                      

 Startparameter for this run:
   NWRITE =      2    write-flag & timer
   PREC   = accura    normal or accurate (medium, high low for compatibility)
   ISTART =      0    job   : 0-new  1-cont  2-samecut
   ICHARG =      2    charge: 1-file 2-atom 10-const
   ISPIN  =      2    spin polarized calculation?
   LNONCOLLINEAR =      F non collinear calculations
   LSORBIT =      F    spin-orbit coupling
   INIWAV =      1    electr: 0-lowe 1-rand  2-diag
   LASPH  =      F    aspherical Exc in radial PAW
   METAGGA=      F    non-selfconsistent MetaGGA calc.

 Electronic Relaxation 1
   ENCUT  =  200.0 eV  14.70 Ry    3.83 a.u.   3.31  3.31  3.31*2*pi/ulx,y,z
   ENINI  =  200.0     initial cutoff
   ENAUG  =  332.1 eV  augmentation charge cutoff
   NELM   =     60;   NELMIN=  2; NELMDL= -5     # of ELM steps 
   EDIFF  = 0.1E-03   stopping-criterion for ELM
   LREAL  =      F    real-space projection
   NLSPLINE    = F    spline interpolate recip. space projectors
   LCOMPAT=      F    compatible to vasp.4.4
   GGA_COMPAT  = T    GGA compatible to vasp.4.4-vasp.4.6
   LMAXPAW     = -100 max onsite density
   LMAXMIX     =    2 max onsite mixed and CHGCAR
   VOSKOWN=      0    Vosko Wilk Nusair interpolation
   ROPT   =    0.00000
 Ionic relaxation
   EDIFFG = 0.1E-02   stopping-criterion for IOM
   NSW    =      0    number of steps for IOM
   NBLOCK =      1;   KBLOCK =      1    inner block; outer block 
   IBRION =     -1    ionic relax: 0-MD 1-quasi-New 2-CG
   NFREE  =      0    steps in history (QN), initial steepest desc. (CG)
   ISIF   =      2    stress and relaxation
   IWAVPR =     10    prediction:  0-non 1-charg 2-wave 3-comb
   ISYM   =      2    0-nonsym 1-usesym 2-fastsym
   LCORR  =      T    Harris-Foulkes like correction to forces

   POTIM  = 0.5000    time-step for ionic-motion
   TEIN   =    0.0    initial temperature
   TEBEG  =    0.0;   TEEND  =   0.0 temperature during run
   SMASS  =  -3.00    Nose mass-parameter (am)
   estimated Nose-frequenzy (Omega)   =  0.10E-29 period in steps =****** mass=  -0.188E-27a.u.
   SCALEE = 1.0000    scale energy and forces
   NPACO  =    256;   APACO  = 16.0  distance and # of slots for P.C.
   PSTRESS=    0.0 pullay stress

  Mass of Ions in am
   POMASS = 180.95
  Ionic Valenz
   ZVAL   =   5.00
  Atomic Wigner-Seitz radii
   RWIGS  =  -1.00
  virtual crystal weights 
   VCA    =   1.00
   NELECT =       5.0000    total number of electrons
   NUPDOWN=      -1.0000    fix difference up-down

 DOS related values:
   EMIN   =  10.00;   EMAX   =-10.00  energy-range for DOS
   EFERMI =   0.00
   ISMEAR =     1;   SIGMA  =   0.05  broadening in eV -4-tet -1-fermi 0-gaus

 Electronic relaxation 2 (details)
   IALGO  =     38    algorithm
   LDIAG  =      T    sub-space diagonalisation (order eigenvalues)
   LSUBROT=      T    optimize rotation matrix (better conditioning)
   TURBO    =      0    0=normal 1=particle mesh
   IRESTART =      0    0=no restart 2=restart with 2 vectors
   NREBOOT  =      0    no. of reboots
   NMIN     =      0    reboot dimension
   EREF     =   0.00    reference energy to select bands
   IMIX   =      4    mixing-type and parameters
     AMIX     =   0.40;   BMIX     =  1.00
     AMIX_MAG =   1.60;   BMIX_MAG =  1.00
     AMIN     =   0.10
     WC   =   100.;   INIMIX=   1;  MIXPRE=   1

 Intra band minimization:
   WEIMIN = 0.0000     energy-eigenvalue tresh-hold
   EBREAK =  0.28E-05  absolut break condition
   DEPER  =   0.30     relativ break condition  

   TIME   =   0.40     timestep for ELM

  volume/ion in A,a.u.               =      18.13       122.36
  Fermi-wavevector in a.u.,A,eV,Ry     =   1.065566  2.013627 15.448462  1.135430
  Thomas-Fermi vector in A             =   2.201121
 
 Write flags
   LWAVE  =      T    write WAVECAR
   LCHARG =      T    write CHGCAR
   LVTOT  =      F    write LOCPOT, total local potential
   LVHAR  =      F    write LOCPOT, Hartree potential only
   LELF   =      F    write electronic localiz. function (ELF)
   LORBIT =     11    0 simple, 1 ext, 2 COOP (PROOUT)


 Dipole corrections
   LMONO  =      F    monopole corrections only (constant potential shift)
   LDIPOL =      F    correct potential (dipole corrections)
   IDIPOL =      0    1-x, 2-y, 3-z, 4-all directions 
   EPSILON=  1.0000000 bulk dielectric constant

 Exchange correlation treatment:
   GGA     =    --    GGA type
   LEXCH   =     8    internal setting for exchange type
   VOSKOWN=      0    Vosko Wilk Nusair interpolation
   LHFCALC =     F    Hartree Fock is set to
   LHFONE  =     F    Hartree Fock one center treatment
   AEXX    =    0.0000 exact exchange contribution

 Linear response parameters
   LEPSILON=     F    determine dielectric tensor
   LRPA    =     F    only Hartree local field effects (RPA)
   LNABLA  =     F    use nabla operator in PAW spheres
   LVEL    =     F    velocity operator in full k-point grid
   LINTERFAST=   F  fast interpolation
   KINTER  =     0    interpolate to denser k-point grid
   CSHIFT  =0.1000    complex shift for real part using Kramers Kronig
   OMEGAMAX=  -1.0    maximum frequency
   RTIME   =    0.100 relaxation time in fs

 Orbital magnetization related:
   ORBITALMAG=     F  switch on orbital magnetization
   LCHIMAG   =     F  perturbation theory with respect to B field
   DQ        =  0.001000  dq finite difference perturbation B field



--------------------------------------------------------------------------------------------------------


 Static calculation
 charge density and potential will be updated during run
 spin polarized calculation
 Variant of blocked Davidson
 Davidson routine will perform the subspace rotation
 perform sub-space diagonalisation
    after iterative eigenvector-optimisation
 modified Broyden-mixing scheme, WC =      100.0
 initial mixing is a Kerker type mixing with AMIX =  0.4000 and BMIX =      1.0000
 Hartree-type preconditioning will be used
 using additional bands            6
 reciprocal scheme for non local part
 use partial core corrections
 calculate Harris-corrections to forces 
   (improved forces if not selfconsistent)
 use gradient corrections 
 use of overlap-Matrix (Vanderbilt PP)
 Methfessel and Paxton  Order N= 1 SIGMA  =   0.05


--------------------------------------------------------------------------------------------------------


  energy-cutoff  :      200.00
  volume of cell :       18.13
      direct lattice vectors                 reciprocal lattice vectors
    -1.655000000  1.655000000  1.655000000     0.000000000  0.302114804  0.302114804
     1.655000000 -1.655000000  1.655000000     0.302114804  0.000000000  0.302114804
     1.655000000  1.655000000 -1.655000000     0.302114804  0.302114804  0.000000000

  length of vectors
     2.866544087  2.866544087  2.866544087     0.427254853  0.427254853  0.427254853


 
 k-points in units of 2pi/SCALE and weight: KPOINTS created by Atomic Simulation Env
   0.05035247  0.05035247  0.05035247       0.037
   0.05035247  0.10070493  0.10070493       0.111
   0.05035247  0.15105740  0.15105740       0.056
   0.05035247  0.00000000  0.00000000       0.028
   0.10070493  0.10070493  0.15105740       0.111
   0.10070493 -0.05035247  0.00000000       0.111
   0.15105740 -0.10070493  0.00000000       0.111
   0.15105740 -0.05035247  0.05035247       0.111
  -0.10070493 -0.10070493 -0.25176234       0.111
   0.15105740  0.15105740  0.15105740       0.009
   0.15105740  0.00000000  0.00000000       0.028
   0.20140987 -0.05035247  0.00000000       0.111
  -0.05035247 -0.05035247 -0.25176234       0.037
   0.25176234  0.00000000  0.00000000       0.028
 
 k-points in reciprocal lattice and weights: KPOINTS created by Atomic Simulation Env
   0.08333333  0.08333333  0.08333333       0.037
   0.25000000  0.08333333  0.08333333       0.111
   0.41666667  0.08333333  0.08333333       0.056
  -0.08333333  0.08333333  0.08333333       0.028
   0.25000000  0.25000000  0.08333333       0.111
  -0.25000000  0.25000000  0.08333333       0.111
  -0.41666667  0.41666667  0.08333333       0.111
  -0.25000000  0.41666667  0.08333333       0.111
  -0.41666667 -0.41666667  0.08333333       0.111
   0.25000000  0.25000000  0.25000000       0.009
  -0.25000000  0.25000000  0.25000000       0.028
  -0.41666667  0.41666667  0.25000000       0.111
  -0.41666667 -0.41666667  0.25000000       0.037
  -0.41666667  0.41666667  0.41666667       0.028
 
 position of ions in fractional coordinates (direct lattice) 
   0.00000000  0.00000000  0.00000000
 
 position of ions in cartesian coordinates  (Angst):
   0.00000000  0.00000000  0.00000000
 


--------------------------------------------------------------------------------------------------------


 k-point  1 :  0.08330.08330.0833  plane waves:     117
 k-point  2 :  0.25000.08330.0833  plane waves:     113
 k-point  3 :  0.41670.08330.0833  plane waves:     122
 k-point  4 :  -.08330.08330.0833  plane waves:     119
 k-point  5 :  0.25000.25000.0833  plane waves:     121
 k-point  6 :  -.25000.25000.0833  plane waves:     118
 k-point  7 :  -.41670.41670.0833  plane waves:     116
 k-point  8 :  -.25000.41670.0833  plane waves:     116
 k-point  9 :  -.4167-.41670.0833  plane waves:     115
 k-point 10 :  0.25000.25000.2500  plane waves:     104
 k-point 11 :  -.25000.25000.2500  plane waves:     116
 k-point 12 :  -.41670.41670.2500  plane waves:     117
 k-point 13 :  -.4167-.41670.2500  plane waves:     110
 k-point 14 :  -.41670.41670.4167  plane waves:     116

 maximum and minimum number of plane-waves per node :       122      104

 maximum number of plane-waves:       122
 maximum index in each direction: 
   IXMAX=    3   IYMAX=    3   IZMAX=    3
   IXMIN=   -3   IYMIN=   -3   IZMIN=   -3

 NGX is ok and might be reduce to  14
 NGY is ok and might be reduce to  14
 NGZ is ok and might be reduce to  14

 serial   3D FFT for wavefunctions
 parallel 3D FFT for charge:
    minimum data exchange during FFTs selected (reduces bandwidth)


 total amount of memory used by VASP on root node    33536. kBytes
========================================================================

   base      :      30000. kBytes
   nonl-proj :        247. kBytes
   fftplans  :        800. kBytes
   grid      :       1894. kBytes
   one-center:         31. kBytes
   wavefun   :        564. kBytes
 
 Broyden mixing: mesh for mixing (old mesh)
   NGX =  7   NGY =  7   NGZ =  7
  (NGX  = 28   NGY  = 28   NGZ  = 28)
  gives a total of    343 points

 initial charge density was supplied:
 charge density of overlapping atoms calculated
 number of electron       5.0000000 magnetization       6.0000000
 keeping initial charge density in first step


--------------------------------------------------------------------------------------------------------


 Maximum index for augmentation-charges         9841 (set IRDMAX)


--------------------------------------------------------------------------------------------------------


 First call to EWALD:  gamma=   0.675
 Maximum number of real-space cells 3x 3x 3
 Maximum number of reciprocal cells 3x 3x 3

    FEWALD:  cpu time    0.00: real time    0.00


----------------------------------------- Iteration    1(   1)  ---------------------------------------


    POTLOK:  cpu time    0.07: real time    0.07
    SETDIJ:  cpu time    0.02: real time    0.02
     EDDAV:  cpu time    0.29: real time    0.29
       DOS:  cpu time    0.00: real time    0.00
    --------------------------------------------
      LOOP:  cpu time    0.38: real time    0.39

 eigenvalue-minimisations  :   585
 total energy-change (2. order) : 0.2243572E+01  (-0.1375945E+03)
 number of electron       5.0000000 magnetization       6.0000000
 augmentation part        5.0000000 magnetization       6.0000000

 Free energy of the ion-electron system (eV)
  ---------------------------------------------------
  alpha Z        PSCENC =        30.58334069
  Ewald energy   TEWEN  =      -197.90100875
  -1/2 Hartree   DENC   =        -2.50452612
  -exchange  EXHF       =         0.00000000
  -V(xc)+E(xc)   XCENC  =       -60.73631373
  PAW double counting   =       143.51874798      -69.33493833
  entropy T*S    EENTRO =         0.00035456
  eigenvalues    EBANDS =        28.03841505
  atomic energy  EATOM  =       130.57950032
  ---------------------------------------------------
  free energy    TOTEN  =         2.24357167 eV

  energy without entropy =        2.24321711  energy(sigma->0) =        2.24345348


--------------------------------------------------------------------------------------------------------




----------------------------------------- Iteration    1(   2)  ---------------------------------------


     EDDAV:  cpu time    0.29: real time    0.29
       DOS:  cpu time    0.00: real time    0.00
    --------------------------------------------
      LOOP:  cpu time    0.29: real time    1.02

 eigenvalue-minimisations  :   591
 total energy-change (2. order) :-0.3674376E+01  (-0.3400410E+01)
 number of electron       5.0000000 magnetization       6.0000000
 augmentation part        5.0000000 magnetization       6.0000000

 Free energy of the ion-electron system (eV)
  ---------------------------------------------------
  alpha Z        PSCENC =        30.58334069
  Ewald energy   TEWEN  =      -197.90100875
  -1/2 Hartree   DENC   =        -2.50452612
  -exchange  EXHF       =         0.00000000
  -V(xc)+E(xc)   XCENC  =       -60.73631373
  PAW double counting   =       143.51874798      -69.33493833
  entropy T*S    EENTRO =         0.00028757
  eigenvalues    EBANDS =        24.36410595
  atomic energy  EATOM  =       130.57950032
  ---------------------------------------------------
  free energy    TOTEN  =        -1.43080442 eV

  energy without entropy =       -1.43109199  energy(sigma->0) =       -1.43090028


--------------------------------------------------------------------------------------------------------




----------------------------------------- Iteration    1(   3)  ---------------------------------------


     EDDAV:  cpu time    0.29: real time    0.29
       DOS:  cpu time    0.00: real time    0.00
    --------------------------------------------
      LOOP:  cpu time    0.30: real time    0.31

 eigenvalue-minimisations  :   601
 total energy-change (2. order) :-0.3198242E-01  (-0.3192252E-01)
 number of electron       5.0000000 magnetization       6.0000000
 augmentation part        5.0000000 magnetization       6.0000000

 Free energy of the ion-electron system (eV)
  ---------------------------------------------------
  alpha Z        PSCENC =        30.58334069
  Ewald energy   TEWEN  =      -197.90100875
  -1/2 Hartree   DENC   =        -2.50452612
  -exchange  EXHF       =         0.00000000
  -V(xc)+E(xc)   XCENC  =       -60.73631373
  PAW double counting   =       143.51874798      -69.33493833
  entropy T*S    EENTRO =         0.00017696
  eigenvalues    EBANDS =        24.33223414
  atomic energy  EATOM  =       130.57950032
  ---------------------------------------------------
  free energy    TOTEN  =        -1.46278684 eV

  energy without entropy =       -1.46296380  energy(sigma->0) =       -1.46284583


--------------------------------------------------------------------------------------------------------




----------------------------------------- Iteration    1(   4)  ---------------------------------------


     EDDAV:  cpu time    0.30: real time    0.30
       DOS:  cpu time    0.00: real time    0.00
    --------------------------------------------
      LOOP:  cpu time    0.31: real time    0.32

 eigenvalue-minimisations  :   623
 total energy-change (2. order) :-0.6267984E-04  (-0.6266705E-04)
 number of electron       5.0000000 magnetization       6.0000000
 augmentation part        5.0000000 magnetization       6.0000000

 Free energy of the ion-electron system (eV)
  ---------------------------------------------------
  alpha Z        PSCENC =        30.58334069
  Ewald energy   TEWEN  =      -197.90100875
  -1/2 Hartree   DENC   =        -2.50452612
  -exchange  EXHF       =         0.00000000
  -V(xc)+E(xc)   XCENC  =       -60.73631373
  PAW double counting   =       143.51874798      -69.33493833
  entropy T*S    EENTRO =         0.00017705
  eigenvalues    EBANDS =        24.33217138
  atomic energy  EATOM  =       130.57950032
  ---------------------------------------------------
  free energy    TOTEN  =        -1.46284952 eV

  energy without entropy =       -1.46302657  energy(sigma->0) =       -1.46290854


--------------------------------------------------------------------------------------------------------




----------------------------------------- Iteration    1(   5)  ---------------------------------------


     EDDAV:  cpu time    0.31: real time    0.31
       DOS:  cpu time    0.00: real time    0.00
    CHARGE:  cpu time    0.03: real time    0.03
    MIXING:  cpu time    0.00: real time    0.00
    --------------------------------------------
      LOOP:  cpu time    0.34: real time    0.35

 eigenvalue-minimisations  :   628
 total energy-change (2. order) :-0.7264518E-07  (-0.7202459E-07)
 number of electron       5.0000000 magnetization       1.7029130
 augmentation part        0.4467391 magnetization      -0.9430579

 Broyden mixing:
  rms(total) = 0.81861E+00    rms(broyden)= 0.81845E+00
  rms(prec ) = 0.10451E+01
  weight for this iteration     100.00

 Free energy of the ion-electron system (eV)
  ---------------------------------------------------
  alpha Z        PSCENC =        30.58334069
  Ewald energy   TEWEN  =      -197.90100875
  -1/2 Hartree   DENC   =        -2.50452612
  -exchange  EXHF       =         0.00000000
  -V(xc)+E(xc)   XCENC  =       -60.73631373
  PAW double counting   =       143.51874798      -69.33493833
  entropy T*S    EENTRO =         0.00017705
  eigenvalues    EBANDS =        24.33217130
  atomic energy  EATOM  =       130.57950032
  ---------------------------------------------------
  free energy    TOTEN  =        -1.46284959 eV

  energy without entropy =       -1.46302664  energy(sigma->0) =       -1.46290861


--------------------------------------------------------------------------------------------------------




----------------------------------------- Iteration    1(   6)  ---------------------------------------


    POTLOK:  cpu time    0.07: real time    0.07
    SETDIJ:  cpu time    0.02: real time    0.02
     EDDAV:  cpu time    0.28: real time    0.28
       DOS:  cpu time    0.00: real time    0.00
    CHARGE:  cpu time    0.03: real time    0.03
    MIXING:  cpu time    0.00: real time    0.00
    --------------------------------------------
      LOOP:  cpu time    0.39: real time    0.41

 eigenvalue-minimisations  :   556
 total energy-change (2. order) :-0.1035451E+02  (-0.3647230E+00)
 number of electron       5.0000000 magnetization       1.2634513
 augmentation part        0.3651235 magnetization       0.6490943

 Broyden mixing:
  rms(total) = 0.36049E+00    rms(broyden)= 0.36027E+00
  rms(prec ) = 0.11471E+01
  weight for this iteration     100.00

 eigenvalues of (default mixing * dielectric matrix)
  average eigenvalue GAMMA=   1.3361
  1.3361

 Free energy of the ion-electron system (eV)
  ---------------------------------------------------
  alpha Z        PSCENC =        30.58334069
  Ewald energy   TEWEN  =      -197.90100875
  -1/2 Hartree   DENC   =        -1.96568477
  -exchange  EXHF       =         0.00000000
  -V(xc)+E(xc)   XCENC  =       -66.24425701
  PAW double counting   =       163.91830945      -89.97075808
  entropy T*S    EENTRO =         0.00008054
  eigenvalues    EBANDS =        19.18311885
  atomic energy  EATOM  =       130.57950032
  ---------------------------------------------------
  free energy    TOTEN  =       -11.81735876 eV

  energy without entropy =      -11.81743930  energy(sigma->0) =      -11.81738561


--------------------------------------------------------------------------------------------------------




----------------------------------------- Iteration    1(   7)  ---------------------------------------


    POTLOK:  cpu time    0.07: real time    0.07
    SETDIJ:  cpu time    0.02: real time    0.02
     EDDAV:  cpu time    0.28: real time    0.29
       DOS:  cpu time    0.00: real time    0.00
    CHARGE:  cpu time    0.03: real time    0.03
    MIXING:  cpu time    0.00: real time    0.00
    --------------------------------------------
      LOOP:  cpu time    0.40: real time    0.41

 eigenvalue-minimisations  :   574
 total energy-change (2. order) :-0.9245215E-01  (-0.5223418E-02)
 number of electron       5.0000000 magnetization       1.0155379
 augmentation part        0.3651476 magnetization       0.5071857

 Broyden mixing:
  rms(total) = 0.28630E+00    rms(broyden)= 0.28628E+00
  rms(prec ) = 0.10051E+01
  weight for this iteration     100.00

 eigenvalues of (default mixing * dielectric matrix)
  average eigenvalue GAMMA=   1.0600
  1.0600  1.0600

 Free energy of the ion-electron system (eV)
  ---------------------------------------------------
  alpha Z        PSCENC =        30.58334069
  Ewald energy   TEWEN  =      -197.90100875
  -1/2 Hartree   DENC   =        -1.71225732
  -exchange  EXHF       =         0.00000000
  -V(xc)+E(xc)   XCENC  =       -66.31094123
  PAW double counting   =       167.68029463      -93.81193382
  entropy T*S    EENTRO =        -0.00047397
  eigenvalues    EBANDS =        18.98366854
  atomic energy  EATOM  =       130.57950032
  ---------------------------------------------------
  free energy    TOTEN  =       -11.90981091 eV

  energy without entropy =      -11.90933694  energy(sigma->0) =      -11.90965292


--------------------------------------------------------------------------------------------------------




----------------------------------------- Iteration    1(   8)  ---------------------------------------


    POTLOK:  cpu time    0.06: real time    0.07
    SETDIJ:  cpu time    0.02: real time    0.03
     EDDAV:  cpu time    0.27: real time    0.28
       DOS:  cpu time    0.00: real time    0.00
    CHARGE:  cpu time    0.03: real time    0.03
    MIXING:  cpu time    0.00: real time    0.00
    --------------------------------------------
      LOOP:  cpu time    0.39: real time    0.41

 eigenvalue-minimisations  :   551
 total energy-change (2. order) : 0.1183862E+00  (-0.4188502E-01)
 number of electron       5.0000000 magnetization       0.2895419
 augmentation part        0.3956753 magnetization      -0.0519846

 Broyden mixing:
  rms(total) = 0.17463E+00    rms(broyden)= 0.17458E+00
  rms(prec ) = 0.24180E+00
  weight for this iteration     100.00

 eigenvalues of (default mixing * dielectric matrix)
  average eigenvalue GAMMA=   1.1495
  1.4126  1.3523  0.6837

 Free energy of the ion-electron system (eV)
  ---------------------------------------------------
  alpha Z        PSCENC =        30.58334069
  Ewald energy   TEWEN  =      -197.90100875
  -1/2 Hartree   DENC   =        -0.70889003
  -exchange  EXHF       =         0.00000000
  -V(xc)+E(xc)   XCENC  =       -65.98444132
  PAW double counting   =       179.59481034     -106.07001094
  entropy T*S    EENTRO =        -0.00009653
  eigenvalues    EBANDS =        18.11537147
  atomic energy  EATOM  =       130.57950032
  ---------------------------------------------------
  free energy    TOTEN  =       -11.79142476 eV

  energy without entropy =      -11.79132823  energy(sigma->0) =      -11.79139258


--------------------------------------------------------------------------------------------------------




----------------------------------------- Iteration    1(   9)  ---------------------------------------


    POTLOK:  cpu time    0.06: real time    0.06
    SETDIJ:  cpu time    0.02: real time    0.03
     EDDAV:  cpu time    0.27: real time    0.27
       DOS:  cpu time    0.00: real time    0.00
    CHARGE:  cpu time    0.03: real time    0.03
    MIXING:  cpu time    0.00: real time    0.00
    --------------------------------------------
      LOOP:  cpu time    0.39: real time    0.41

 eigenvalue-minimisations  :   545
 total energy-change (2. order) :-0.8876457E-01  (-0.6681931E-02)
 number of electron       5.0000000 magnetization       0.3035832
 augmentation part        0.4063972 magnetization       0.1690623

 Broyden mixing:
  rms(total) = 0.53611E-01    rms(broyden)= 0.53526E-01
  rms(prec ) = 0.13548E+00
  weight for this iteration     100.00

 eigenvalues of (default mixing * dielectric matrix)
  average eigenvalue GAMMA=   1.0081
  1.5504  1.1885  0.6468  0.6468

 Free energy of the ion-electron system (eV)
  ---------------------------------------------------
  alpha Z        PSCENC =        30.58334069
  Ewald energy   TEWEN  =      -197.90100875
  -1/2 Hartree   DENC   =        -0.53306174
  -exchange  EXHF       =         0.00000000
  -V(xc)+E(xc)   XCENC  =       -65.96853454
  PAW double counting   =       186.94834645     -113.51344011
  entropy T*S    EENTRO =        -0.00053332
  eigenvalues    EBANDS =        17.92520167
  atomic energy  EATOM  =       130.57950032
  ---------------------------------------------------
  free energy    TOTEN  =       -11.88018933 eV

  energy without entropy =      -11.87965601  energy(sigma->0) =      -11.88001155


--------------------------------------------------------------------------------------------------------




----------------------------------------- Iteration    1(  10)  ---------------------------------------


    POTLOK:  cpu time    0.06: real time    0.06
    SETDIJ:  cpu time    0.02: real time    0.03
     EDDAV:  cpu time    0.31: real time    0.31
       DOS:  cpu time    0.00: real time    0.00
    CHARGE:  cpu time    0.03: real time    0.03
    MIXING:  cpu time    0.00: real time    0.00
    --------------------------------------------
      LOOP:  cpu time    0.42: real time    0.46

 eigenvalue-minimisations  :   627
 total energy-change (2. order) : 0.1366459E-02  (-0.3657411E-04)
 number of electron       5.0000000 magnetization       0.3055695
 augmentation part        0.4065544 magnetization       0.1709081

 Broyden mixing:
  rms(total) = 0.57055E-01    rms(broyden)= 0.57052E-01
  rms(prec ) = 0.14227E+00
  weight for this iteration     100.00

 eigenvalues of (default mixing * dielectric matrix)
  average eigenvalue GAMMA=   1.0427
  1.3293  1.3293  0.9529  0.9529  0.6491

 Free energy of the ion-electron system (eV)
  ---------------------------------------------------
  alpha Z        PSCENC =        30.58334069
  Ewald energy   TEWEN  =      -197.90100875
  -1/2 Hartree   DENC   =        -0.52708997
  -exchange  EXHF       =         0.00000000
  -V(xc)+E(xc)   XCENC  =       -65.96538520
  PAW double counting   =       186.78248090     -113.34966866
  entropy T*S    EENTRO =        -0.00053359
  eigenvalues    EBANDS =        17.91954139
  atomic energy  EATOM  =       130.57950032
  ---------------------------------------------------
  free energy    TOTEN  =       -11.87882287 eV

  energy without entropy =      -11.87828928  energy(sigma->0) =      -11.87864501


--------------------------------------------------------------------------------------------------------




----------------------------------------- Iteration    1(  11)  ---------------------------------------


    POTLOK:  cpu time    0.07: real time    0.07
    SETDIJ:  cpu time    0.02: real time    0.02
     EDDAV:  cpu time    0.21: real time    0.21
       DOS:  cpu time    0.00: real time    0.00
    CHARGE:  cpu time    0.03: real time    0.03
    MIXING:  cpu time    0.00: real time    0.00
    --------------------------------------------
      LOOP:  cpu time    0.33: real time    0.34

 eigenvalue-minimisations  :   378
 total energy-change (2. order) : 0.1112331E-03  (-0.1253767E-04)
 number of electron       5.0000000 magnetization       0.0942120
 augmentation part        0.4062211 magnetization      -0.0404536

 Broyden mixing:
  rms(total) = 0.54664E-01    rms(broyden)= 0.54664E-01
  rms(prec ) = 0.12987E+00
  weight for this iteration     100.00

 eigenvalues of (default mixing * dielectric matrix)
  average eigenvalue GAMMA=   1.3009
  2.4251  1.4699  1.4699  0.8995  0.8995  0.6415

 Free energy of the ion-electron system (eV)
  ---------------------------------------------------
  alpha Z        PSCENC =        30.58334069
  Ewald energy   TEWEN  =      -197.90100875
  -1/2 Hartree   DENC   =        -0.53837035
  -exchange  EXHF       =         0.00000000
  -V(xc)+E(xc)   XCENC  =       -65.97084900
  PAW double counting   =       187.15357500     -113.71812816
  entropy T*S    EENTRO =        -0.00055504
  eigenvalues    EBANDS =        17.93378367
  atomic energy  EATOM  =       130.57950032
  ---------------------------------------------------
  free energy    TOTEN  =       -11.87871164 eV

  energy without entropy =      -11.87815659  energy(sigma->0) =      -11.87852662


--------------------------------------------------------------------------------------------------------




----------------------------------------- Iteration    1(  12)  ---------------------------------------


    POTLOK:  cpu time    0.06: real time    0.06
    SETDIJ:  cpu time    0.02: real time    0.02
     EDDAV:  cpu time    0.28: real time    0.28
       DOS:  cpu time    0.00: real time    0.00
    CHARGE:  cpu time    0.03: real time    0.03
    MIXING:  cpu time    0.00: real time    0.00
    --------------------------------------------
      LOOP:  cpu time    0.39: real time    0.41

 eigenvalue-minimisations  :   552
 total energy-change (2. order) :-0.7038829E-02  (-0.1325822E-02)
 number of electron       5.0000000 magnetization       0.1500555
 augmentation part        0.4042060 magnetization       0.0199027

 Broyden mixing:
  rms(total) = 0.14709E-01    rms(broyden)= 0.14705E-01
  rms(prec ) = 0.18526E-01
  weight for this iteration     100.00

 eigenvalues of (default mixing * dielectric matrix)
  average eigenvalue GAMMA=   1.2296
  2.2491  1.9961  1.0708  1.0708  0.8356  0.7355  0.6496

 Free energy of the ion-electron system (eV)
  ---------------------------------------------------
  alpha Z        PSCENC =        30.58334069
  Ewald energy   TEWEN  =      -197.90100875
  -1/2 Hartree   DENC   =        -0.62608049
  -exchange  EXHF       =         0.00000000
  -V(xc)+E(xc)   XCENC  =       -66.00311430
  PAW double counting   =       194.07267200     -120.63055993
  entropy T*S    EENTRO =        -0.00044712
  eigenvalues    EBANDS =        18.03994712
  atomic energy  EATOM  =       130.57950032
  ---------------------------------------------------
  free energy    TOTEN  =       -11.88575046 eV

  energy without entropy =      -11.88530334  energy(sigma->0) =      -11.88560142


--------------------------------------------------------------------------------------------------------




----------------------------------------- Iteration    1(  13)  ---------------------------------------


    POTLOK:  cpu time    0.06: real time    0.06
    SETDIJ:  cpu time    0.02: real time    0.02
     EDDAV:  cpu time    0.28: real time    0.28
       DOS:  cpu time    0.00: real time    0.00
    CHARGE:  cpu time    0.03: real time    0.03
    MIXING:  cpu time    0.00: real time    0.00
    --------------------------------------------
      LOOP:  cpu time    0.40: real time    0.41

 eigenvalue-minimisations  :   569
 total energy-change (2. order) :-0.7811450E-03  (-0.9434079E-04)
 number of electron       5.0000000 magnetization       0.1527210
 augmentation part        0.4033605 magnetization       0.0139227

 Broyden mixing:
  rms(total) = 0.52491E-02    rms(broyden)= 0.52435E-02
  rms(prec ) = 0.18135E-01
  weight for this iteration     100.00

 eigenvalues of (default mixing * dielectric matrix)
  average eigenvalue GAMMA=   1.1607
  2.1951  1.3113  1.3113  1.4575  0.8365  0.8365  0.7066  0.6308

 Free energy of the ion-electron system (eV)
  ---------------------------------------------------
  alpha Z        PSCENC =        30.58334069
  Ewald energy   TEWEN  =      -197.90100875
  -1/2 Hartree   DENC   =        -0.65263712
  -exchange  EXHF       =         0.00000000
  -V(xc)+E(xc)   XCENC  =       -66.01450842
  PAW double counting   =       194.37456808     -120.92374295
  entropy T*S    EENTRO =        -0.00047097
  eigenvalues    EBANDS =        18.06842751
  atomic energy  EATOM  =       130.57950032
  ---------------------------------------------------
  free energy    TOTEN  =       -11.88653161 eV

  energy without entropy =      -11.88606064  energy(sigma->0) =      -11.88637462


--------------------------------------------------------------------------------------------------------




----------------------------------------- Iteration    1(  14)  ---------------------------------------


    POTLOK:  cpu time    0.06: real time    0.06
    SETDIJ:  cpu time    0.02: real time    0.02
     EDDAV:  cpu time    0.24: real time    0.24
       DOS:  cpu time    0.00: real time    0.00
    --------------------------------------------
      LOOP:  cpu time    0.32: real time    0.35

 eigenvalue-minimisations  :   439
 total energy-change (2. order) : 0.5628510E-04  (-0.2040388E-04)
 number of electron       5.0000000 magnetization       0.1527210
 augmentation part        0.4033605 magnetization       0.0139227

 Free energy of the ion-electron system (eV)
  ---------------------------------------------------
  alpha Z        PSCENC =        30.58334069
  Ewald energy   TEWEN  =      -197.90100875
  -1/2 Hartree   DENC   =        -0.63470707
  -exchange  EXHF       =         0.00000000
  -V(xc)+E(xc)   XCENC  =       -66.00778991
  PAW double counting   =       193.92030867     -120.47282065
  entropy T*S    EENTRO =        -0.00043665
  eigenvalues    EBANDS =        18.04713802
  atomic energy  EATOM  =       130.57950032
  ---------------------------------------------------
  free energy    TOTEN  =       -11.88647532 eV

  energy without entropy =      -11.88603867  energy(sigma->0) =      -11.88632977


--------------------------------------------------------------------------------------------------------




 average (electrostatic) potential at core
  the test charge radii are     1.2538
  (the norm of the test charge is              1.0000)
       1 -34.9997
 
 
 
 E-fermi :   5.6450     XC(G=0): -12.3621     alpha+bet :-13.5035


 spin component 1

 k-point   1 :       0.0833    0.0833    0.0833
  band No.  band energies     occupation 
      1      -0.5838      1.00000
      2       5.4823      1.00002
      3       5.4823      1.00002
      4       8.5342      0.00000
      5       9.4384      0.00000
      6       9.4384      0.00000
      7      19.9407      0.00000
      8      21.7502      0.00000
      9      22.8411      0.00000

 k-point   2 :       0.2500    0.0833    0.0833
  band No.  band energies     occupation 
      1       1.5441      1.00000
      2       4.4621      1.00000
      3       5.0289      1.00000
      4       9.6249      0.00000
      5      10.2429      0.00000
      6      11.9394      0.00000
      7      19.4915      0.00000
      8      19.9156      0.00000
      9      19.9751      0.00000

 k-point   3 :       0.4167    0.0833    0.0833
  band No.  band energies     occupation 
      1       1.9320      1.00000
      2       4.0731      1.00000
      3       6.5293      0.00000
      4       9.8162      0.00000
      5      10.6239      0.00000
      6      14.4038      0.00000
      7      16.1237      0.00000
      8      18.2342      0.00000
      9      19.9482      0.00000

 k-point   4 :      -0.0833    0.0833    0.0833
  band No.  band energies     occupation 
      1      -1.6408      1.00000
      2       6.3669      0.00000
      3       6.3669      0.00000
      4       6.7063      0.00000
      5       8.7234      0.00000
      6      10.0298      0.00000
      7      19.9425      0.00000
      8      21.6767      0.00000
      9      21.6773      0.00000

 k-point   5 :       0.2500    0.2500    0.0833
  band No.  band energies     occupation 
      1       3.1468      1.00000
      2       4.2897      1.00000
      3       4.9140      1.00000
      4      10.1226      0.00000
      5      10.5759      0.00000
      6      14.9814      0.00000
      7      15.6449      0.00000
      8      19.3804      0.00000
      9      19.9471      0.00000

 k-point   6 :      -0.2500    0.2500    0.0833
  band No.  band energies     occupation 
      1       0.2925      1.00000
      2       5.4151      1.00000
      3       5.5716      1.02912
      4       8.1542      0.00000
      5       8.8945      0.00000
      6      10.4723      0.00000
      7      19.9350      0.00000
      8      20.6999      0.00000
      9      22.7885      0.00000

 k-point   7 :      -0.4167    0.4167    0.0833
  band No.  band energies     occupation 
      1       1.5645      1.00000
      2       4.5871      1.00000
      3       5.9642      0.00000
      4       8.9873      0.00000
      5      10.9420      0.00000
      6      12.4796      0.00000
      7      17.8630      0.00000
      8      19.2689      0.00000
      9      19.9546      0.00000

 k-point   8 :      -0.2500    0.4167    0.0833
  band No.  band energies     occupation 
      1       2.1902      1.00000
      2       4.3531      1.00000
      3       5.5394      1.00549
      4       8.2632      0.00000
      5      10.3861      0.00000
      6      12.0396      0.00000
      7      18.5513      0.00000
      8      19.9506      0.00000
      9      22.2853      0.00000

 k-point   9 :      -0.4167   -0.4167    0.0833
  band No.  band energies     occupation 
      1       2.7846      1.00000
      2       4.6269      1.00000
      3       4.9709      1.00000
      4       8.8350      0.00000
      5      11.0611      0.00000
      6      15.2916      0.00000
      7      15.7484      0.00000
      8      19.6023      0.00000
      9      19.9495      0.00000

 k-point  10 :       0.2500    0.2500    0.2500
  band No.  band energies     occupation 
      1       4.4546      1.00000
      2       4.4546      1.00000
      3       4.4546      1.00000
      4      10.8130      0.00000
      5      10.8130      0.00000
      6      12.6930      0.00000
      7      18.4896      0.00000
      8      18.4896      0.00000
      9      18.4896      0.00000

 k-point  11 :      -0.2500    0.2500    0.2500
  band No.  band energies     occupation 
      1       1.9206      1.00000
      2       4.7602      1.00000
      3       6.9380      0.00000
      4       6.9380      0.00000
      5       8.8787      0.00000
      6      10.6744      0.00000
      7      19.9242      0.00000
      8      20.2521      0.00000
      9      24.8786      0.00000

 k-point  12 :      -0.4167    0.4167    0.2500
  band No.  band energies     occupation 
      1       2.8452      1.00000
      2       3.6871      1.00000
      3       6.8712      0.00000
      4       7.5558      0.00000
      5      11.9605      0.00000
      6      12.0033      0.00000
      7      18.3513      0.00000
      8      19.9520      0.00000
      9      20.6900      0.00000

 k-point  13 :      -0.4167   -0.4167    0.2500
  band No.  band energies     occupation 
      1       3.0017      1.00000
      2       3.0017      1.00000
      3       6.4503      0.00000
      4      10.6593      0.00000
      5      10.6593      0.00000
      6      15.6051      0.00000
      7      16.7015      0.00000
      8      16.7015      0.00000
      9      19.9494      0.00000

 k-point  14 :      -0.4167    0.4167    0.4167
  band No.  band energies     occupation 
      1       2.2346      1.00000
      2       2.3339      1.00000
      3      10.3146      0.00000
      4      10.3146      0.00000
      5      11.8653      0.00000
      6      12.5788      0.00000
      7      17.0307      0.00000
      8      17.0307      0.00000
      9      19.9399      0.00000

 spin component 2

 k-point   1 :       0.0833    0.0833    0.0833
  band No.  band energies     occupation 
      1      -0.4735      1.00000
      2       5.5886      1.03376
      3       5.5886      1.03376
      4       8.6371      0.00000
      5       9.5137      0.00000
      6       9.5137      0.00000
      7      19.9918      0.00000
      8      21.8674      0.00000
      9      22.9416      0.00000

 k-point   2 :       0.2500    0.0833    0.0833
  band No.  band energies     occupation 
      1       1.6530      1.00000
      2       4.5703      1.00000
      3       5.1320      1.00000
      4       9.7053      0.00000
      5      10.3159      0.00000
      6      12.0345      0.00000
      7      19.5840      0.00000
      8      20.0149      0.00000
      9      20.0305      0.00000

 k-point   3 :       0.4167    0.0833    0.0833
  band No.  band energies     occupation 
      1       2.0384      1.00000
      2       4.1820      1.00000
      3       6.6334      0.00000
      4       9.8965      0.00000
      5      10.6948      0.00000
      6      14.4885      0.00000
      7      16.2235      0.00000
      8      18.3352      0.00000
      9      19.9996      0.00000

 k-point   4 :      -0.0833    0.0833    0.0833
  band No.  band energies     occupation 
      1      -1.5301      1.00000
      2       6.4738      0.00000
      3       6.4738      0.00000
      4       6.8125      0.00000
      5       8.7987      0.00000
      6      10.0994      0.00000
      7      19.9937      0.00000
      8      21.7867      0.00000
      9      21.7927      0.00000

 k-point   5 :       0.2500    0.2500    0.0833
  band No.  band energies     occupation 
      1       3.2557      1.00000
      2       4.3929      1.00000
      3       5.0197      1.00000
      4      10.2007      0.00000
      5      10.6495      0.00000
      6      15.0918      0.00000
      7      15.7307      0.00000
      8      19.4663      0.00000
      9      19.9984      0.00000

 k-point   6 :      -0.2500    0.2500    0.0833
  band No.  band energies     occupation 
      1       0.4018      1.00000
      2       5.5231      1.00152
      3       5.6709      0.11929
      4       8.2416      0.00000
      5       8.9964      0.00000
      6      10.5435      0.00000
      7      19.9862      0.00000
      8      20.8007      0.00000
      9      22.8835      0.00000

 k-point   7 :      -0.4167    0.4167    0.0833
  band No.  band energies     occupation 
      1       1.6706      1.00000
      2       4.6960      1.00000
      3       6.0617      0.00000
      4       9.0751      0.00000
      5      11.0195      0.00000
      6      12.5696      0.00000
      7      17.9536      0.00000
      8      19.3661      0.00000
      9      20.0065      0.00000

 k-point   8 :      -0.2500    0.4167    0.0833
  band No.  band energies     occupation 
      1       2.2971      1.00000
      2       4.4488      1.00000
      3       5.6456      0.48872
      4       8.3567      0.00000
      5      10.4688      0.00000
      6      12.1305      0.00000
      7      18.6453      0.00000
      8      20.0022      0.00000
      9      22.3722      0.00000

 k-point   9 :      -0.4167   -0.4167    0.0833
  band No.  band energies     occupation 
      1       2.8881      1.00000
      2       4.7313      1.00000
      3       5.0657      1.00000
      4       8.9270      0.00000
      5      11.1488      0.00000
      6      15.3776      0.00000
      7      15.8484      0.00000
      8      19.6940      0.00000
      9      20.0008      0.00000

 k-point  10 :       0.2500    0.2500    0.2500
  band No.  band energies     occupation 
      1       4.5612      1.00000
      2       4.5612      1.00000
      3       4.5612      1.00000
      4      10.8833      0.00000
      5      10.8833      0.00000
      6      12.8114      0.00000
      7      18.5754      0.00000
      8      18.5754      0.00000
      9      18.5754      0.00000

 k-point  11 :      -0.2500    0.2500    0.2500
  band No.  band energies     occupation 
      1       2.0253      1.00000
      2       4.8466      1.00000
      3       7.0438      0.00000
      4       7.0438      0.00000
      5       8.9800      0.00000
      6      10.7551      0.00000
      7      19.9768      0.00000
      8      20.3427      0.00000
      9      24.9766      0.00000

 k-point  12 :      -0.4167    0.4167    0.2500
  band No.  band energies     occupation 
      1       2.9409      1.00000
      2       3.7782      1.00000
      3       6.9770      0.00000
      4       7.6568      0.00000
      5      12.0520      0.00000
      6      12.1020      0.00000
      7      18.4423      0.00000
      8      20.0036      0.00000
      9      20.7990      0.00000

 k-point  13 :      -0.4167   -0.4167    0.2500
  band No.  band energies     occupation 
      1       3.0924      1.00000
      2       3.0924      1.00000
      3       6.5581      0.00000
      4      10.7573      0.00000
      5      10.7573      0.00000
      6      15.7063      0.00000
      7      16.8006      0.00000
      8      16.8006      0.00000
      9      20.0006      0.00000

 k-point  14 :      -0.4167    0.4167    0.4167
  band No.  band energies     occupation 
      1       2.3245      1.00000
      2       2.4246      1.00000
      3      10.4151      0.00000
      4      10.4152      0.00000
      5      11.9556      0.00000
      6      12.6912      0.00000
      7      17.1361      0.00000
      8      17.1361      0.00000
      9      19.9909      0.00000


--------------------------------------------------------------------------------------------------------


 soft charge-density along one line, spin component           1
         0         1         2         3         4         5         6         7         8         9
 total charge-density along one line
 
 soft charge-density along one line, spin component           2
         0         1         2         3         4         5         6         7         8         9
 total charge-density along one line
 
 pseudopotential strength for first ion, spin component:           1
 -6.571   0.000   0.000   0.000   0.000   0.089   0.000   0.000
  0.000  -6.571   0.000   0.000   0.000   0.000   0.089   0.000
  0.000   0.000  -6.580   0.000   0.000   0.000   0.000   0.089
  0.000   0.000   0.000  -6.571   0.000   0.000   0.000   0.000
  0.000   0.000   0.000   0.000  -6.580   0.000   0.000   0.000
  0.089   0.000   0.000   0.000   0.000   0.071   0.000   0.000
  0.000   0.089   0.000   0.000   0.000   0.000   0.071   0.000
  0.000   0.000   0.089   0.000   0.000   0.000   0.000   0.071
  0.000   0.000   0.000   0.089   0.000   0.000   0.000   0.000
  0.000   0.000   0.000   0.000   0.089   0.000   0.000   0.000
  0.000   0.000   0.000   0.000   0.000   0.000   0.000   0.000
  0.000   0.000   0.000   0.000   0.000   0.000   0.000   0.000
  0.000   0.000   0.000   0.000   0.000   0.000   0.000   0.000
  0.000   0.000   0.000   0.000   0.000   0.000   0.000   0.000
  0.000   0.000   0.000   0.000   0.000   0.000   0.000   0.000
  0.000   0.000   0.000   0.000   0.000   0.000   0.000   0.000
  0.000   0.000   0.000   0.000   0.000   0.000   0.000   0.000
  0.000   0.000   0.000   0.000   0.000   0.000   0.000   0.000
 pseudopotential strength for first ion, spin component:           2
 -6.568   0.000   0.000   0.000   0.000   0.090   0.000   0.000
  0.000  -6.568   0.000   0.000   0.000   0.000   0.090   0.000
  0.000   0.000  -6.579   0.000   0.000   0.000   0.000   0.090
  0.000   0.000   0.000  -6.568   0.000   0.000   0.000   0.000
  0.000   0.000   0.000   0.000  -6.579   0.000   0.000   0.000
  0.090   0.000   0.000   0.000   0.000   0.071   0.000   0.000
  0.000   0.090   0.000   0.000   0.000   0.000   0.071   0.000
  0.000   0.000   0.090   0.000   0.000   0.000   0.000   0.071
  0.000   0.000   0.000   0.090   0.000   0.000   0.000   0.000
  0.000   0.000   0.000   0.000   0.090   0.000   0.000   0.000
  0.000   0.000   0.000   0.000   0.000   0.000   0.000   0.000
  0.000   0.000   0.000   0.000   0.000   0.000   0.000   0.000
  0.000   0.000   0.000   0.000   0.000   0.000   0.000   0.000
  0.000   0.000   0.000   0.000   0.000   0.000   0.000   0.000
  0.000   0.000   0.000   0.000   0.000   0.000   0.000   0.000
  0.000   0.000   0.000   0.000   0.000   0.000   0.000   0.000
  0.000   0.000   0.000   0.000   0.000   0.000   0.000   0.000
  0.000   0.000   0.000   0.000   0.000   0.000   0.000   0.000
 total augmentation occupancy for first ion, spin component:           1
  0.796   0.000   0.000   0.000   0.000  -0.573   0.000   0.000   0.000   0.000   0.000   0.000   0.000   0.000   0.000   0.000
  0.000   0.796   0.000   0.000   0.000   0.000  -0.573   0.000   0.000   0.000   0.000   0.000   0.000   0.000   0.000   0.000
  0.000   0.000   0.551   0.000   0.000   0.000   0.000  -0.499   0.000   0.000   0.000   0.000   0.000   0.000   0.000   0.000
  0.000   0.000   0.000   0.796   0.000   0.000   0.000   0.000  -0.573   0.000   0.000   0.000   0.000   0.000   0.000   0.000
  0.000   0.000   0.000   0.000   0.551   0.000   0.000   0.000   0.000  -0.499   0.000   0.000   0.000   0.000   0.000   0.000
 -0.573   0.000   0.000   0.000   0.000   0.465   0.000   0.000   0.000   0.000   0.000   0.000   0.000   0.000   0.000   0.000
  0.000  -0.573   0.000   0.000   0.000   0.000   0.465   0.000   0.000   0.000   0.000   0.000   0.000   0.000   0.000   0.000
  0.000   0.000  -0.499   0.000   0.000   0.000   0.000   0.488   0.000   0.000   0.000   0.000   0.000   0.000   0.000   0.000
  0.000   0.000   0.000  -0.573   0.000   0.000   0.000   0.000   0.465   0.000   0.000   0.000   0.000   0.000   0.000   0.000
  0.000   0.000   0.000   0.000  -0.499   0.000   0.000   0.000   0.000   0.488   0.000   0.000   0.000   0.000   0.000   0.000
  0.000   0.000   0.000   0.000   0.000   0.000   0.000   0.000   0.000   0.000   1.389  -0.291   0.000   0.000   0.000   0.000
  0.000   0.000   0.000   0.000   0.000   0.000   0.000   0.000   0.000   0.000  -0.291   0.065   0.000   0.000   0.000   0.000
  0.000   0.000   0.000   0.000   0.000   0.000   0.000   0.000   0.000   0.000   0.000   0.000   0.290   0.000   0.000   0.012
  0.000   0.000   0.000   0.000   0.000   0.000   0.000   0.000   0.000   0.000   0.000   0.000   0.000   0.290   0.000   0.000
  0.000   0.000   0.000   0.000   0.000   0.000   0.000   0.000   0.000   0.000   0.000   0.000   0.000   0.000   0.290   0.000
  0.000   0.000   0.000   0.000   0.000   0.000   0.000   0.000   0.000   0.000   0.000   0.000   0.012   0.000   0.000   0.001
  0.000   0.000   0.000   0.000   0.000   0.000   0.000   0.000   0.000   0.000   0.000   0.000   0.000   0.012   0.000   0.000
  0.000   0.000   0.000   0.000   0.000   0.000   0.000   0.000   0.000   0.000   0.000   0.000   0.000   0.000   0.012   0.000
 total augmentation occupancy for first ion, spin component:           2
  0.036   0.000   0.000   0.000   0.000  -0.018   0.000   0.000   0.000   0.000   0.000   0.000   0.000   0.000   0.000   0.000
  0.000   0.036   0.000   0.000   0.000   0.000  -0.018   0.000   0.000   0.000   0.000   0.000   0.000   0.000   0.000   0.000
  0.000   0.000   0.015   0.000   0.000   0.000   0.000  -0.008   0.000   0.000   0.000   0.000   0.000   0.000   0.000   0.000
  0.000   0.000   0.000   0.036   0.000   0.000   0.000   0.000  -0.018   0.000   0.000   0.000   0.000   0.000   0.000   0.000
  0.000   0.000   0.000   0.000   0.015   0.000   0.000   0.000   0.000  -0.008   0.000   0.000   0.000   0.000   0.000   0.000
 -0.018   0.000   0.000   0.000   0.000   0.010   0.000   0.000   0.000   0.000   0.000   0.000   0.000   0.000   0.000   0.000
  0.000  -0.018   0.000   0.000   0.000   0.000   0.010   0.000   0.000   0.000   0.000   0.000   0.000   0.000   0.000   0.000
  0.000   0.000  -0.008   0.000   0.000   0.000   0.000   0.006   0.000   0.000   0.000   0.000   0.000   0.000   0.000   0.000
  0.000   0.000   0.000  -0.018   0.000   0.000   0.000   0.000   0.010   0.000   0.000   0.000   0.000   0.000   0.000   0.000
  0.000   0.000   0.000   0.000  -0.008   0.000   0.000   0.000   0.000   0.006   0.000   0.000   0.000   0.000   0.000   0.000
  0.000   0.000   0.000   0.000   0.000   0.000   0.000   0.000   0.000   0.000   0.004  -0.003   0.000   0.000   0.000   0.000
  0.000   0.000   0.000   0.000   0.000   0.000   0.000   0.000   0.000   0.000  -0.003   0.001   0.000   0.000   0.000   0.000
  0.000   0.000   0.000   0.000   0.000   0.000   0.000   0.000   0.000   0.000   0.000   0.000   0.010   0.000   0.000   0.000
  0.000   0.000   0.000   0.000   0.000   0.000   0.000   0.000   0.000   0.000   0.000   0.000   0.000   0.010   0.000   0.000
  0.000   0.000   0.000   0.000   0.000   0.000   0.000   0.000   0.000   0.000   0.000   0.000   0.000   0.000   0.010   0.000
  0.000   0.000   0.000   0.000   0.000   0.000   0.000   0.000   0.000   0.000   0.000   0.000   0.000   0.000   0.000   0.000
  0.000   0.000   0.000   0.000   0.000   0.000   0.000   0.000   0.000   0.000   0.000   0.000   0.000   0.000   0.000   0.000
  0.000   0.000   0.000   0.000   0.000   0.000   0.000   0.000   0.000   0.000   0.000   0.000   0.000   0.000   0.000   0.000


------------------------ aborting loop because EDIFF is reached ----------------------------------------


 


 total charge     
 
# of ion     s       p       d       tot
----------------------------------------
  1        0.707   0.673   3.393   4.773
 


 magnetization (x)
 
# of ion     s       p       d       tot
----------------------------------------
  1        0.003   0.022   0.124   0.149
 
    CHARGE:  cpu time    0.03: real time    0.03
    FORLOC:  cpu time    0.00: real time    0.00
    FORNL :  cpu time    0.07: real time    0.07
    STRESS:  cpu time    0.12: real time    0.12
    FORCOR:  cpu time    0.06: real time    0.07
    FORHAR:  cpu time    0.01: real time    0.01
    MIXING:  cpu time    0.00: real time    0.00

  FORCE on cell =-STRESS in cart. coord.  units (eV):
  Direction    XX          YY          ZZ          XY          YZ          ZX
  --------------------------------------------------------------------------------------
  Alpha Z    30.58334    30.58334    30.58334
  Ewald     -65.96700   -65.96700   -65.96700     0.00000     0.00000     0.00000
  Hartree     0.21207     0.21207     0.21207     0.00000     0.00000     0.00000
  E(xc)     -22.52693   -22.52693   -22.52693     0.00000     0.00000     0.00000
  Local       3.89291     3.89291     3.89291     0.00000     0.00000     0.00000
  n-local    -8.91104    -8.74992    -7.54525     1.60770    -1.49363    -2.22346
  augment     2.92369     2.92369     2.92369     0.00000     0.00000     0.00000
  Kinetic    58.00287    56.83068    61.02551    -1.43488     2.35708     1.97904
  Fock        0.00000     0.00000     0.00000     0.00000     0.00000     0.00000
  -------------------------------------------------------------------------------------
  Total      -0.66431    -0.66431    -0.66431     0.00000     0.00000     0.00000
  in kB     -58.69830   -58.69830   -58.69830     0.00000     0.00000     0.00000
  external pressure =      -58.70 kB  Pullay stress =        0.00 kB


 VOLUME and BASIS-vectors are now :
 -----------------------------------------------------------------------------
  energy-cutoff  :      200.00
  volume of cell :       18.13
      direct lattice vectors                 reciprocal lattice vectors
    -1.655000000  1.655000000  1.655000000     0.000000000  0.302114804  0.302114804
     1.655000000 -1.655000000  1.655000000     0.302114804  0.000000000  0.302114804
     1.655000000  1.655000000 -1.655000000     0.302114804  0.302114804  0.000000000

  length of vectors
     2.866544087  2.866544087  2.866544087     0.427254853  0.427254853  0.427254853


 FORCES acting on ions
    electron-ion (+dipol)            ewald-force                    non-local-force                 convergence-correction
 -----------------------------------------------------------------------------------------------
   -.773E-15 -.201E-14 0.140E-14   -.614E-16 0.702E-15 0.197E-16   0.000E+00 -.132E-22 -.662E-23   0.775E-15 -.247E-14 -.150E-14
 -----------------------------------------------------------------------------------------------
   -.773E-15 -.201E-14 0.140E-14   -.614E-16 0.702E-15 0.197E-16   0.000E+00 -.132E-22 -.662E-23   0.775E-15 -.247E-14 -.150E-14
 
 
 POSITION                                       TOTAL-FORCE (eV/Angst)
 -----------------------------------------------------------------------------------
      0.00000      0.00000      0.00000         0.000000      0.000000      0.000000
 -----------------------------------------------------------------------------------
    total drift:                                0.000000      0.000000      0.000000


--------------------------------------------------------------------------------------------------------



  FREE ENERGIE OF THE ION-ELECTRON SYSTEM (eV)
  ---------------------------------------------------
  free  energy   TOTEN  =       -11.886475 eV

  energy  without entropy=      -11.886039  energy(sigma->0) =      -11.886330
 


--------------------------------------------------------------------------------------------------------


    POTLOK:  cpu time    0.09: real time    0.09


--------------------------------------------------------------------------------------------------------


 writing wavefunctions
     LOOP+:  cpu time    5.57: real time    6.76
    4ORBIT:  cpu time    0.00: real time    0.00
 


 total charge     
 
# of ion     s       p       d       tot
----------------------------------------
  1        0.707   0.673   3.393   4.773
 


 magnetization (x)
 
# of ion     s       p       d       tot
----------------------------------------
  1        0.003   0.022   0.124   0.149
 

 total amount of memory used by VASP on root node    33536. kBytes
========================================================================

   base      :      30000. kBytes
   nonl-proj :        247. kBytes
   fftplans  :        800. kBytes
   grid      :       1894. kBytes
   one-center:         31. kBytes
   wavefun   :        564. kBytes
 
  
  
 General timing and accounting informations for this job:
 ========================================================
  
                  Total CPU time used (sec):        5.927
                            User time (sec):        5.818
                          System time (sec):        0.109
                         Elapsed time (sec):        7.537
  
                   Maximum memory used (kb):           0.
                   Average memory used (kb):           0.
  
                          Minor page faults:         5856
                          Major page faults:            0
                 Voluntary context switches:         1854
