<?xml version="1.0" encoding="ISO-8859-1"?>
<modeling>
 <generator>
  <i name="program" type="string">vasp </i>
  <i name="version" type="string">5.2.12  </i>
  <i name="subversion" type="string">11Nov11 complex                                                      parallel </i>
  <i name="platform" type="string">LinuxIFC </i>
  <i name="date" type="string">2012 10 17 </i>
  <i name="time" type="string">10:22:31 </i>
 </generator>
 <incar>
  <i type="int" name="ISTART">     0</i>
  <i type="string" name="PREC">accurate</i>
  <i type="int" name="ISPIN">     2</i>
  <i name="ENCUT">    200.00000000</i>
  <v name="MAGMOM">      6.00000000</v>
  <i type="logical" name="LREAL"> F  </i>
  <i type="int" name="ISMEAR">     1</i>
  <i name="SIGMA">      0.05000000</i>
  <i type="logical" name="LORBIT"> F  </i>
 </incar>
 <kpoints>
  <generation param="Monkhorst-Pack">
   <v type="int" name="divisions">       6        6        6 </v>
   <v name="usershift">      0.00000000       0.00000000       0.00000000 </v>
   <v name="genvec1">      0.16666667       0.00000000       0.00000000 </v>
   <v name="genvec2">      0.00000000       0.16666667       0.00000000 </v>
   <v name="genvec3">      0.00000000       0.00000000       0.16666667 </v>
   <v name="shift">      0.50000000       0.50000000       0.50000000 </v>
  </generation>
  <varray name="kpointlist" >
   <v>       0.08333333       0.08333333       0.08333333 </v>
   <v>       0.25000000       0.08333333       0.08333333 </v>
   <v>       0.41666667       0.08333333       0.08333333 </v>
   <v>      -0.08333333       0.08333333       0.08333333 </v>
   <v>       0.25000000       0.25000000       0.08333333 </v>
   <v>      -0.25000000       0.25000000       0.08333333 </v>
   <v>      -0.41666667       0.41666667       0.08333333 </v>
   <v>      -0.25000000       0.41666667       0.08333333 </v>
   <v>      -0.41666667      -0.41666667       0.08333333 </v>
   <v>       0.25000000       0.25000000       0.25000000 </v>
   <v>      -0.25000000       0.25000000       0.25000000 </v>
   <v>      -0.41666667       0.41666667       0.25000000 </v>
   <v>      -0.41666667      -0.41666667       0.25000000 </v>
   <v>      -0.41666667       0.41666667       0.41666667 </v>
  </varray>
  <varray name="weights" >
   <v>       0.03703704 </v>
   <v>       0.11111111 </v>
   <v>       0.05555556 </v>
   <v>       0.02777778 </v>
   <v>       0.11111111 </v>
   <v>       0.11111111 </v>
   <v>       0.11111111 </v>
   <v>       0.11111111 </v>
   <v>       0.11111111 </v>
   <v>       0.00925926 </v>
   <v>       0.02777778 </v>
   <v>       0.11111111 </v>
   <v>       0.03703704 </v>
   <v>       0.02777778 </v>
  </varray>
 </kpoints>
 <parameters>
  <separator name="general" >
   <i type="string" name="SYSTEM">unknown system</i>
   <i type="logical" name="LCOMPAT"> F  </i>
  </separator>
  <separator name="electronic" >
   <i type="string" name="PREC">accura</i>
   <i name="ENMAX">    200.00000000</i>
   <i name="ENAUG">    332.07500000</i>
   <i name="EDIFF">      0.00010000</i>
   <i type="int" name="IALGO">    38</i>
   <i type="int" name="IWAVPR">    10</i>
   <i type="int" name="NBANDS">     9</i>
   <i name="NELECT">      5.00000000</i>
   <i type="int" name="TURBO">     0</i>
   <i type="int" name="IRESTART">     0</i>
   <i type="int" name="NREBOOT">     0</i>
   <i type="int" name="NMIN">     0</i>
   <i name="EREF">      0.00000000</i>
   <separator name="electronic smearing" >
    <i type="int" name="ISMEAR">     1</i>
    <i name="SIGMA">      0.05000000</i>
    <i name="KSPACING">      0.50000000</i>
    <i type="logical" name="KGAMMA"> T  </i>
   </separator>
   <separator name="electronic projectors" >
    <i type="logical" name="LREAL"> F  </i>
    <v name="ROPT">      0.00000000</v>
    <i type="int" name="LMAXPAW">  -100</i>
    <i type="int" name="LMAXMIX">     2</i>
    <i type="logical" name="NLSPLINE"> F  </i>
   </separator>
   <separator name="electronic startup" >
    <i type="int" name="ISTART">     0</i>
    <i type="int" name="ICHARG">     2</i>
    <i type="int" name="INIWAV">     1</i>
   </separator>
   <separator name="electronic spin" >
    <i type="int" name="ISPIN">     2</i>
    <i type="logical" name="LNONCOLLINEAR"> F  </i>
    <v name="MAGMOM">      6.00000000</v>
    <i name="NUPDOWN">     -1.00000000</i>
    <i type="logical" name="LSORBIT"> F  </i>
    <v name="SAXIS">      0.00000000      0.00000000      1.00000000</v>
    <i type="logical" name="LSPIRAL"> F  </i>
    <v name="QSPIRAL">      0.00000000      0.00000000      0.00000000</v>
    <i type="logical" name="LZEROZ"> F  </i>
   </separator>
   <separator name="electronic exchange-correlation" >
    <i type="logical" name="LASPH"> F  </i>
    <i type="logical" name="LMETAGGA"> F  </i>
   </separator>
   <separator name="electronic convergence" >
    <i type="int" name="NELM">    60</i>
    <i type="int" name="NELMDL">    -5</i>
    <i type="int" name="NELMIN">     2</i>
    <i name="ENINI">    200.00000000</i>
    <separator name="electronic convergence detail" >
     <i type="logical" name="LDIAG"> T  </i>
     <i type="logical" name="LSUBROT"> T  </i>
     <i name="WEIMIN">      0.00000000</i>
     <i name="EBREAK">      0.00000278</i>
     <i name="DEPER">      0.30000000</i>
     <i type="int" name="NRMM">     4</i>
     <i name="TIME">      0.40000000</i>
    </separator>
   </separator>
   <separator name="electronic mixer" >
    <i name="AMIX">      0.40000000</i>
    <i name="BMIX">      1.00000000</i>
    <i name="AMIN">      0.10000000</i>
    <i name="AMIX_MAG">      1.60000000</i>
    <i name="BMIX_MAG">      1.00000000</i>
    <separator name="electronic mixer details" >
     <i type="int" name="IMIX">     4</i>
     <i type="int" name="MAXMIX">   -45</i>
     <i name="WC">    100.00000000</i>
     <i type="int" name="INIMIX">     1</i>
     <i type="int" name="MIXPRE">     1</i>
     <i type="int" name="MREMOVE">     5</i>
    </separator>
   </separator>
   <separator name="electronic dipolcorrection" >
    <i type="logical" name="LDIPOL"> F  </i>
    <i type="logical" name="LMONO"> F  </i>
    <i type="int" name="IDIPOL">     0</i>
    <i name="EPSILON">      1.00000000</i>
    <v name="DIPOL">   -100.00000000   -100.00000000   -100.00000000</v>
    <i name="EFIELD">      0.00000000</i>
   </separator>
  </separator>
  <separator name="grids" >
   <i type="int" name="NGX">    14</i>
   <i type="int" name="NGY">    14</i>
   <i type="int" name="NGZ">    14</i>
   <i type="int" name="NGXF">    28</i>
   <i type="int" name="NGYF">    28</i>
   <i type="int" name="NGZF">    28</i>
   <i type="logical" name="ADDGRID"> F  </i>
  </separator>
  <separator name="ionic" >
   <i type="int" name="NSW">     0</i>
   <i type="int" name="IBRION">    -1</i>
   <i type="int" name="ISIF">     2</i>
   <i name="PSTRESS">      0.00000000</i>
   <i name="EDIFFG">      0.00100000</i>
   <i type="int" name="NFREE">     0</i>
   <i name="POTIM">      0.50000000</i>
   <i name="SMASS">     -3.00000000</i>
   <i name="SCALEE">      1.00000000</i>
  </separator>
  <separator name="ionic md" >
   <i name="TEBEG">      0.00010000</i>
   <i name="TEEND">      0.00010000</i>
   <i type="int" name="NBLOCK">     1</i>
   <i type="int" name="KBLOCK">     1</i>
   <i type="int" name="NPACO">   256</i>
   <i name="APACO">     16.00000000</i>
  </separator>
  <separator name="symmetry" >
   <i type="int" name="ISYM">     2</i>
   <i name="SYMPREC">      0.00001000</i>
  </separator>
  <separator name="dos" >
   <i type="logical" name="LORBIT"> F  </i>
   <v name="RWIGS">     -1.00000000</v>
   <i type="int" name="NEDOS">   301</i>
   <i name="EMIN">     10.00000000</i>
   <i name="EMAX">    -10.00000000</i>
   <i name="EFERMI">      0.00000000</i>
  </separator>
  <separator name="writing" >
   <i type="int" name="NWRITE">     2</i>
   <i type="logical" name="LWAVE"> T  </i>
   <i type="logical" name="LCHARG"> T  </i>
   <i type="logical" name="LPARD"> F  </i>
   <i type="logical" name="LVTOT"> F  </i>
   <i type="logical" name="LVHAR"> F  </i>
   <i type="logical" name="LELF"> F  </i>
   <i type="logical" name="LOPTICS"> F  </i>
   <v name="STM">      0.00000000      0.00000000      0.00000000      0.00000000      0.00000000      0.00000000      0.00000000</v>
  </separator>
  <separator name="performance" >
   <i type="int" name="NPAR">     1</i>
   <i type="int" name="NSIM">     4</i>
   <i type="int" name="NBLK">    -1</i>
   <i type="logical" name="LPLANE"> T  </i>
   <i type="logical" name="LSCALAPACK"> F  </i>
   <i type="logical" name="LSCAAWARE"> F  </i>
   <i type="logical" name="LSCALU"> F  </i>
   <i type="logical" name="LASYNC"> F  </i>
   <i type="logical" name="LORBITALREAL"> F  </i>
  </separator>
  <separator name="miscellaneous" >
   <i type="int" name="IDIOT">     3</i>
   <i type="logical" name="LMUSIC"> F  </i>
   <v name="POMASS">    180.94800000</v>
   <v name="DARWINR">      0.00000000</v>
   <v name="DARWINV">      1.00000000</v>
   <i type="logical" name="LCORR"> T  </i>
  </separator>
  <i type="logical" name="GGA_COMPAT"> T  </i>
  <i type="logical" name="LBERRY"> F  </i>
  <i type="int" name="ICORELEVEL">     0</i>
  <i type="logical" name="LDAU"> F  </i>
  <i type="int" name="I_CONSTRAINED_M">     0</i>
  <separator name="electronic exchange-correlation" >
   <i type="string" name="GGA">--</i>
   <i type="int" name="VOSKOWN">     0</i>
   <i type="logical" name="LHFCALC"> F  </i>
   <i type="string" name="PRECFOCK"></i>
   <i type="logical" name="LHFONE"> F  </i>
   <i type="logical" name="LRHFCALC"> F  </i>
   <i type="logical" name="LTHOMAS"> F  </i>
   <i type="logical" name="LMODELHF"> F  </i>
   <i name="ENCUT4O">     -1.00000000</i>
   <i type="int" name="EXXOEP">     0</i>
   <i type="int" name="FOURORBIT">     0</i>
   <i name="AEXX">      0.00000000</i>
   <i name="HFALPHA">      0.00000000</i>
   <i name="ALDAX">      1.00000000</i>
   <i name="AGGAX">      1.00000000</i>
   <i name="ALDAC">      1.00000000</i>
   <i name="AGGAC">      1.00000000</i>
   <i type="int" name="NKREDX">     1</i>
   <i type="int" name="NKREDY">     1</i>
   <i type="int" name="NKREDZ">     1</i>
   <i type="logical" name="SHIFTRED"> F  </i>
   <i type="logical" name="ODDONLY"> F  </i>
   <i type="logical" name="EVENONLY"> F  </i>
   <i type="int" name="LMAXFOCK">     0</i>
   <i type="int" name="NMAXFOCKAE">     0</i>
   <i type="logical" name="LFOCKAEDFT"> F  </i>
   <i name="HFSCREEN">      0.00000000</i>
   <i name="HFSCREENC">      0.00000000</i>
  </separator>
  <separator name="vdW DFT" >
   <i type="logical" name="LUSE_VDW"> F  </i>
   <i name="Zab_VDW">     -0.84910000</i>
   <i name="PARAM1">      0.12340000</i>
   <i name="PARAM2">      1.00000000</i>
   <i name="PARAM3">      0.00000000</i>
  </separator>
  <separator name="model GW" >
   <i type="int" name="MODEL_GW">     0</i>
   <i name="MODEL_EPS0">     10.87940730</i>
   <i name="MODEL_ALPHA">      1.00000000</i>
  </separator>
  <separator name="linear response parameters" >
   <i type="logical" name="LEPSILON"> F  </i>
   <i type="logical" name="LRPA"> F  </i>
   <i type="logical" name="LNABLA"> F  </i>
   <i type="logical" name="LVEL"> F  </i>
   <i type="int" name="KINTER">     0</i>
   <i name="CSHIFT">      0.10000000</i>
   <i name="OMEGAMAX">     -1.00000000</i>
  </separator>
  <separator name="orbital magnetization" >
   <i type="logical" name="NUCIND"> F  </i>
   <v name="MAGPOS">      0.00000000      0.00000000      0.00000000</v>
   <i type="logical" name="LNICSALL"> T  </i>
   <i type="logical" name="ORBITALMAG"> F  </i>
   <i type="logical" name="LMAGBLOCH"> F  </i>
   <i type="logical" name="LCHIMAG"> F  </i>
   <i type="logical" name="LGAUGE"> T  </i>
   <i type="int" name="MAGATOM">     0</i>
   <v name="MAGDIPOL">      0.00000000      0.00000000      0.00000000</v>
   <v name="AVECCONST">      0.00000000      0.00000000      0.00000000</v>
  </separator>
  <separator name="response functions" >
   <i type="logical" name="LADDER"> F  </i>
   <i type="logical" name="LHARTREE"> T  </i>
   <i type="int" name="IBSE">     0</i>
   <i type="logical" name="LTCTE"> F  </i>
   <i type="logical" name="LTETE"> F  </i>
   <i type="logical" name="LFXCEPS"> F  </i>
   <i type="logical" name="L2ORDER"> F  </i>
   <i type="logical" name="LUSEW"> F  </i>
   <i name="ENCUTGW">     -2.00000000</i>
   <i name="ENCUTGWSOFT">     -2.00000000</i>
   <i name="ENCUTLF">     -1.00000000</i>
   <i type="int" name="LMAXMP2">    -1</i>
   <i name="SCISSOR">      0.00000000</i>
   <i type="int" name="NOMEGA">     0</i>
   <i type="int" name="NOMEGAR">     0</i>
   <i type="int" name="NBANDSGW">    -1</i>
   <i type="int" name="NBANDSO">    -1</i>
   <i type="int" name="NBANDSV">    -1</i>
   <i name="OPTEMAX">      0.00000000</i>
   <i type="int" name="NELM">     1</i>
   <i type="int" name="DIM">     3</i>
   <i type="int" name="ANTIRES">     0</i>
   <i name="OMEGAMAX">    -30.00000000</i>
   <i name="OMEGATL">   -200.00000000</i>
   <i type="int" name="OMEGAGRID">     0</i>
   <i name="CSHIFT">     -0.10000000</i>
   <i type="logical" name="SELFENERGY"> F  </i>
   <i type="logical" name="LSPECTRAL"> F  </i>
   <i type="logical" name="ODDONLYGW"> F  </i>
   <i type="logical" name="EVENONLYGW"> F  </i>
   <i type="int" name="NKREDLFX">     1</i>
   <i type="int" name="NKREDLFY">     1</i>
   <i type="int" name="NKREDLFZ">     1</i>
   <i type="int" name="MAXMEM">  1800</i>
   <i type="int" name="TELESCOPE">     0</i>
  </separator>
 </parameters>
 <atominfo>
  <atoms>       1 </atoms>
  <types>       1 </types>
  <array name="atoms" >
   <dimension dim="1">ion</dimension>
   <field type="string">element</field>
   <field type="int">atomtype</field>
   <set>
    <rc><c>Ta</c><c>   1</c></rc>
   </set>
  </array>
  <array name="atomtypes" >
   <dimension dim="1">type</dimension>
   <field type="int">atomspertype</field>
   <field type="string">element</field>
   <field>mass</field>
   <field>valence</field>
   <field type="string">pseudopotential</field>
   <set>
    <rc><c>   1</c><c>Ta</c><c>    180.94800000</c><c>      5.00000000</c><c>  PAW_PBE Ta 17Jan2003                  </c></rc>
   </set>
  </array>
 </atominfo>
 <structure name="initialpos" >
  <crystal>
   <varray name="basis" >
    <v>      -1.65500000       1.65500000       1.65500000 </v>
    <v>       1.65500000      -1.65500000       1.65500000 </v>
    <v>       1.65500000       1.65500000      -1.65500000 </v>
   </varray>
   <i name="volume">     18.13234550 </i>
   <varray name="rec_basis" >
    <v>       0.00000000       0.30211480       0.30211480 </v>
    <v>       0.30211480       0.00000000       0.30211480 </v>
    <v>       0.30211480       0.30211480       0.00000000 </v>
   </varray>
  </crystal>
  <varray name="positions" >
   <v>       0.00000000       0.00000000       0.00000000 </v>
  </varray>
 </structure>
 <calculation>
  <scstep>
   <time name="dav">    0.29    0.29</time>
   <time name="total">    0.38    0.39</time>
   <energy>
    <i name="alphaZ">     30.58334069 </i>
    <i name="ewald">   -197.90100875 </i>
    <i name="hartreedc">     -2.50452612 </i>
    <i name="XCdc">    -60.73631373 </i>
    <i name="pawpsdc">    143.51874798 </i>
    <i name="pawaedc">    -69.33493833 </i>
    <i name="eentropy">      0.00035456 </i>
    <i name="bandstr">     28.03841505 </i>
    <i name="atom">    130.57950032 </i>
    <i name="e_fr_energy">      2.24357167 </i>
    <i name="e_wo_entrp">      2.24321711 </i>
    <i name="e_0_energy">      2.24345348 </i>
   </energy>
  </scstep>
  <scstep>
   <time name="dav">    0.29    0.29</time>
   <time name="total">    0.29    1.02</time>
   <energy>
    <i name="e_fr_energy">     -1.43080442 </i>
    <i name="e_wo_entrp">     -1.43109199 </i>
    <i name="e_0_energy">     -1.43090028 </i>
   </energy>
  </scstep>
  <scstep>
   <time name="dav">    0.29    0.29</time>
   <time name="total">    0.30    0.31</time>
   <energy>
    <i name="e_fr_energy">     -1.46278684 </i>
    <i name="e_wo_entrp">     -1.46296380 </i>
    <i name="e_0_energy">     -1.46284583 </i>
   </energy>
  </scstep>
  <scstep>
   <time name="dav">    0.30    0.30</time>
   <time name="total">    0.31    0.32</time>
   <energy>
    <i name="e_fr_energy">     -1.46284952 </i>
    <i name="e_wo_entrp">     -1.46302657 </i>
    <i name="e_0_energy">     -1.46290854 </i>
   </energy>
  </scstep>
  <scstep>
   <time name="dav">    0.31    0.31</time>
   <time name="total">    0.34    0.35</time>
   <energy>
    <i name="e_fr_energy">     -1.46284959 </i>
    <i name="e_wo_entrp">     -1.46302664 </i>
    <i name="e_0_energy">     -1.46290861 </i>
   </energy>
  </scstep>
  <scstep>
   <time name="dav">    0.28    0.28</time>
   <time name="total">    0.39    0.41</time>
   <energy>
    <i name="e_fr_energy">    -11.81735876 </i>
    <i name="e_wo_entrp">    -11.81743930 </i>
    <i name="e_0_energy">    -11.81738561 </i>
   </energy>
  </scstep>
  <scstep>
   <time name="dav">    0.28    0.29</time>
   <time name="total">    0.40    0.41</time>
   <energy>
    <i name="e_fr_energy">    -11.90981091 </i>
    <i name="e_wo_entrp">    -11.90933694 </i>
    <i name="e_0_energy">    -11.90965292 </i>
   </energy>
  </scstep>
  <scstep>
   <time name="dav">    0.27    0.28</time>
   <time name="total">    0.39    0.41</time>
   <energy>
    <i name="e_fr_energy">    -11.79142476 </i>
    <i name="e_wo_entrp">    -11.79132823 </i>
    <i name="e_0_energy">    -11.79139258 </i>
   </energy>
  </scstep>
  <scstep>
   <time name="dav">    0.27    0.27</time>
   <time name="total">    0.39    0.41</time>
   <energy>
    <i name="e_fr_energy">    -11.88018933 </i>
    <i name="e_wo_entrp">    -11.87965601 </i>
    <i name="e_0_energy">    -11.88001155 </i>
   </energy>
  </scstep>
  <scstep>
   <time name="dav">    0.31    0.31</time>
   <time name="total">    0.42    0.46</time>
   <energy>
    <i name="e_fr_energy">    -11.87882287 </i>
    <i name="e_wo_entrp">    -11.87828928 </i>
    <i name="e_0_energy">    -11.87864501 </i>
   </energy>
  </scstep>
  <scstep>
   <time name="dav">    0.21    0.21</time>
   <time name="total">    0.33    0.34</time>
   <energy>
    <i name="e_fr_energy">    -11.87871164 </i>
    <i name="e_wo_entrp">    -11.87815659 </i>
    <i name="e_0_energy">    -11.87852662 </i>
   </energy>
  </scstep>
  <scstep>
   <time name="dav">    0.28    0.28</time>
   <time name="total">    0.39    0.41</time>
   <energy>
    <i name="e_fr_energy">    -11.88575046 </i>
    <i name="e_wo_entrp">    -11.88530334 </i>
    <i name="e_0_energy">    -11.88560142 </i>
   </energy>
  </scstep>
  <scstep>
   <time name="dav">    0.28    0.28</time>
   <time name="total">    0.40    0.41</time>
   <energy>
    <i name="e_fr_energy">    -11.88653161 </i>
    <i name="e_wo_entrp">    -11.88606064 </i>
    <i name="e_0_energy">    -11.88637462 </i>
   </energy>
  </scstep>
  <scstep>
   <time name="dav">    0.24    0.24</time>
   <time name="total">    0.32    0.35</time>
   <energy>
    <i name="alphaZ">     30.58334069 </i>
    <i name="ewald">   -197.90100875 </i>
    <i name="hartreedc">     -0.63470707 </i>
    <i name="XCdc">    -66.00778991 </i>
    <i name="pawpsdc">    193.92030867 </i>
    <i name="pawaedc">   -120.47282065 </i>
    <i name="eentropy">     -0.00043665 </i>
    <i name="bandstr">     18.04713802 </i>
    <i name="atom">    130.57950032 </i>
    <i name="e_fr_energy">    -11.88647532 </i>
    <i name="e_wo_entrp">    -11.88603867 </i>
    <i name="e_0_energy">    -11.88632977 </i>
   </energy>
  </scstep>
  <parameters_embedded>
   <separator name="dft+d2" >
    <i type="logical" name="LVDW"> F  </i>
   </separator>
  </parameters_embedded>
  <structure>
   <crystal>
    <varray name="basis" >
     <v>      -1.65500000       1.65500000       1.65500000 </v>
     <v>       1.65500000      -1.65500000       1.65500000 </v>
     <v>       1.65500000       1.65500000      -1.65500000 </v>
    </varray>
    <i name="volume">     18.13234550 </i>
    <varray name="rec_basis" >
     <v>       0.00000000       0.30211480       0.30211480 </v>
     <v>       0.30211480       0.00000000       0.30211480 </v>
     <v>       0.30211480       0.30211480       0.00000000 </v>
    </varray>
   </crystal>
   <varray name="positions" >
    <v>       0.00000000       0.00000000       0.00000000 </v>
   </varray>
  </structure>
  <varray name="forces" >
   <v>       0.00000000       0.00000000       0.00000000 </v>
  </varray>
  <varray name="stress" >
   <v>     -58.69829583       0.00000000       0.00000000 </v>
   <v>       0.00000000     -58.69829583       0.00000000 </v>
   <v>       0.00000000       0.00000000     -58.69829583 </v>
  </varray>
  <energy>
   <i name="e_fr_energy">    -11.88647532 </i>
   <i name="e_wo_entrp">    -11.88632977 </i>
   <i name="e_0_energy">     -0.00043665 </i>
  </energy>
  <time name="totalsc">    5.57    6.76</time>
  <eigenvalues>
   <array>
    <dimension dim="1">band</dimension>
    <dimension dim="2">kpoint</dimension>
    <dimension dim="3">spin</dimension>
    <field>eigene</field>
    <field>occ</field>
    <set>
     <set comment="spin 1">
      <set comment="kpoint 1">
       <r>   -0.5838    1.0000 </r>
       <r>    5.4823    1.0000 </r>
       <r>    5.4823    1.0000 </r>
       <r>    8.5342    0.0000 </r>
       <r>    9.4384    0.0000 </r>
       <r>    9.4384    0.0000 </r>
       <r>   19.9407    0.0000 </r>
       <r>   21.7502    0.0000 </r>
       <r>   22.8411    0.0000 </r>
      </set>
      <set comment="kpoint 2">
       <r>    1.5441    1.0000 </r>
       <r>    4.4621    1.0000 </r>
       <r>    5.0289    1.0000 </r>
       <r>    9.6249    0.0000 </r>
       <r>   10.2429    0.0000 </r>
       <r>   11.9394    0.0000 </r>
       <r>   19.4915    0.0000 </r>
       <r>   19.9156    0.0000 </r>
       <r>   19.9751    0.0000 </r>
      </set>
      <set comment="kpoint 3">
       <r>    1.9320    1.0000 </r>
       <r>    4.0731    1.0000 </r>
       <r>    6.5293    0.0000 </r>
       <r>    9.8162    0.0000 </r>
       <r>   10.6239    0.0000 </r>
       <r>   14.4038    0.0000 </r>
       <r>   16.1237    0.0000 </r>
       <r>   18.2342    0.0000 </r>
       <r>   19.9482    0.0000 </r>
      </set>
      <set comment="kpoint 4">
       <r>   -1.6408    1.0000 </r>
       <r>    6.3669    0.0000 </r>
       <r>    6.3669    0.0000 </r>
       <r>    6.7063    0.0000 </r>
       <r>    8.7234    0.0000 </r>
       <r>   10.0298    0.0000 </r>
       <r>   19.9425    0.0000 </r>
       <r>   21.6767    0.0000 </r>
       <r>   21.6773    0.0000 </r>
      </set>
      <set comment="kpoint 5">
       <r>    3.1468    1.0000 </r>
       <r>    4.2897    1.0000 </r>
       <r>    4.9140    1.0000 </r>
       <r>   10.1226    0.0000 </r>
       <r>   10.5759    0.0000 </r>
       <r>   14.9814    0.0000 </r>
       <r>   15.6449    0.0000 </r>
       <r>   19.3804    0.0000 </r>
       <r>   19.9471    0.0000 </r>
      </set>
      <set comment="kpoint 6">
       <r>    0.2925    1.0000 </r>
       <r>    5.4151    1.0000 </r>
       <r>    5.5716    1.0291 </r>
       <r>    8.1542    0.0000 </r>
       <r>    8.8945    0.0000 </r>
       <r>   10.4723    0.0000 </r>
       <r>   19.9350    0.0000 </r>
       <r>   20.6999    0.0000 </r>
       <r>   22.7885    0.0000 </r>
      </set>
      <set comment="kpoint 7">
       <r>    1.5645    1.0000 </r>
       <r>    4.5871    1.0000 </r>
       <r>    5.9642    0.0000 </r>
       <r>    8.9873    0.0000 </r>
       <r>   10.9420    0.0000 </r>
       <r>   12.4796    0.0000 </r>
       <r>   17.8630    0.0000 </r>
       <r>   19.2689    0.0000 </r>
       <r>   19.9546    0.0000 </r>
      </set>
      <set comment="kpoint 8">
       <r>    2.1902    1.0000 </r>
       <r>    4.3531    1.0000 </r>
       <r>    5.5394    1.0055 </r>
       <r>    8.2632    0.0000 </r>
       <r>   10.3861    0.0000 </r>
       <r>   12.0396    0.0000 </r>
       <r>   18.5513    0.0000 </r>
       <r>   19.9506    0.0000 </r>
       <r>   22.2853    0.0000 </r>
      </set>
      <set comment="kpoint 9">
       <r>    2.7846    1.0000 </r>
       <r>    4.6269    1.0000 </r>
       <r>    4.9709    1.0000 </r>
       <r>    8.8350    0.0000 </r>
       <r>   11.0611    0.0000 </r>
       <r>   15.2916    0.0000 </r>
       <r>   15.7484    0.0000 </r>
       <r>   19.6023    0.0000 </r>
       <r>   19.9495    0.0000 </r>
      </set>
      <set comment="kpoint 10">
       <r>    4.4546    1.0000 </r>
       <r>    4.4546    1.0000 </r>
       <r>    4.4546    1.0000 </r>
       <r>   10.8130    0.0000 </r>
       <r>   10.8130    0.0000 </r>
       <r>   12.6930    0.0000 </r>
       <r>   18.4896    0.0000 </r>
       <r>   18.4896    0.0000 </r>
       <r>   18.4896    0.0000 </r>
      </set>
      <set comment="kpoint 11">
       <r>    1.9206    1.0000 </r>
       <r>    4.7602    1.0000 </r>
       <r>    6.9380    0.0000 </r>
       <r>    6.9380    0.0000 </r>
       <r>    8.8787    0.0000 </r>
       <r>   10.6744    0.0000 </r>
       <r>   19.9242    0.0000 </r>
       <r>   20.2521    0.0000 </r>
       <r>   24.8786    0.0000 </r>
      </set>
      <set comment="kpoint 12">
       <r>    2.8452    1.0000 </r>
       <r>    3.6871    1.0000 </r>
       <r>    6.8712    0.0000 </r>
       <r>    7.5558    0.0000 </r>
       <r>   11.9605    0.0000 </r>
       <r>   12.0033    0.0000 </r>
       <r>   18.3513    0.0000 </r>
       <r>   19.9520    0.0000 </r>
       <r>   20.6900    0.0000 </r>
      </set>
      <set comment="kpoint 13">
       <r>    3.0017    1.0000 </r>
       <r>    3.0017    1.0000 </r>
       <r>    6.4503    0.0000 </r>
       <r>   10.6593    0.0000 </r>
       <r>   10.6593    0.0000 </r>
       <r>   15.6051    0.0000 </r>
       <r>   16.7015    0.0000 </r>
       <r>   16.7015    0.0000 </r>
       <r>   19.9494    0.0000 </r>
      </set>
      <set comment="kpoint 14">
       <r>    2.2346    1.0000 </r>
       <r>    2.3339    1.0000 </r>
       <r>   10.3146    0.0000 </r>
       <r>   10.3146    0.0000 </r>
       <r>   11.8653    0.0000 </r>
       <r>   12.5788    0.0000 </r>
       <r>   17.0307    0.0000 </r>
       <r>   17.0307    0.0000 </r>
       <r>   19.9399    0.0000 </r>
      </set>
     </set>
     <set comment="spin 2">
      <set comment="kpoint 1">
       <r>   -0.4735    1.0000 </r>
       <r>    5.5886    1.0338 </r>
       <r>    5.5886    1.0338 </r>
       <r>    8.6371    0.0000 </r>
       <r>    9.5137    0.0000 </r>
       <r>    9.5137    0.0000 </r>
       <r>   19.9918    0.0000 </r>
       <r>   21.8674    0.0000 </r>
       <r>   22.9416    0.0000 </r>
      </set>
      <set comment="kpoint 2">
       <r>    1.6530    1.0000 </r>
       <r>    4.5703    1.0000 </r>
       <r>    5.1320    1.0000 </r>
       <r>    9.7053    0.0000 </r>
       <r>   10.3159    0.0000 </r>
       <r>   12.0345    0.0000 </r>
       <r>   19.5840    0.0000 </r>
       <r>   20.0149    0.0000 </r>
       <r>   20.0305    0.0000 </r>
      </set>
      <set comment="kpoint 3">
       <r>    2.0384    1.0000 </r>
       <r>    4.1820    1.0000 </r>
       <r>    6.6334    0.0000 </r>
       <r>    9.8965    0.0000 </r>
       <r>   10.6948    0.0000 </r>
       <r>   14.4885    0.0000 </r>
       <r>   16.2235    0.0000 </r>
       <r>   18.3352    0.0000 </r>
       <r>   19.9996    0.0000 </r>
      </set>
      <set comment="kpoint 4">
       <r>   -1.5301    1.0000 </r>
       <r>    6.4738    0.0000 </r>
       <r>    6.4738    0.0000 </r>
       <r>    6.8125    0.0000 </r>
       <r>    8.7987    0.0000 </r>
       <r>   10.0994    0.0000 </r>
       <r>   19.9937    0.0000 </r>
       <r>   21.7867    0.0000 </r>
       <r>   21.7927    0.0000 </r>
      </set>
      <set comment="kpoint 5">
       <r>    3.2557    1.0000 </r>
       <r>    4.3929    1.0000 </r>
       <r>    5.0197    1.0000 </r>
       <r>   10.2007    0.0000 </r>
       <r>   10.6495    0.0000 </r>
       <r>   15.0918    0.0000 </r>
       <r>   15.7307    0.0000 </r>
       <r>   19.4663    0.0000 </r>
       <r>   19.9984    0.0000 </r>
      </set>
      <set comment="kpoint 6">
       <r>    0.4018    1.0000 </r>
       <r>    5.5231    1.0015 </r>
       <r>    5.6709    0.1193 </r>
       <r>    8.2416    0.0000 </r>
       <r>    8.9964    0.0000 </r>
       <r>   10.5435    0.0000 </r>
       <r>   19.9862    0.0000 </r>
       <r>   20.8007    0.0000 </r>
       <r>   22.8835    0.0000 </r>
      </set>
      <set comment="kpoint 7">
       <r>    1.6706    1.0000 </r>
       <r>    4.6960    1.0000 </r>
       <r>    6.0617    0.0000 </r>
       <r>    9.0751    0.0000 </r>
       <r>   11.0195    0.0000 </r>
       <r>   12.5696    0.0000 </r>
       <r>   17.9536    0.0000 </r>
       <r>   19.3661    0.0000 </r>
       <r>   20.0065    0.0000 </r>
      </set>
      <set comment="kpoint 8">
       <r>    2.2971    1.0000 </r>
       <r>    4.4488    1.0000 </r>
       <r>    5.6456    0.4887 </r>
       <r>    8.3567    0.0000 </r>
       <r>   10.4688    0.0000 </r>
       <r>   12.1305    0.0000 </r>
       <r>   18.6453    0.0000 </r>
       <r>   20.0022    0.0000 </r>
       <r>   22.3722    0.0000 </r>
      </set>
      <set comment="kpoint 9">
       <r>    2.8881    1.0000 </r>
       <r>    4.7313    1.0000 </r>
       <r>    5.0657    1.0000 </r>
       <r>    8.9270    0.0000 </r>
       <r>   11.1488    0.0000 </r>
       <r>   15.3776    0.0000 </r>
       <r>   15.8484    0.0000 </r>
       <r>   19.6940    0.0000 </r>
       <r>   20.0008    0.0000 </r>
      </set>
      <set comment="kpoint 10">
       <r>    4.5612    1.0000 </r>
       <r>    4.5612    1.0000 </r>
       <r>    4.5612    1.0000 </r>
       <r>   10.8833    0.0000 </r>
       <r>   10.8833    0.0000 </r>
       <r>   12.8114    0.0000 </r>
       <r>   18.5754    0.0000 </r>
       <r>   18.5754    0.0000 </r>
       <r>   18.5754    0.0000 </r>
      </set>
      <set comment="kpoint 11">
       <r>    2.0253    1.0000 </r>
       <r>    4.8466    1.0000 </r>
       <r>    7.0438    0.0000 </r>
       <r>    7.0438    0.0000 </r>
       <r>    8.9800    0.0000 </r>
       <r>   10.7551    0.0000 </r>
       <r>   19.9768    0.0000 </r>
       <r>   20.3427    0.0000 </r>
       <r>   24.9766    0.0000 </r>
      </set>
      <set comment="kpoint 12">
       <r>    2.9409    1.0000 </r>
       <r>    3.7782    1.0000 </r>
       <r>    6.9770    0.0000 </r>
       <r>    7.6568    0.0000 </r>
       <r>   12.0520    0.0000 </r>
       <r>   12.1020    0.0000 </r>
       <r>   18.4423    0.0000 </r>
       <r>   20.0036    0.0000 </r>
       <r>   20.7990    0.0000 </r>
      </set>
      <set comment="kpoint 13">
       <r>    3.0924    1.0000 </r>
       <r>    3.0924    1.0000 </r>
       <r>    6.5581    0.0000 </r>
       <r>   10.7573    0.0000 </r>
       <r>   10.7573    0.0000 </r>
       <r>   15.7063    0.0000 </r>
       <r>   16.8006    0.0000 </r>
       <r>   16.8006    0.0000 </r>
       <r>   20.0006    0.0000 </r>
      </set>
      <set comment="kpoint 14">
       <r>    2.3245    1.0000 </r>
       <r>    2.4246    1.0000 </r>
       <r>   10.4151    0.0000 </r>
       <r>   10.4152    0.0000 </r>
       <r>   11.9556    0.0000 </r>
       <r>   12.6912    0.0000 </r>
       <r>   17.1361    0.0000 </r>
       <r>   17.1361    0.0000 </r>
       <r>   19.9909    0.0000 </r>
      </set>
     </set>
    </set>
   </array>
  </eigenvalues>
  <separator name="orbital magnetization" >
   <v name="MAGDIPOLOUT">      0.00000000      0.00000000      0.00000000</v>
  </separator>
  <dos>
   <i name="efermi">      5.64496606 </i>
   <total>
    <array>
     <dimension dim="1">gridpoints</dimension>
     <dimension dim="2">spin</dimension>
     <field>energy</field>
     <field>total</field>
     <field>integrated</field>
     <set>
      <set comment="spin 1">
       <r>    -2.9717     0.0000     0.0000 </r>
       <r>    -2.8741     0.0000     0.0000 </r>
       <r>    -2.7765     0.0000     0.0000 </r>
       <r>    -2.6789     0.0000     0.0000 </r>
       <r>    -2.5813     0.0000     0.0000 </r>
       <r>    -2.4837     0.0000     0.0000 </r>
       <r>    -2.3861     0.0000     0.0000 </r>
       <r>    -2.2885     0.0000     0.0000 </r>
       <r>    -2.1909     0.0000     0.0000 </r>
       <r>    -2.0933     0.0000     0.0000 </r>
       <r>    -1.9957     0.0000     0.0000 </r>
       <r>    -1.8981     0.0000     0.0000 </r>
       <r>    -1.8005     0.0000     0.0000 </r>
       <r>    -1.7029    -0.0101    -0.0010 </r>
       <r>    -1.6053     0.2842     0.0268 </r>
       <r>    -1.5077     0.0106     0.0278 </r>
       <r>    -1.4101    -0.0002     0.0278 </r>
       <r>    -1.3125     0.0000     0.0278 </r>
       <r>    -1.2149     0.0000     0.0278 </r>
       <r>    -1.1173     0.0000     0.0278 </r>
       <r>    -1.0198     0.0000     0.0278 </r>
       <r>    -0.9222     0.0000     0.0278 </r>
       <r>    -0.8246     0.0000     0.0278 </r>
       <r>    -0.7270    -0.0001     0.0278 </r>
       <r>    -0.6294    -0.0050     0.0273 </r>
       <r>    -0.5318     0.3955     0.0659 </r>
       <r>    -0.4342    -0.0109     0.0648 </r>
       <r>    -0.3366     0.0000     0.0648 </r>
       <r>    -0.2390     0.0000     0.0648 </r>
       <r>    -0.1414     0.0000     0.0648 </r>
       <r>    -0.0438     0.0000     0.0648 </r>
       <r>     0.0538     0.0000     0.0648 </r>
       <r>     0.1514    -0.0003     0.0648 </r>
       <r>     0.2490    -0.0062     0.0642 </r>
       <r>     0.3466     1.1811     0.1794 </r>
       <r>     0.4442    -0.0360     0.1759 </r>
       <r>     0.5418    -0.0001     0.1759 </r>
       <r>     0.6394     0.0000     0.1759 </r>
       <r>     0.7370     0.0000     0.1759 </r>
       <r>     0.8346     0.0000     0.1759 </r>
       <r>     0.9322     0.0000     0.1759 </r>
       <r>     1.0298     0.0000     0.1759 </r>
       <r>     1.1274     0.0000     0.1759 </r>
       <r>     1.2250     0.0000     0.1759 </r>
       <r>     1.3226     0.0000     0.1759 </r>
       <r>     1.4202    -0.0016     0.1758 </r>
       <r>     1.5178     0.1137     0.1869 </r>
       <r>     1.6154     2.2306     0.4046 </r>
       <r>     1.7130    -0.0656     0.3982 </r>
       <r>     1.8106    -0.0022     0.3979 </r>
       <r>     1.9082     0.1679     0.4143 </r>
       <r>     2.0058     0.7096     0.4836 </r>
       <r>     2.1034    -0.0411     0.4796 </r>
       <r>     2.2010     0.8043     0.5581 </r>
       <r>     2.2986     0.6640     0.6229 </r>
       <r>     2.3962     0.2689     0.6491 </r>
       <r>     2.4937    -0.0101     0.6481 </r>
       <r>     2.5913     0.0000     0.6481 </r>
       <r>     2.6889    -0.0120     0.6470 </r>
       <r>     2.7865     0.5784     0.7034 </r>
       <r>     2.8841     1.7003     0.8694 </r>
       <r>     2.9817     0.1546     0.8845 </r>
       <r>     3.0793     0.5957     0.9426 </r>
       <r>     3.1769     1.0677     1.0468 </r>
       <r>     3.2745     0.0907     1.0557 </r>
       <r>     3.3721    -0.0010     1.0556 </r>
       <r>     3.4697     0.0000     1.0556 </r>
       <r>     3.5673    -0.0021     1.0554 </r>
       <r>     3.6649     0.1872     1.0736 </r>
       <r>     3.7625     0.9843     1.1697 </r>
       <r>     3.8601    -0.0310     1.1667 </r>
       <r>     3.9577    -0.0015     1.1665 </r>
       <r>     4.0553     0.1262     1.1788 </r>
       <r>     4.1529     0.4573     1.2235 </r>
       <r>     4.2505    -0.0046     1.2230 </r>
       <r>     4.3481     1.6381     1.3829 </r>
       <r>     4.4457     1.0168     1.4821 </r>
       <r>     4.5433     1.0356     1.5832 </r>
       <r>     4.6409     2.0024     1.7786 </r>
       <r>     4.7385     0.3279     1.8106 </r>
       <r>     4.8361     0.2112     1.8313 </r>
       <r>     4.9337     0.9561     1.9246 </r>
       <r>     5.0313     2.0004     2.1198 </r>
       <r>     5.1289     0.4894     2.1676 </r>
       <r>     5.2265    -0.0091     2.1667 </r>
       <r>     5.3241    -0.0156     2.1651 </r>
       <r>     5.4217     0.6806     2.2316 </r>
       <r>     5.5193     1.3990     2.3681 </r>
       <r>     5.6169     2.1535     2.5783 </r>
       <r>     5.7145    -0.0429     2.5741 </r>
       <r>     5.8121    -0.0003     2.5741 </r>
       <r>     5.9097    -0.0365     2.5705 </r>
       <r>     6.0073     1.1798     2.6856 </r>
       <r>     6.1048    -0.0044     2.6852 </r>
       <r>     6.2024    -0.0003     2.6852 </r>
       <r>     6.3000    -0.0193     2.6833 </r>
       <r>     6.3976     0.5353     2.7355 </r>
       <r>     6.4952     0.4642     2.7808 </r>
       <r>     6.5928     0.5570     2.8352 </r>
       <r>     6.6904     0.0506     2.8401 </r>
       <r>     6.7880     0.1980     2.8595 </r>
       <r>     6.8856     0.8346     2.9409 </r>
       <r>     6.9832     0.9009     3.0288 </r>
       <r>     7.0808    -0.0108     3.0278 </r>
       <r>     7.1784    -0.0001     3.0278 </r>
       <r>     7.2760     0.0000     3.0278 </r>
       <r>     7.3736     0.0000     3.0278 </r>
       <r>     7.4712    -0.0216     3.0257 </r>
       <r>     7.5688     0.8330     3.1070 </r>
       <r>     7.6664     0.3314     3.1393 </r>
       <r>     7.7640    -0.0043     3.1389 </r>
       <r>     7.8616     0.0000     3.1389 </r>
       <r>     7.9592     0.0000     3.1389 </r>
       <r>     8.0568    -0.0107     3.1378 </r>
       <r>     8.1544     0.5793     3.1944 </r>
       <r>     8.2520     0.9400     3.2861 </r>
       <r>     8.3496     0.7881     3.3630 </r>
       <r>     8.4472    -0.0261     3.3605 </r>
       <r>     8.5448     0.2622     3.3861 </r>
       <r>     8.6424     0.1191     3.3977 </r>
       <r>     8.7400     0.2097     3.4182 </r>
       <r>     8.8376     0.6622     3.4828 </r>
       <r>     8.9352     1.9569     3.6738 </r>
       <r>     9.0328     1.1757     3.7885 </r>
       <r>     9.1304    -0.0150     3.7871 </r>
       <r>     9.2280    -0.0002     3.7870 </r>
       <r>     9.3256    -0.0024     3.7868 </r>
       <r>     9.4232     0.1954     3.8059 </r>
       <r>     9.5208     0.5750     3.8620 </r>
       <r>     9.6184     0.4355     3.9045 </r>
       <r>     9.7159     0.7050     3.9733 </r>
       <r>     9.8135     0.2481     3.9975 </r>
       <r>     9.9111     0.3157     4.0283 </r>
       <r>    10.0087     0.0410     4.0323 </r>
       <r>    10.1063     0.5191     4.0830 </r>
       <r>    10.2039     0.8976     4.1706 </r>
       <r>    10.3015     1.2797     4.2955 </r>
       <r>    10.3991     1.1771     4.4104 </r>
       <r>    10.4967     1.3093     4.5382 </r>
       <r>    10.5943     1.0941     4.6449 </r>
       <r>    10.6919     1.7494     4.8157 </r>
       <r>    10.7895     0.1151     4.8269 </r>
       <r>    10.8871     0.1290     4.8395 </r>
       <r>    10.9847     1.1430     4.9511 </r>
       <r>    11.0823     0.9675     5.0455 </r>
       <r>    11.1799     0.2003     5.0650 </r>
       <r>    11.2775    -0.0022     5.0648 </r>
       <r>    11.3751     0.0000     5.0648 </r>
       <r>    11.4727     0.0000     5.0648 </r>
       <r>    11.5703     0.0000     5.0648 </r>
       <r>    11.6679     0.0000     5.0648 </r>
       <r>    11.7655    -0.0023     5.0646 </r>
       <r>    11.8631     0.0927     5.0736 </r>
       <r>    11.9607     1.6814     5.2377 </r>
       <r>    12.0583     2.8816     5.5190 </r>
       <r>    12.1559     0.1880     5.5373 </r>
       <r>    12.2535    -0.0028     5.5370 </r>
       <r>    12.3511    -0.0010     5.5369 </r>
       <r>    12.4487     0.0825     5.5450 </r>
       <r>    12.5463     1.1122     5.6535 </r>
       <r>    12.6439     0.2370     5.6767 </r>
       <r>    12.7415     0.0893     5.6854 </r>
       <r>    12.8391    -0.0020     5.6852 </r>
       <r>    12.9367     0.0000     5.6852 </r>
       <r>    13.0343     0.0000     5.6852 </r>
       <r>    13.1319     0.0000     5.6852 </r>
       <r>    13.2294     0.0000     5.6852 </r>
       <r>    13.3270     0.0000     5.6852 </r>
       <r>    13.4246     0.0000     5.6852 </r>
       <r>    13.5222     0.0000     5.6852 </r>
       <r>    13.6198     0.0000     5.6852 </r>
       <r>    13.7174     0.0000     5.6852 </r>
       <r>    13.8150     0.0000     5.6852 </r>
       <r>    13.9126     0.0000     5.6852 </r>
       <r>    14.0102     0.0000     5.6852 </r>
       <r>    14.1078     0.0000     5.6852 </r>
       <r>    14.2054     0.0000     5.6852 </r>
       <r>    14.3030    -0.0043     5.6848 </r>
       <r>    14.4006     0.2580     5.7099 </r>
       <r>    14.4982     0.3220     5.7414 </r>
       <r>    14.5958    -0.0064     5.7407 </r>
       <r>    14.6934     0.0000     5.7407 </r>
       <r>    14.7910     0.0000     5.7407 </r>
       <r>    14.8886    -0.0141     5.7394 </r>
       <r>    14.9862     0.6757     5.8053 </r>
       <r>    15.0838     0.4846     5.8526 </r>
       <r>    15.1814    -0.0122     5.8514 </r>
       <r>    15.2790     0.3394     5.8845 </r>
       <r>    15.3766     0.8247     5.9650 </r>
       <r>    15.4742    -0.0214     5.9629 </r>
       <r>    15.5718    -0.0133     5.9616 </r>
       <r>    15.6694     1.3635     6.0947 </r>
       <r>    15.7670     1.0716     6.1993 </r>
       <r>    15.8646     0.2377     6.2225 </r>
       <r>    15.9622    -0.0028     6.2222 </r>
       <r>    16.0598    -0.0199     6.2203 </r>
       <r>    16.1574     0.5609     6.2750 </r>
       <r>    16.2550     0.0287     6.2778 </r>
       <r>    16.3526    -0.0004     6.2778 </r>
       <r>    16.4502     0.0000     6.2778 </r>
       <r>    16.5478     0.0000     6.2778 </r>
       <r>    16.6454    -0.0255     6.2753 </r>
       <r>    16.7430     0.7823     6.3516 </r>
       <r>    16.8405     0.0024     6.3519 </r>
       <r>    16.9381    -0.0074     6.3512 </r>
       <r>    17.0357     0.3397     6.3843 </r>
       <r>    17.1333     0.2405     6.4078 </r>
       <r>    17.2309    -0.0038     6.4074 </r>
       <r>    17.3285     0.0000     6.4074 </r>
       <r>    17.4261     0.0000     6.4074 </r>
       <r>    17.5237     0.0000     6.4074 </r>
       <r>    17.6213     0.0000     6.4074 </r>
       <r>    17.7189    -0.0002     6.4074 </r>
       <r>    17.8165    -0.0182     6.4056 </r>
       <r>    17.9141     1.1880     6.5216 </r>
       <r>    18.0117    -0.0310     6.5185 </r>
       <r>    18.1093    -0.0008     6.5185 </r>
       <r>    18.2069     0.0608     6.5244 </r>
       <r>    18.3045     0.5077     6.5739 </r>
       <r>    18.4021     1.1656     6.6877 </r>
       <r>    18.4997     0.1323     6.7006 </r>
       <r>    18.5973     1.2831     6.8258 </r>
       <r>    18.6949    -0.0178     6.8241 </r>
       <r>    18.7925    -0.0002     6.8241 </r>
       <r>    18.8901     0.0000     6.8241 </r>
       <r>    18.9877     0.0000     6.8241 </r>
       <r>    19.0853     0.0000     6.8241 </r>
       <r>    19.1829    -0.0201     6.8221 </r>
       <r>    19.2805     0.7960     6.8998 </r>
       <r>    19.3781     0.8885     6.9865 </r>
       <r>    19.4757     0.9038     7.0747 </r>
       <r>    19.5733     0.9730     7.1697 </r>
       <r>    19.6709     1.0498     7.2722 </r>
       <r>    19.7685    -0.0375     7.2685 </r>
       <r>    19.8661    -0.2325     7.2458 </r>
       <r>    19.9637     8.6078     8.0859 </r>
       <r>    20.0613     2.9629     8.3751 </r>
       <r>    20.1589    -0.0517     8.3700 </r>
       <r>    20.2565     0.1667     8.3863 </r>
       <r>    20.3541     0.1233     8.3983 </r>
       <r>    20.4516    -0.0020     8.3981 </r>
       <r>    20.5492    -0.0004     8.3981 </r>
       <r>    20.6468    -0.0392     8.3943 </r>
       <r>    20.7444     2.3642     8.6250 </r>
       <r>    20.8420    -0.0474     8.6204 </r>
       <r>    20.9396    -0.0003     8.6204 </r>
       <r>    21.0372     0.0000     8.6204 </r>
       <r>    21.1348     0.0000     8.6204 </r>
       <r>    21.2324     0.0000     8.6204 </r>
       <r>    21.3300     0.0000     8.6204 </r>
       <r>    21.4276     0.0000     8.6204 </r>
       <r>    21.5252     0.0000     8.6204 </r>
       <r>    21.6228    -0.0184     8.6186 </r>
       <r>    21.7204     0.6218     8.6793 </r>
       <r>    21.8180     0.3582     8.7142 </r>
       <r>    21.9156    -0.0128     8.7130 </r>
       <r>    22.0132     0.0000     8.7130 </r>
       <r>    22.1108     0.0000     8.7130 </r>
       <r>    22.2084    -0.0295     8.7101 </r>
       <r>    22.3060     0.9620     8.8040 </r>
       <r>    22.4036     0.2083     8.8243 </r>
       <r>    22.5012    -0.0024     8.8241 </r>
       <r>    22.5988     0.0000     8.8241 </r>
       <r>    22.6964    -0.0147     8.8226 </r>
       <r>    22.7940     0.6816     8.8892 </r>
       <r>    22.8916     0.8684     8.9739 </r>
       <r>    22.9892    -0.0173     8.9722 </r>
       <r>    23.0868     0.0000     8.9722 </r>
       <r>    23.1844     0.0000     8.9722 </r>
       <r>    23.2820     0.0000     8.9722 </r>
       <r>    23.3796     0.0000     8.9722 </r>
       <r>    23.4772     0.0000     8.9722 </r>
       <r>    23.5748     0.0000     8.9722 </r>
       <r>    23.6724     0.0000     8.9722 </r>
       <r>    23.7700     0.0000     8.9722 </r>
       <r>    23.8676     0.0000     8.9722 </r>
       <r>    23.9651     0.0000     8.9722 </r>
       <r>    24.0627     0.0000     8.9722 </r>
       <r>    24.1603     0.0000     8.9722 </r>
       <r>    24.2579     0.0000     8.9722 </r>
       <r>    24.3555     0.0000     8.9722 </r>
       <r>    24.4531     0.0000     8.9722 </r>
       <r>    24.5507     0.0000     8.9722 </r>
       <r>    24.6483     0.0000     8.9722 </r>
       <r>    24.7459    -0.0002     8.9722 </r>
       <r>    24.8435     0.0114     8.9733 </r>
       <r>    24.9411     0.2834     9.0010 </r>
       <r>    25.0387    -0.0101     9.0000 </r>
       <r>    25.1363     0.0000     9.0000 </r>
       <r>    25.2339     0.0000     9.0000 </r>
       <r>    25.3315     0.0000     9.0000 </r>
       <r>    25.4291     0.0000     9.0000 </r>
       <r>    25.5267     0.0000     9.0000 </r>
       <r>    25.6243     0.0000     9.0000 </r>
       <r>    25.7219     0.0000     9.0000 </r>
       <r>    25.8195     0.0000     9.0000 </r>
       <r>    25.9171     0.0000     9.0000 </r>
       <r>    26.0147     0.0000     9.0000 </r>
       <r>    26.1123     0.0000     9.0000 </r>
       <r>    26.2099     0.0000     9.0000 </r>
       <r>    26.3075     0.0000     9.0000 </r>
      </set>
      <set comment="spin 2">
       <r>    -2.9717     0.0000     0.0000 </r>
       <r>    -2.8741     0.0000     0.0000 </r>
       <r>    -2.7765     0.0000     0.0000 </r>
       <r>    -2.6789     0.0000     0.0000 </r>
       <r>    -2.5813     0.0000     0.0000 </r>
       <r>    -2.4837     0.0000     0.0000 </r>
       <r>    -2.3861     0.0000     0.0000 </r>
       <r>    -2.2885     0.0000     0.0000 </r>
       <r>    -2.1909     0.0000     0.0000 </r>
       <r>    -2.0933     0.0000     0.0000 </r>
       <r>    -1.9957     0.0000     0.0000 </r>
       <r>    -1.8981     0.0000     0.0000 </r>
       <r>    -1.8005     0.0000     0.0000 </r>
       <r>    -1.7029     0.0000     0.0000 </r>
       <r>    -1.6053    -0.0078    -0.0008 </r>
       <r>    -1.5077     0.2468     0.0233 </r>
       <r>    -1.4101     0.0461     0.0278 </r>
       <r>    -1.3125    -0.0005     0.0278 </r>
       <r>    -1.2149     0.0000     0.0278 </r>
       <r>    -1.1173     0.0000     0.0278 </r>
       <r>    -1.0198     0.0000     0.0278 </r>
       <r>    -0.9222     0.0000     0.0278 </r>
       <r>    -0.8246     0.0000     0.0278 </r>
       <r>    -0.7270     0.0000     0.0278 </r>
       <r>    -0.6294     0.0000     0.0278 </r>
       <r>    -0.5318    -0.0132     0.0265 </r>
       <r>    -0.4342     0.3876     0.0643 </r>
       <r>    -0.3366     0.0053     0.0648 </r>
       <r>    -0.2390    -0.0001     0.0648 </r>
       <r>    -0.1414     0.0000     0.0648 </r>
       <r>    -0.0438     0.0000     0.0648 </r>
       <r>     0.0538     0.0000     0.0648 </r>
       <r>     0.1514     0.0000     0.0648 </r>
       <r>     0.2490    -0.0001     0.0648 </r>
       <r>     0.3466    -0.0373     0.0612 </r>
       <r>     0.4442     1.1774     0.1761 </r>
       <r>     0.5418    -0.0013     0.1760 </r>
       <r>     0.6394    -0.0003     0.1759 </r>
       <r>     0.7370     0.0000     0.1759 </r>
       <r>     0.8346     0.0000     0.1759 </r>
       <r>     0.9322     0.0000     0.1759 </r>
       <r>     1.0298     0.0000     0.1759 </r>
       <r>     1.1274     0.0000     0.1759 </r>
       <r>     1.2250     0.0000     0.1759 </r>
       <r>     1.3226     0.0000     0.1759 </r>
       <r>     1.4202     0.0000     0.1759 </r>
       <r>     1.5178    -0.0006     0.1759 </r>
       <r>     1.6154    -0.0103     0.1749 </r>
       <r>     1.7130     2.3293     0.4022 </r>
       <r>     1.8106    -0.0412     0.3982 </r>
       <r>     1.9082    -0.0014     0.3980 </r>
       <r>     2.0058     0.0898     0.4068 </r>
       <r>     2.1034     0.7919     0.4841 </r>
       <r>     2.2010    -0.0387     0.4803 </r>
       <r>     2.2986     0.6424     0.5430 </r>
       <r>     2.3962     0.8379     0.6248 </r>
       <r>     2.4937     0.2486     0.6490 </r>
       <r>     2.5913    -0.0092     0.6481 </r>
       <r>     2.6889     0.0000     0.6481 </r>
       <r>     2.7865    -0.0083     0.6473 </r>
       <r>     2.8841     0.4618     0.6924 </r>
       <r>     2.9817     1.8272     0.8707 </r>
       <r>     3.0793     0.2149     0.8917 </r>
       <r>     3.1769     0.5271     0.9432 </r>
       <r>     3.2745     0.9183     1.0328 </r>
       <r>     3.3721     0.2361     1.0558 </r>
       <r>     3.4697    -0.0027     1.0556 </r>
       <r>     3.5673     0.0000     1.0556 </r>
       <r>     3.6649    -0.0035     1.0552 </r>
       <r>     3.7625     0.2866     1.0832 </r>
       <r>     3.8601     0.8796     1.1690 </r>
       <r>     3.9577    -0.0242     1.1667 </r>
       <r>     4.0553    -0.0006     1.1666 </r>
       <r>     4.1529     0.0505     1.1715 </r>
       <r>     4.2505     0.5377     1.2240 </r>
       <r>     4.3481    -0.0394     1.2202 </r>
       <r>     4.4457     1.7000     1.3861 </r>
       <r>     4.5433     0.7966     1.4638 </r>
       <r>     4.6409     1.2133     1.5823 </r>
       <r>     4.7385     1.8556     1.7634 </r>
       <r>     4.8361     0.5323     1.8153 </r>
       <r>     4.9337     0.1687     1.8318 </r>
       <r>     5.0313     0.8437     1.9141 </r>
       <r>     5.1289     2.0042     2.1097 </r>
       <r>     5.2265     0.5963     2.1679 </r>
       <r>     5.3241    -0.0128     2.1667 </r>
       <r>     5.4217    -0.0083     2.1659 </r>
       <r>     5.5193     0.4784     2.2125 </r>
       <r>     5.6169     1.4353     2.3526 </r>
       <r>     5.7145     2.3137     2.5784 </r>
       <r>     5.8121    -0.0443     2.5741 </r>
       <r>     5.9097    -0.0004     2.5741 </r>
       <r>     6.0073    -0.0365     2.5705 </r>
       <r>     6.1048     1.1799     2.6857 </r>
       <r>     6.2024    -0.0046     2.6852 </r>
       <r>     6.3000    -0.0003     2.6852 </r>
       <r>     6.3976    -0.0152     2.6837 </r>
       <r>     6.4952     0.4734     2.7299 </r>
       <r>     6.5928     0.4796     2.7767 </r>
       <r>     6.6904     0.5994     2.8352 </r>
       <r>     6.7880     0.0194     2.8371 </r>
       <r>     6.8856     0.2390     2.8604 </r>
       <r>     6.9832     0.6753     2.9263 </r>
       <r>     7.0808     1.0312     3.0270 </r>
       <r>     7.1784     0.0085     3.0278 </r>
       <r>     7.2760    -0.0003     3.0278 </r>
       <r>     7.3736     0.0000     3.0278 </r>
       <r>     7.4712     0.0000     3.0278 </r>
       <r>     7.5688    -0.0182     3.0260 </r>
       <r>     7.6664     0.7690     3.1011 </r>
       <r>     7.7640     0.3933     3.1394 </r>
       <r>     7.8616    -0.0056     3.1389 </r>
       <r>     7.9592     0.0000     3.1389 </r>
       <r>     8.0568     0.0000     3.1389 </r>
       <r>     8.1544    -0.0190     3.1370 </r>
       <r>     8.2520     0.7768     3.2129 </r>
       <r>     8.3496     0.8188     3.2928 </r>
       <r>     8.4472     0.7163     3.3627 </r>
       <r>     8.5448    -0.0209     3.3606 </r>
       <r>     8.6424     0.2285     3.3829 </r>
       <r>     8.7400     0.1484     3.3974 </r>
       <r>     8.8376     0.2705     3.4238 </r>
       <r>     8.9352     0.7022     3.4923 </r>
       <r>     9.0328     1.8597     3.6739 </r>
       <r>     9.1304     1.1978     3.7908 </r>
       <r>     9.2280    -0.0380     3.7870 </r>
       <r>     9.3256    -0.0001     3.7870 </r>
       <r>     9.4232    -0.0106     3.7860 </r>
       <r>     9.5208     0.4797     3.8328 </r>
       <r>     9.6184     0.2751     3.8597 </r>
       <r>     9.7159     0.7835     3.9361 </r>
       <r>     9.8135     0.3633     3.9716 </r>
       <r>     9.9111     0.4256     4.0131 </r>
       <r>    10.0087     0.1480     4.0276 </r>
       <r>    10.1063     0.1644     4.0436 </r>
       <r>    10.2039     0.7516     4.1170 </r>
       <r>    10.3015     0.8200     4.1970 </r>
       <r>    10.3991     0.9527     4.2900 </r>
       <r>    10.4967     1.4622     4.4327 </r>
       <r>    10.5943     1.2489     4.5546 </r>
       <r>    10.6919     1.3711     4.6884 </r>
       <r>    10.7895     1.3357     4.8188 </r>
       <r>    10.8871     0.1616     4.8345 </r>
       <r>    10.9847     0.1314     4.8474 </r>
       <r>    11.0823     1.0911     4.9538 </r>
       <r>    11.1799     1.0571     5.0570 </r>
       <r>    11.2775     0.0808     5.0649 </r>
       <r>    11.3751    -0.0009     5.0648 </r>
       <r>    11.4727     0.0000     5.0648 </r>
       <r>    11.5703     0.0000     5.0648 </r>
       <r>    11.6679     0.0000     5.0648 </r>
       <r>    11.7655     0.0000     5.0648 </r>
       <r>    11.8631    -0.0036     5.0645 </r>
       <r>    11.9607     0.1219     5.0764 </r>
       <r>    12.0583     1.7906     5.2511 </r>
       <r>    12.1559     2.8307     5.5274 </r>
       <r>    12.2535     0.1005     5.5372 </r>
       <r>    12.3511    -0.0017     5.5370 </r>
       <r>    12.4487    -0.0019     5.5369 </r>
       <r>    12.5463     0.1710     5.5535 </r>
       <r>    12.6439     0.9962     5.6508 </r>
       <r>    12.7415     0.2620     5.6763 </r>
       <r>    12.8391     0.0809     5.6842 </r>
       <r>    12.9367     0.0098     5.6852 </r>
       <r>    13.0343    -0.0001     5.6852 </r>
       <r>    13.1319     0.0000     5.6852 </r>
       <r>    13.2294     0.0000     5.6852 </r>
       <r>    13.3270     0.0000     5.6852 </r>
       <r>    13.4246     0.0000     5.6852 </r>
       <r>    13.5222     0.0000     5.6852 </r>
       <r>    13.6198     0.0000     5.6852 </r>
       <r>    13.7174     0.0000     5.6852 </r>
       <r>    13.8150     0.0000     5.6852 </r>
       <r>    13.9126     0.0000     5.6852 </r>
       <r>    14.0102     0.0000     5.6852 </r>
       <r>    14.1078     0.0000     5.6852 </r>
       <r>    14.2054     0.0000     5.6852 </r>
       <r>    14.3030     0.0000     5.6852 </r>
       <r>    14.4006    -0.0092     5.6843 </r>
       <r>    14.4982     0.3851     5.7219 </r>
       <r>    14.5958     0.1961     5.7410 </r>
       <r>    14.6934    -0.0028     5.7407 </r>
       <r>    14.7910     0.0000     5.7407 </r>
       <r>    14.8886     0.0000     5.7407 </r>
       <r>    14.9862    -0.0063     5.7401 </r>
       <r>    15.0838     0.4243     5.7815 </r>
       <r>    15.1814     0.7372     5.8535 </r>
       <r>    15.2790    -0.0267     5.8509 </r>
       <r>    15.3766     0.5606     5.9056 </r>
       <r>    15.4742     0.5991     5.9641 </r>
       <r>    15.5718    -0.0115     5.9629 </r>
       <r>    15.6694    -0.0297     5.9600 </r>
       <r>    15.7670     1.5007     6.1065 </r>
       <r>    15.8646     0.9108     6.1954 </r>
       <r>    15.9622     0.2782     6.2226 </r>
       <r>    16.0598    -0.0034     6.2222 </r>
       <r>    16.1574    -0.0194     6.2203 </r>
       <r>    16.2550     0.5504     6.2740 </r>
       <r>    16.3526     0.0388     6.2778 </r>
       <r>    16.4502    -0.0005     6.2778 </r>
       <r>    16.5478     0.0000     6.2778 </r>
       <r>    16.6454     0.0000     6.2778 </r>
       <r>    16.7430    -0.0262     6.2752 </r>
       <r>    16.8405     0.7775     6.3511 </r>
       <r>    16.9381     0.0080     6.3519 </r>
       <r>    17.0357    -0.0047     6.3514 </r>
       <r>    17.1333     0.2626     6.3770 </r>
       <r>    17.2309     0.3174     6.4080 </r>
       <r>    17.3285    -0.0063     6.4074 </r>
       <r>    17.4261     0.0000     6.4074 </r>
       <r>    17.5237     0.0000     6.4074 </r>
       <r>    17.6213     0.0000     6.4074 </r>
       <r>    17.7189     0.0000     6.4074 </r>
       <r>    17.8165    -0.0004     6.4074 </r>
       <r>    17.9141     0.0147     6.4088 </r>
       <r>    18.0117     1.1638     6.5224 </r>
       <r>    18.1093    -0.0396     6.5185 </r>
       <r>    18.2069    -0.0005     6.5185 </r>
       <r>    18.3045     0.0423     6.5226 </r>
       <r>    18.4021     0.5568     6.5769 </r>
       <r>    18.4997     1.1404     6.6882 </r>
       <r>    18.5973     0.1828     6.7061 </r>
       <r>    18.6949     1.2371     6.8268 </r>
       <r>    18.7925    -0.0281     6.8241 </r>
       <r>    18.8901    -0.0001     6.8241 </r>
       <r>    18.9877     0.0000     6.8241 </r>
       <r>    19.0853     0.0000     6.8241 </r>
       <r>    19.1829     0.0000     6.8241 </r>
       <r>    19.2805    -0.0205     6.8221 </r>
       <r>    19.3781     0.7958     6.8997 </r>
       <r>    19.4757     1.1099     7.0081 </r>
       <r>    19.5733     0.7625     7.0825 </r>
       <r>    19.6709     0.9593     7.1761 </r>
       <r>    19.7685     0.9789     7.2716 </r>
       <r>    19.8661    -0.0391     7.2678 </r>
       <r>    19.9637     0.4234     7.3092 </r>
       <r>    20.0613    11.1066     8.3931 </r>
       <r>    20.1589    -0.2316     8.3705 </r>
       <r>    20.2565    -0.0065     8.3699 </r>
       <r>    20.3541     0.2006     8.3895 </r>
       <r>    20.4516     0.0902     8.3983 </r>
       <r>    20.5492    -0.0012     8.3981 </r>
       <r>    20.6468    -0.0002     8.3981 </r>
       <r>    20.7444    -0.0749     8.3908 </r>
       <r>    20.8420     2.3527     8.6204 </r>
       <r>    20.9396    -0.0001     8.6204 </r>
       <r>    21.0372    -0.0006     8.6204 </r>
       <r>    21.1348     0.0000     8.6204 </r>
       <r>    21.2324     0.0000     8.6204 </r>
       <r>    21.3300     0.0000     8.6204 </r>
       <r>    21.4276     0.0000     8.6204 </r>
       <r>    21.5252     0.0000     8.6204 </r>
       <r>    21.6228     0.0000     8.6204 </r>
       <r>    21.7204    -0.0183     8.6186 </r>
       <r>    21.8180     0.5230     8.6696 </r>
       <r>    21.9156     0.4526     8.7138 </r>
       <r>    22.0132    -0.0086     8.7130 </r>
       <r>    22.1108    -0.0001     8.7130 </r>
       <r>    22.2084     0.0000     8.7130 </r>
       <r>    22.3060    -0.0388     8.7092 </r>
       <r>    22.4036     1.0998     8.8165 </r>
       <r>    22.5012     0.0784     8.8242 </r>
       <r>    22.5988    -0.0009     8.8241 </r>
       <r>    22.6964     0.0000     8.8241 </r>
       <r>    22.7940    -0.0169     8.8224 </r>
       <r>    22.8916     0.7297     8.8936 </r>
       <r>    22.9892     0.8187     8.9735 </r>
       <r>    23.0868    -0.0135     8.9722 </r>
       <r>    23.1844    -0.0001     8.9722 </r>
       <r>    23.2820     0.0000     8.9722 </r>
       <r>    23.3796     0.0000     8.9722 </r>
       <r>    23.4772     0.0000     8.9722 </r>
       <r>    23.5748     0.0000     8.9722 </r>
       <r>    23.6724     0.0000     8.9722 </r>
       <r>    23.7700     0.0000     8.9722 </r>
       <r>    23.8676     0.0000     8.9722 </r>
       <r>    23.9651     0.0000     8.9722 </r>
       <r>    24.0627     0.0000     8.9722 </r>
       <r>    24.1603     0.0000     8.9722 </r>
       <r>    24.2579     0.0000     8.9722 </r>
       <r>    24.3555     0.0000     8.9722 </r>
       <r>    24.4531     0.0000     8.9722 </r>
       <r>    24.5507     0.0000     8.9722 </r>
       <r>    24.6483     0.0000     8.9722 </r>
       <r>    24.7459     0.0000     8.9722 </r>
       <r>    24.8435    -0.0002     8.9722 </r>
       <r>    24.9411     0.0106     8.9732 </r>
       <r>    25.0387     0.2842     9.0010 </r>
       <r>    25.1363    -0.0101     9.0000 </r>
       <r>    25.2339     0.0000     9.0000 </r>
       <r>    25.3315     0.0000     9.0000 </r>
       <r>    25.4291     0.0000     9.0000 </r>
       <r>    25.5267     0.0000     9.0000 </r>
       <r>    25.6243     0.0000     9.0000 </r>
       <r>    25.7219     0.0000     9.0000 </r>
       <r>    25.8195     0.0000     9.0000 </r>
       <r>    25.9171     0.0000     9.0000 </r>
       <r>    26.0147     0.0000     9.0000 </r>
       <r>    26.1123     0.0000     9.0000 </r>
       <r>    26.2099     0.0000     9.0000 </r>
       <r>    26.3075     0.0000     9.0000 </r>
      </set>
     </set>
    </array>
   </total>
   <partial>
    <array>
     <dimension dim="1">gridpoints</dimension>
     <dimension dim="2">spin</dimension>
     <dimension dim="3">ion</dimension>
     <field>energy</field>
     <field>  s</field>
     <field> py</field>
     <field> pz</field>
     <field> px</field>
     <field>dxy</field>
     <field>dyz</field>
     <field>dz2</field>
     <field>dxz</field>
     <field>dx2</field>
     <set>
      <set comment="ion 1">
       <set comment="spin 1">
        <r>    -2.9717     0.0000     0.0000     0.0000     0.0000     0.0000     0.0000     0.0000     0.0000     0.0000 </r>
        <r>    -2.8741     0.0000     0.0000     0.0000     0.0000     0.0000     0.0000     0.0000     0.0000     0.0000 </r>
        <r>    -2.7765     0.0000     0.0000     0.0000     0.0000     0.0000     0.0000     0.0000     0.0000     0.0000 </r>
        <r>    -2.6789     0.0000     0.0000     0.0000     0.0000     0.0000     0.0000     0.0000     0.0000     0.0000 </r>
        <r>    -2.5813     0.0000     0.0000     0.0000     0.0000     0.0000     0.0000     0.0000     0.0000     0.0000 </r>
        <r>    -2.4837     0.0000     0.0000     0.0000     0.0000     0.0000     0.0000     0.0000     0.0000     0.0000 </r>
        <r>    -2.3861     0.0000     0.0000     0.0000     0.0000     0.0000     0.0000     0.0000     0.0000     0.0000 </r>
        <r>    -2.2885     0.0000     0.0000     0.0000     0.0000     0.0000     0.0000     0.0000     0.0000     0.0000 </r>
        <r>    -2.1909     0.0000     0.0000     0.0000     0.0000     0.0000     0.0000     0.0000     0.0000     0.0000 </r>
        <r>    -2.0933     0.0000     0.0000     0.0000     0.0000     0.0000     0.0000     0.0000     0.0000     0.0000 </r>
        <r>    -1.9957     0.0000     0.0000     0.0000     0.0000     0.0000     0.0000     0.0000     0.0000     0.0000 </r>
        <r>    -1.8981     0.0000     0.0000     0.0000     0.0000     0.0000     0.0000     0.0000     0.0000     0.0000 </r>
        <r>    -1.8005     0.0000     0.0000     0.0000     0.0000     0.0000     0.0000     0.0000     0.0000     0.0000 </r>
        <r>    -1.7029    -0.0083     0.0000     0.0000    -0.0005     0.0000     0.0000     0.0000     0.0000     0.0000 </r>
        <r>    -1.6053     0.2336     0.0000     0.0000     0.0130     0.0000     0.0000     0.0001     0.0000     0.0004 </r>
        <r>    -1.5077     0.0087     0.0000     0.0000     0.0005     0.0000     0.0000     0.0000     0.0000     0.0000 </r>
        <r>    -1.4101    -0.0001     0.0000     0.0000     0.0000     0.0000     0.0000     0.0000     0.0000     0.0000 </r>
        <r>    -1.3125     0.0000     0.0000     0.0000     0.0000     0.0000     0.0000     0.0000     0.0000     0.0000 </r>
        <r>    -1.2149     0.0000     0.0000     0.0000     0.0000     0.0000     0.0000     0.0000     0.0000     0.0000 </r>
        <r>    -1.1173     0.0000     0.0000     0.0000     0.0000     0.0000     0.0000     0.0000     0.0000     0.0000 </r>
        <r>    -1.0198     0.0000     0.0000     0.0000     0.0000     0.0000     0.0000     0.0000     0.0000     0.0000 </r>
        <r>    -0.9222     0.0000     0.0000     0.0000     0.0000     0.0000     0.0000     0.0000     0.0000     0.0000 </r>
        <r>    -0.8246     0.0000     0.0000     0.0000     0.0000     0.0000     0.0000     0.0000     0.0000     0.0000 </r>
        <r>    -0.7270    -0.0001     0.0000     0.0000     0.0000     0.0000     0.0000     0.0000     0.0000     0.0000 </r>
        <r>    -0.6294    -0.0038    -0.0002    -0.0002    -0.0002     0.0000     0.0000     0.0000     0.0000     0.0000 </r>
        <r>    -0.5318     0.2960     0.0152     0.0152     0.0152     0.0035     0.0035     0.0000     0.0035     0.0000 </r>
        <r>    -0.4342    -0.0081    -0.0004    -0.0004    -0.0004    -0.0001    -0.0001     0.0000    -0.0001     0.0000 </r>
        <r>    -0.3366     0.0000     0.0000     0.0000     0.0000     0.0000     0.0000     0.0000     0.0000     0.0000 </r>
        <r>    -0.2390     0.0000     0.0000     0.0000     0.0000     0.0000     0.0000     0.0000     0.0000     0.0000 </r>
        <r>    -0.1414     0.0000     0.0000     0.0000     0.0000     0.0000     0.0000     0.0000     0.0000     0.0000 </r>
        <r>    -0.0438     0.0000     0.0000     0.0000     0.0000     0.0000     0.0000     0.0000     0.0000     0.0000 </r>
        <r>     0.0538     0.0000     0.0000     0.0000     0.0000     0.0000     0.0000     0.0000     0.0000     0.0000 </r>
        <r>     0.1514    -0.0002     0.0000     0.0000     0.0000     0.0000     0.0000     0.0000     0.0000     0.0000 </r>
        <r>     0.2490    -0.0041    -0.0001     0.0000    -0.0008    -0.0004     0.0000    -0.0001     0.0000    -0.0001 </r>
        <r>     0.3466     0.7731     0.0283     0.0000     0.1610     0.0728     0.0000     0.0257     0.0000     0.0125 </r>
        <r>     0.4442    -0.0236    -0.0009     0.0000    -0.0049    -0.0022     0.0000    -0.0008     0.0000    -0.0004 </r>
        <r>     0.5418    -0.0001     0.0000     0.0000     0.0000     0.0000     0.0000     0.0000     0.0000     0.0000 </r>
        <r>     0.6394     0.0000     0.0000     0.0000     0.0000     0.0000     0.0000     0.0000     0.0000     0.0000 </r>
        <r>     0.7370     0.0000     0.0000     0.0000     0.0000     0.0000     0.0000     0.0000     0.0000     0.0000 </r>
        <r>     0.8346     0.0000     0.0000     0.0000     0.0000     0.0000     0.0000     0.0000     0.0000     0.0000 </r>
        <r>     0.9322     0.0000     0.0000     0.0000     0.0000     0.0000     0.0000     0.0000     0.0000     0.0000 </r>
        <r>     1.0298     0.0000     0.0000     0.0000     0.0000     0.0000     0.0000     0.0000     0.0000     0.0000 </r>
        <r>     1.1274     0.0000     0.0000     0.0000     0.0000     0.0000     0.0000     0.0000     0.0000     0.0000 </r>
        <r>     1.2250     0.0000     0.0000     0.0000     0.0000     0.0000     0.0000     0.0000     0.0000     0.0000 </r>
        <r>     1.3226     0.0000     0.0000     0.0000     0.0000     0.0000     0.0000     0.0000     0.0000     0.0000 </r>
        <r>     1.4202    -0.0008    -0.0001    -0.0001    -0.0001    -0.0001    -0.0003    -0.0001     0.0000    -0.0001 </r>
        <r>     1.5178     0.0580     0.0079     0.0079     0.0046    -0.0066     0.0310    -0.0022     0.0006     0.0058 </r>
        <r>     1.6154     0.8858     0.0623     0.0618     0.1000     0.4580     0.2437     0.2719     0.0051     0.0489 </r>
        <r>     1.7130    -0.0268    -0.0021    -0.0021    -0.0029    -0.0118    -0.0082    -0.0071    -0.0002    -0.0016 </r>
        <r>     1.8106    -0.0008     0.0000     0.0000    -0.0004     0.0000    -0.0004    -0.0001     0.0000    -0.0003 </r>
        <r>     1.9082     0.0598     0.0000     0.0000     0.0287     0.0000     0.0401     0.0078     0.0000     0.0233 </r>
        <r>     2.0058     0.2224     0.0000     0.0000     0.0838     0.0000     0.2457     0.0336     0.0000     0.1008 </r>
        <r>     2.1034    -0.0143    -0.0002    -0.0002    -0.0056    -0.0021    -0.0082    -0.0017    -0.0021    -0.0049 </r>
        <r>     2.2010     0.3161     0.0090     0.0090     0.1356     0.0873     0.0081     0.0336     0.0873     0.0744 </r>
        <r>     2.2986     0.1492     0.0043     0.0043     0.0646     0.0412     0.0038     0.2061     0.0412     0.1047 </r>
        <r>     2.3962    -0.0004    -0.0001    -0.0001     0.0162    -0.0006    -0.0001     0.0536    -0.0006     0.1792 </r>
        <r>     2.4937    -0.0001     0.0000     0.0000    -0.0006     0.0000     0.0000    -0.0022     0.0000    -0.0064 </r>
        <r>     2.5913     0.0000     0.0000     0.0000     0.0000     0.0000     0.0000     0.0000     0.0000     0.0000 </r>
        <r>     2.6889    -0.0022    -0.0003    -0.0004    -0.0003    -0.0044    -0.0003    -0.0033    -0.0003     0.0000 </r>
        <r>     2.7865     0.1084     0.0143     0.0188     0.0096     0.2239     0.0176     0.1498     0.0176    -0.0015 </r>
        <r>     2.8841     0.2258     0.0188     0.0164     0.1563     0.3196     0.0154     0.7776     0.0154     0.0425 </r>
        <r>     2.9817     0.0003     0.0043     0.0042     0.0065    -0.0007     0.0006     0.0650     0.0006     0.0583 </r>
        <r>     3.0793    -0.0072     0.0175     0.0193     0.0174    -0.0003    -0.0069     0.2496    -0.0069     0.2511 </r>
        <r>     3.1769     0.2046     0.0570     0.0043     0.0570     0.1149     0.3046     0.0284     0.3046    -0.0076 </r>
        <r>     3.2745     0.0171     0.0048     0.0004     0.0048     0.0096     0.0254     0.0030     0.0254     0.0000 </r>
        <r>     3.3721    -0.0002    -0.0001     0.0000    -0.0001    -0.0001    -0.0003     0.0000    -0.0003     0.0000 </r>
        <r>     3.4697     0.0000     0.0000     0.0000     0.0000     0.0000     0.0000     0.0000     0.0000     0.0000 </r>
        <r>     3.5673     0.0000    -0.0001     0.0000    -0.0002     0.0000     0.0000    -0.0003     0.0000    -0.0012 </r>
        <r>     3.6649     0.0040     0.0107     0.0000     0.0185     0.0004     0.0000     0.0241     0.0000     0.1088 </r>
        <r>     3.7625     0.0208     0.0565     0.0000     0.0975     0.0023     0.0000     0.1264     0.0000     0.5719 </r>
        <r>     3.8601    -0.0007    -0.0018     0.0000    -0.0031    -0.0001     0.0000    -0.0040     0.0000    -0.0180 </r>
        <r>     3.9577     0.0000     0.0000     0.0000     0.0000    -0.0007     0.0000     0.0000    -0.0007     0.0000 </r>
        <r>     4.0553     0.0000     0.0026     0.0026     0.0000     0.0631     0.0000     0.0000     0.0631     0.0000 </r>
        <r>     4.1529     0.0000     0.0094     0.0094     0.0000     0.2286    -0.0001     0.0000     0.2285    -0.0001 </r>
        <r>     4.2505     0.0000     0.0012    -0.0007     0.0019    -0.0078     0.0047    -0.0028    -0.0031     0.0017 </r>
        <r>     4.3481     0.0000     0.1599     0.0254     0.1343     0.0759     0.3352     0.1741     0.4114     0.2424 </r>
        <r>     4.4457     0.0000     0.0466     0.0512     0.0054     0.2650     0.0114     0.2513     0.2534     0.0775 </r>
        <r>     4.5433    -0.0005     0.0334     0.0323     0.0183     0.4675     0.0309     0.0071     0.4555     0.0035 </r>
        <r>     4.6409     0.0188     0.0110     0.0622     0.0114    -0.0061     0.8704     0.1306     0.9191    -0.0003 </r>
        <r>     4.7385     0.0070     0.0044     0.0174     0.0044     0.0025     0.0942     0.0792     0.0923     0.0102 </r>
        <r>     4.8361    -0.0014    -0.0010    -0.0088    -0.0010    -0.0151    -0.0015     0.1526    -0.0015     0.0510 </r>
        <r>     4.9337     0.0429     0.0329     0.2830     0.0343     0.5016    -0.0018     0.0138     0.0009     0.0102 </r>
        <r>     5.0313     0.0386     0.2964     0.1439     0.2263     0.1745     0.2441     0.0276     0.1025     0.5792 </r>
        <r>     5.1289     0.0240     0.0577     0.0644    -0.0019     0.0461     0.1659     0.0196     0.0459     0.0410 </r>
        <r>     5.2265    -0.0004    -0.0011    -0.0011    -0.0001    -0.0008    -0.0029    -0.0003    -0.0008    -0.0010 </r>
        <r>     5.3241     0.0000     0.0000    -0.0002     0.0000     0.0000    -0.0063     0.0000    -0.0094     0.0000 </r>
        <r>     5.4217     0.0000    -0.0003     0.0093    -0.0005    -0.0088     0.2797    -0.0008     0.4217    -0.0008 </r>
        <r>     5.5193     0.0014     0.0086     0.0171     0.0306     0.2547     0.5165     0.0148     0.5451     0.0246 </r>
        <r>     5.6169     0.0231     0.1079     0.0232     0.1649     0.7721     0.4285     0.2950     0.1577     0.0729 </r>
        <r>     5.7145    -0.0004    -0.0017    -0.0007    -0.0041    -0.0118    -0.0130    -0.0035    -0.0048    -0.0012 </r>
        <r>     5.8121     0.0000     0.0000     0.0000     0.0000    -0.0001     0.0000    -0.0001     0.0000     0.0000 </r>
        <r>     5.9097    -0.0017    -0.0091     0.0000    -0.0093    -0.0013     0.0000    -0.0041     0.0000    -0.0067 </r>
        <r>     6.0073     0.0562     0.2948     0.0000     0.2989     0.0415     0.0000     0.1311     0.0000     0.2154 </r>
        <r>     6.1048    -0.0002    -0.0011     0.0000    -0.0011    -0.0002     0.0000    -0.0005     0.0000    -0.0008 </r>
        <r>     6.2024     0.0000    -0.0001     0.0000    -0.0001     0.0000     0.0000     0.0000     0.0000    -0.0001 </r>
        <r>     6.3000     0.0000    -0.0001    -0.0001     0.0000    -0.0098     0.0000     0.0000    -0.0098     0.0000 </r>
        <r>     6.3976    -0.0016     0.0036     0.0036    -0.0004     0.2743    -0.0026     0.0000     0.2743     0.0000 </r>
        <r>     6.4952     0.0571     0.0236     0.0236     0.0136     0.1153     0.0914     0.0000     0.1153     0.0000 </r>
        <r>     6.5928    -0.0006     0.1997     0.1997    -0.0001     0.0528    -0.0019     0.0000     0.0528     0.0000 </r>
        <r>     6.6904     0.0000    -0.0071    -0.0071     0.0000    -0.0019     0.0740     0.0000    -0.0019     0.0000 </r>
        <r>     6.7880     0.0000     0.0000    -0.0024     0.0000     0.0000     0.2239     0.0000    -0.0122     0.0000 </r>
        <r>     6.8856     0.0000    -0.0010     0.0890     0.0000    -0.0070     0.2763     0.0000     0.4473     0.0000 </r>
        <r>     6.9832     0.0000     0.0347     0.0671     0.0000     0.2512     0.1015     0.0000     0.4144     0.0000 </r>
        <r>     7.0808     0.0000    -0.0004    -0.0008     0.0000    -0.0029    -0.0013     0.0000    -0.0050     0.0000 </r>
        <r>     7.1784     0.0000     0.0000     0.0000     0.0000     0.0000     0.0000     0.0000     0.0000     0.0000 </r>
        <r>     7.2760     0.0000     0.0000     0.0000     0.0000     0.0000     0.0000     0.0000     0.0000     0.0000 </r>
        <r>     7.3736     0.0000     0.0000     0.0000     0.0000     0.0000     0.0000     0.0000     0.0000     0.0000 </r>
        <r>     7.4712    -0.0026    -0.0018     0.0000     0.0000    -0.0109     0.0000    -0.0038     0.0000    -0.0005 </r>
        <r>     7.5688     0.1006     0.0704     0.0000     0.0012     0.4225     0.0000     0.1473     0.0000     0.0208 </r>
        <r>     7.6664     0.0400     0.0280     0.0000     0.0005     0.1681     0.0000     0.0586     0.0000     0.0083 </r>
        <r>     7.7640    -0.0005    -0.0004     0.0000     0.0000    -0.0022     0.0000    -0.0008     0.0000    -0.0001 </r>
        <r>     7.8616     0.0000     0.0000     0.0000     0.0000     0.0000     0.0000     0.0000     0.0000     0.0000 </r>
        <r>     7.9592     0.0000     0.0000     0.0000     0.0000     0.0000     0.0000     0.0000     0.0000     0.0000 </r>
        <r>     8.0568     0.0000    -0.0001     0.0000    -0.0001    -0.0036     0.0000    -0.0043     0.0000    -0.0015 </r>
        <r>     8.1544     0.0001     0.0068    -0.0001     0.0069     0.1958     0.0000     0.2340    -0.0013     0.0837 </r>
        <r>     8.2520     0.0001     0.0153     0.0085     0.0068     0.2897     0.0000     0.3277     0.0956     0.1148 </r>
        <r>     8.3496     0.0000     0.0184     0.0186    -0.0001     0.2057     0.0000     0.2060     0.2093     0.0686 </r>
        <r>     8.4472     0.0000    -0.0006    -0.0006    -0.0001    -0.0071    -0.0020    -0.0052    -0.0071    -0.0017 </r>
        <r>     8.5448     0.0007     0.0061     0.0061     0.0061     0.0806     0.0806     0.0000     0.0806     0.0000 </r>
        <r>     8.6424     0.0003     0.0029     0.0029     0.0029     0.0386     0.0386    -0.0041     0.0386    -0.0014 </r>
        <r>     8.7400    -0.0008    -0.0001    -0.0003    -0.0001    -0.0037    -0.0016     0.1389    -0.0015     0.0480 </r>
        <r>     8.8376     0.0427     0.0048     0.0091     0.0048     0.1629     0.0254     0.3045     0.0337     0.0145 </r>
        <r>     8.9352     0.0346     0.0030     0.0633     0.0026     0.1261     1.0069     0.2001     0.4362    -0.0002 </r>
        <r>     9.0328     0.0388     0.0368     0.0002     0.0499     0.3547    -0.0051     0.6199     0.0021     0.0000 </r>
        <r>     9.1304    -0.0005    -0.0005     0.0000    -0.0006    -0.0044    -0.0002    -0.0077    -0.0001     0.0000 </r>
        <r>     9.2280     0.0000     0.0000     0.0000     0.0000    -0.0001     0.0000    -0.0001     0.0000     0.0000 </r>
        <r>     9.3256     0.0000     0.0000     0.0000     0.0000    -0.0001    -0.0001    -0.0010    -0.0001    -0.0010 </r>
        <r>     9.4232     0.0000     0.0000     0.0000     0.0000     0.0056     0.0056     0.0800     0.0056     0.0800 </r>
        <r>     9.5208     0.0000     0.0000     0.0000     0.0000     0.0164     0.0151     0.2371     0.0164     0.2348 </r>
        <r>     9.6184     0.0029     0.0012     0.0012     0.0007     0.0099     0.0950     0.0699     0.0099     0.2227 </r>
        <r>     9.7159     0.0042     0.0020     0.0020     0.0011     0.0163     0.1492     0.1193     0.0163     0.3578 </r>
        <r>     9.8135     0.0175     0.0000     0.0000     0.0001    -0.0004     0.0432     0.0455    -0.0004     0.1364 </r>
        <r>     9.9111     0.0211     0.0000     0.0000     0.0001     0.0000     0.0558     0.0575     0.0000     0.1726 </r>
        <r>    10.0087    -0.0003     0.0000     0.0000     0.0001     0.0000    -0.0014     0.0104    -0.0003     0.0288 </r>
        <r>    10.1063     0.0004     0.0013     0.0000     0.0017     0.0000     0.0286     0.0551     0.0286     0.3724 </r>
        <r>    10.2039     0.0000     0.0040    -0.0002     0.0042    -0.0004     0.0916     0.0103     0.0912     0.6601 </r>
        <r>    10.3015    -0.0019     0.0197     0.0198    -0.0002     0.0790    -0.0061     0.7728     0.0764     0.2301 </r>
        <r>    10.3991     0.0720     0.0496     0.0496     0.0030     0.1754     0.1357     0.0979     0.1758     0.3608 </r>
        <r>    10.4967     0.0469    -0.0005    -0.0007     0.0059     0.0218     0.0534     0.2285     0.0082     0.8826 </r>
        <r>    10.5943     0.0275    -0.0017     0.0006    -0.0012     0.0082     0.0116     0.8955     0.0121     0.1171 </r>
[...]
       </set>
       <set comment="band 6">
        <r>  0.4091  0.0516  0.0516  0.0516  0.1005  0.1005  0.0000  0.1005  0.0000 </r>
       </set>
       <set comment="band 7">
        <r>  0.0000  0.2942  0.0000  0.2942  0.0000  0.1655  0.0000  0.1655  0.0729 </r>
       </set>
       <set comment="band 8">
        <r>  0.0000  0.0981  0.3922  0.0981  0.2207  0.0552  0.0729  0.0552  0.0000 </r>
       </set>
       <set comment="band 9">
        <r> 43.8290  0.0002  0.0002  0.0002  0.0001  0.0001  0.0000  0.0001  0.0000 </r>
       </set>
      </set>
      <set comment="kpoint 14">
       <set comment="band 1">
        <r>  0.0000  0.0000  0.0000  0.0000  0.0000  0.0000  0.6868  0.0000  0.2289 </r>
       </set>
       <set comment="band 2">
        <r>  0.0057  0.0000  0.0000  0.0602  0.0000  0.0000  0.2135  0.0000  0.6405 </r>
       </set>
       <set comment="band 3">
        <r>  0.0000  0.1151  0.1151  0.0000  0.3481  0.0000  0.0000  0.3481  0.0000 </r>
       </set>
       <set comment="band 4">
        <r>  0.0000  0.1151  0.1151  0.0000  0.3481  0.0000  0.0000  0.3481  0.0000 </r>
       </set>
       <set comment="band 5">
        <r>  0.0000  0.0000  0.0000  0.0000  0.0000  0.9443  0.0000  0.0000  0.0000 </r>
       </set>
       <set comment="band 6">
        <r>  0.2544  0.0000  0.0000  0.5768  0.0000  0.0000  0.0155  0.0000  0.0466 </r>
       </set>
       <set comment="band 7">
        <r>  0.0000  0.3140  0.3140  0.0000  0.1572  0.0000  0.0000  0.1572  0.0000 </r>
       </set>
       <set comment="band 8">
        <r>  0.0000  0.3140  0.3140  0.0000  0.1572  0.0000  0.0000  0.1572  0.0000 </r>
       </set>
       <set comment="band 9">
        <r> 43.1328  0.0000  0.0000  0.0016  0.0000  0.0000  0.0000  0.0000  0.0001 </r>
       </set>
      </set>
     </set>
     <set comment="spin2">
      <set comment="kpoint 1">
       <set comment="band 1">
        <r>  0.7469  0.0385  0.0385  0.0385  0.0088  0.0088  0.0000  0.0088  0.0000 </r>
       </set>
       <set comment="band 2">
        <r>  0.0000  0.0069  0.0143  0.0014  0.5887  0.0562  0.0536  0.2815  0.0026 </r>
       </set>
       <set comment="band 3">
        <r>  0.0000  0.0082  0.0007  0.0137  0.0289  0.5614  0.0026  0.3361  0.0536 </r>
       </set>
       <set comment="band 4">
        <r>  0.0027  0.0232  0.0232  0.0232  0.3076  0.3076  0.0000  0.3076  0.0000 </r>
       </set>
       <set comment="band 5">
        <r>  0.0000  0.0001  0.0000  0.0002  0.0027  0.0522  0.0383  0.0313  0.7806 </r>
       </set>
       <set comment="band 6">
        <r>  0.0000  0.0001  0.0002  0.0000  0.0548  0.0052  0.7805  0.0262  0.0383 </r>
       </set>
       <set comment="band 7">
        <r> 43.7699  0.0001  0.0001  0.0001  0.0000  0.0000  0.0000  0.0000  0.0000 </r>
       </set>
       <set comment="band 8">
        <r>  0.0000  0.0000  0.0000  0.0000  0.0000  0.0000  0.0000  0.0000  0.0000 </r>
       </set>
       <set comment="band 9">
        <r>  0.0000  0.0349  0.0030  0.0584  0.0029  0.0557  0.0095  0.0334  0.1941 </r>
       </set>
      </set>
      <set comment="kpoint 2">
       <set comment="band 1">
        <r>  0.4817  0.0593  0.0593  0.0413  0.0049  0.2336  0.0148  0.0049  0.0445 </r>
       </set>
       <set comment="band 2">
        <r>  0.0000  0.0178  0.0178  0.0000  0.4790  0.0000  0.0178  0.4790  0.0059 </r>
       </set>
       <set comment="band 3">
        <r>  0.0453  0.1224  0.1224  0.0106  0.0891  0.3136  0.0371  0.0891  0.1114 </r>
       </set>
       <set comment="band 4">
        <r>  0.0063  0.0028  0.0028  0.0016  0.0231  0.2127  0.1690  0.0231  0.5069 </r>
       </set>
       <set comment="band 5">
        <r>  0.0000  0.0007  0.0007  0.0000  0.0192  0.0000  0.6689  0.0192  0.2230 </r>
       </set>
       <set comment="band 6">
        <r>  0.0020  0.0549  0.0549  0.0608  0.3350  0.1083  0.0002  0.3350  0.0005 </r>
       </set>
       <set comment="band 7">
        <r>  2.2787  0.1211  0.1211  0.0133  0.0070  0.2057  0.0112  0.0070  0.0335 </r>
       </set>
       <set comment="band 8">
        <r>  0.0000  0.1079  0.1079  0.0000  0.0295  0.0000  0.0653  0.0295  0.0218 </r>
       </set>
       <set comment="band 9">
        <r> 41.9966  0.0102  0.0102  0.0006  0.0005  0.0192  0.0013  0.0005  0.0039 </r>
       </set>
      </set>
      <set comment="kpoint 3">
       <set comment="band 1">
        <r>  0.2560  0.0000  0.0000  0.0485  0.0000  0.4865  0.0489  0.0000  0.1468 </r>
       </set>
       <set comment="band 2">
        <r>  0.0000  0.0206  0.0206  0.0000  0.4993  0.0000  0.0000  0.4993  0.0000 </r>
       </set>
       <set comment="band 3">
        <r>  0.0000  0.3551  0.3551  0.0000  0.0961  0.0000  0.0000  0.0961  0.0000 </r>
       </set>
       <set comment="band 4">
        <r>  0.0665  0.0000  0.0000  0.0003  0.0000  0.1774  0.1822  0.0000  0.5465 </r>
       </set>
       <set comment="band 5">
        <r>  0.0000  0.0000  0.0000  0.0000  0.0000  0.0000  0.7349  0.0000  0.2450 </r>
       </set>
       <set comment="band 6">
        <r>  0.0000  0.0652  0.0652  0.0000  0.4094  0.0000  0.0000  0.4094  0.0000 </r>
       </set>
       <set comment="band 7">
        <r>  0.5000  0.0000  0.0000  0.0544  0.0000  0.3460  0.0017  0.0000  0.0051 </r>
       </set>
       <set comment="band 8">
        <r>  0.0000  0.1160  0.1160  0.0000  0.0332  0.0000  0.0000  0.0332  0.0000 </r>
       </set>
       <set comment="band 9">
        <r> 44.0602  0.0000  0.0000  0.0001  0.0000  0.0005  0.0000  0.0000  0.0001 </r>
       </set>
      </set>
      <set comment="kpoint 4">
       <set comment="band 1">
        <r>  0.8205  0.0000  0.0000  0.0458  0.0000  0.0000  0.0005  0.0000  0.0014 </r>
       </set>
       <set comment="band 2">
        <r>  0.0000  0.0074  0.0074  0.0000  0.5060  0.0000  0.0000  0.5067  0.0000 </r>
       </set>
       <set comment="band 3">
        <r>  0.0000  0.0074  0.0074  0.0000  0.5067  0.0000  0.0000  0.5060  0.0000 </r>
       </set>
       <set comment="band 4">
        <r>  0.0000  0.0000  0.0000  0.0000  0.0000  1.0474  0.0000  0.0000  0.0000 </r>
       </set>
       <set comment="band 5">
        <r>  0.0000  0.0000  0.0000  0.0000  0.0000  0.0000  0.6433  0.0000  0.2144 </r>
       </set>
       <set comment="band 6">
        <r>  0.0015  0.0000  0.0000  0.0016  0.0000  0.0000  0.2289  0.0000  0.6868 </r>
       </set>
       <set comment="band 7">
        <r> 43.8338  0.0000  0.0000  0.0000  0.0000  0.0000  0.0000  0.0000  0.0000 </r>
       </set>
       <set comment="band 8">
        <r>  0.0000  0.0000  0.0000  0.0000  0.0000  0.0000  0.1090  0.0000  0.0363 </r>
       </set>
       <set comment="band 9">
        <r>  0.0000  0.0000  0.0000  0.0000  0.0166  0.0000  0.0000  0.0214  0.0000 </r>
       </set>
      </set>
      <set comment="kpoint 5">
       <set comment="band 1">
        <r>  0.1876  0.0530  0.0045  0.0530  0.1055  0.2803  0.0334  0.2803  0.0000 </r>
       </set>
       <set comment="band 2">
        <r>  0.0000  0.1154  0.0000  0.1154  0.0000  0.2881  0.0000  0.2881  0.1597 </r>
       </set>
       <set comment="band 3">
        <r>  0.0456  0.0305  0.3002  0.0305  0.5315  0.0009  0.0203  0.0009  0.0000 </r>
       </set>
       <set comment="band 4">
        <r>  0.0000  0.0048  0.0000  0.0048  0.0000  0.1034  0.0000  0.1034  0.7430 </r>
       </set>
       <set comment="band 5">
        <r>  0.0279  0.0001  0.0028  0.0001  0.0130  0.0195  0.8980  0.0195  0.0000 </r>
       </set>
       <set comment="band 6">
        <r>  0.6076  0.0555  0.0325  0.0555  0.0002  0.0724  0.0031  0.0724  0.0000 </r>
       </set>
       <set comment="band 7">
        <r>  0.0040  0.0578  0.1541  0.0578  0.3618  0.1341  0.0271  0.1341  0.0000 </r>
       </set>
       <set comment="band 8">
        <r>  0.0000  0.1723  0.0000  0.1723  0.0000  0.1644  0.0000  0.1644  0.1347 </r>
       </set>
       <set comment="band 9">
        <r> 43.9944  0.0000  0.0001  0.0000  0.0000  0.0002  0.0000  0.0002  0.0000 </r>
       </set>
      </set>
      <set comment="kpoint 6">
       <set comment="band 1">
        <r>  0.6531  0.0240  0.0000  0.1363  0.0615  0.0000  0.0219  0.0000  0.0106 </r>
       </set>
       <set comment="band 2">
        <r>  0.0000  0.0000  0.0134  0.0000  0.0000  0.4070  0.0000  0.6060  0.0000 </r>
       </set>
       <set comment="band 3">
        <r>  0.0126  0.0709  0.0000  0.0413  0.5109  0.0000  0.2453  0.0000  0.0439 </r>
       </set>
       <set comment="band 4">
        <r>  0.0002  0.0121  0.0000  0.0120  0.3410  0.0000  0.3999  0.0000  0.1437 </r>
       </set>
       <set comment="band 5">
        <r>  0.0000  0.0000  0.0461  0.0000  0.0000  0.5881  0.0000  0.3396  0.0000 </r>
       </set>
       <set comment="band 6">
        <r>  0.0185  0.0001  0.0000  0.0046  0.0133  0.0000  0.1980  0.0000  0.7144 </r>
       </set>
       <set comment="band 7">
        <r> 43.2420  0.0001  0.0000  0.0018  0.0006  0.0000  0.0000  0.0000  0.0001 </r>
       </set>
       <set comment="band 8">
        <r>  0.6091  0.0012  0.0000  0.1878  0.0621  0.0000  0.0005  0.0000  0.0418 </r>
       </set>
       <set comment="band 9">
        <r>  0.1451  0.1225  0.0000  0.0283  0.0661  0.0000  0.2154  0.0000  0.0860 </r>
       </set>
      </set>
      <set comment="kpoint 7">
       <set comment="band 1">
        <r>  0.3203  0.0004  0.0000  0.0479  0.3804  0.0000  0.2170  0.0000  0.0024 </r>
       </set>
       <set comment="band 2">
        <r>  0.0000  0.0000  0.0125  0.0000  0.0000  0.4828  0.0000  0.5341  0.0000 </r>
       </set>
       <set comment="band 3">
        <r>  0.0477  0.2489  0.0000  0.2525  0.0346  0.0000  0.1118  0.0000  0.1840 </r>
       </set>
       <set comment="band 4">
        <r>  0.0332  0.0313  0.0000  0.0421  0.3023  0.0000  0.5246  0.0000  0.0000 </r>
       </set>
       <set comment="band 5">
        <r>  0.0410  0.0479  0.0000  0.0785  0.0108  0.0000  0.0320  0.0000  0.7633 </r>
       </set>
       <set comment="band 6">
        <r>  0.0000  0.0000  0.0381  0.0000  0.0000  0.5048  0.0000  0.4128  0.0000 </r>
       </set>
       <set comment="band 7">
        <r>  0.2456  0.0106  0.0000  0.0869  0.3653  0.0000  0.0034  0.0000  0.0031 </r>
       </set>
       <set comment="band 8">
        <r>  0.1780  0.2098  0.0000  0.0333  0.0425  0.0000  0.1040  0.0000  0.0288 </r>
       </set>
       <set comment="band 9">
        <r> 43.9479  0.0020  0.0000  0.0000  0.0029  0.0000  0.0014  0.0000  0.0003 </r>
       </set>
      </set>
      <set comment="kpoint 8">
       <set comment="band 1">
        <r>  0.3988  0.0115  0.0115  0.1716  0.1102  0.0102  0.0302  0.1102  0.0906 </r>
       </set>
       <set comment="band 2">
        <r>  0.0000  0.0530  0.0530  0.0000  0.1608  0.0000  0.3644  0.1608  0.1215 </r>
       </set>
       <set comment="band 3">
        <r>  0.0084  0.0242  0.0242  0.1207  0.1632  0.4454  0.0074  0.1632  0.0222 </r>
       </set>
       <set comment="band 4">
        <r>  0.0000  0.0234  0.0234  0.0000  0.2633  0.0000  0.2617  0.2633  0.0872 </r>
       </set>
       <set comment="band 5">
        <r>  0.0873  0.0018  0.0018  0.0040  0.0373  0.1611  0.1580  0.0373  0.4741 </r>
       </set>
       <set comment="band 6">
        <r>  0.0347  0.0450  0.0450  0.0808  0.1080  0.3550  0.0455  0.1080  0.1364 </r>
       </set>
       <set comment="band 7">
        <r>  0.1893  0.0274  0.0274  0.1541  0.1101  0.0000  0.0048  0.1101  0.0143 </r>
       </set>
       <set comment="band 8">
        <r> 43.9509  0.0000  0.0000  0.0006  0.0006  0.0000  0.0000  0.0006  0.0000 </r>
       </set>
       <set comment="band 9">
        <r>  0.0000  0.1903  0.1902  0.0000  0.0955  0.0000  0.2429  0.0955  0.0810 </r>
       </set>
      </set>
      <set comment="kpoint 9">
       <set comment="band 1">
        <r>  0.1810  0.0234  0.0306  0.0234  0.3675  0.0280  0.2797  0.0280  0.0000 </r>
       </set>
       <set comment="band 2">
        <r>  0.0226  0.0138  0.0562  0.0138  0.0086  0.3536  0.1540  0.3536  0.0000 </r>
       </set>
       <set comment="band 3">
        <r>  0.0000  0.1843  0.0000  0.1843  0.0000  0.0401  0.0000  0.0401  0.4452 </r>
       </set>
       <set comment="band 4">
        <r>  0.0673  0.0077  0.0175  0.0077  0.2589  0.0746  0.4114  0.0746  0.0000 </r>
       </set>
       <set comment="band 5">
        <r>  0.0000  0.0854  0.0000  0.0854  0.0000  0.2037  0.0000  0.2037  0.3894 </r>
       </set>
       <set comment="band 6">
        <r>  0.0000  0.1667  0.0000  0.1667  0.0000  0.2561  0.0000  0.2561  0.1461 </r>
       </set>
       <set comment="band 7">
        <r>  0.4817  0.0056  0.0519  0.0056  0.3054  0.0149  0.0006  0.0149  0.0000 </r>
       </set>
       <set comment="band 8">
        <r>  0.0110  0.0755  0.3467  0.0755  0.1239  0.0515  0.1926  0.0515  0.0000 </r>
       </set>
       <set comment="band 9">
        <r> 43.9994  0.0001  0.0000  0.0001  0.0006  0.0000  0.0001  0.0000  0.0000 </r>
       </set>
      </set>
      <set comment="kpoint 10">
       <set comment="band 1">
        <r>  0.0000  0.0984  0.0981  0.0984  0.2254  0.2261  0.0000  0.2261  0.0000 </r>
       </set>
       <set comment="band 2">
        <r>  0.0000  0.0473  0.1964  0.0512  0.4512  0.1176  0.0000  0.1088  0.0000 </r>
       </set>
       <set comment="band 3">
        <r>  0.0000  0.1492  0.0004  0.1454  0.0010  0.3339  0.0000  0.3428  0.0000 </r>
       </set>
       <set comment="band 4">
        <r>  0.0000  0.0000  0.0000  0.0000  0.0000  0.0000  0.4390  0.0000  0.5320 </r>
       </set>
       <set comment="band 5">
        <r>  0.0000  0.0000  0.0000  0.0000  0.0000  0.0000  0.5320  0.0000  0.4390 </r>
       </set>
       <set comment="band 6">
        <r>  0.9555  0.0000  0.0000  0.0000  0.0000  0.0000  0.0000  0.0000  0.0000 </r>
       </set>
       <set comment="band 7">
        <r>  0.0000  0.1066  0.1060  0.1065  0.1606  0.1614  0.0000  0.1614  0.0000 </r>
       </set>
       <set comment="band 8">
        <r>  0.0000  0.0512  0.2126  0.0553  0.3221  0.0838  0.0000  0.0775  0.0000 </r>
       </set>
       <set comment="band 9">
        <r>  0.0000  0.1613  0.0005  0.1572  0.0007  0.2382  0.0000  0.2444  0.0000 </r>
       </set>
      </set>
      <set comment="kpoint 11">
       <set comment="band 1">
        <r>  0.4501  0.0000  0.0000  0.2885  0.0000  0.0000  0.0443  0.0000  0.1328 </r>
       </set>
       <set comment="band 2">
        <r>  0.0000  0.0000  0.0000  0.0000  0.0000  0.0000  0.6296  0.0000  0.2099 </r>
       </set>
       <set comment="band 3">
        <r>  0.0000  0.0576  0.0591  0.0000  0.4184  0.0000  0.0000  0.4292  0.0000 </r>
       </set>
       <set comment="band 4">
        <r>  0.0000  0.0591  0.0576  0.0000  0.4292  0.0000  0.0000  0.4184  0.0000 </r>
       </set>
       <set comment="band 5">
        <r>  0.0000  0.0000  0.0000  0.0000  0.0000  0.9555  0.0000  0.0000  0.0000 </r>
       </set>
       <set comment="band 6">
        <r>  0.1751  0.0000  0.0000  0.0284  0.0000  0.0000  0.1938  0.0000  0.5813 </r>
       </set>
       <set comment="band 7">
        <r> 40.8519  0.0000  0.0000  0.0129  0.0000  0.0000  0.0011  0.0000  0.0034 </r>
       </set>
       <set comment="band 8">
        <r>  3.1362  0.0000  0.0000  0.2178  0.0000  0.0000  0.0186  0.0000  0.0559 </r>
       </set>
       <set comment="band 9">
        <r>  0.0000  0.3818  0.1028  0.0000  0.3972  0.0000  0.0000  0.1069  0.0000 </r>
       </set>
      </set>
      <set comment="kpoint 12">
       <set comment="band 1">
        <r>  0.1083  0.0053  0.0000  0.1228  0.1027  0.0000  0.5441  0.0000  0.0367 </r>
       </set>
       <set comment="band 2">
        <r>  0.0212  0.0570  0.0000  0.0992  0.0023  0.0000  0.1269  0.0000  0.5826 </r>
       </set>
       <set comment="band 3">
        <r>  0.0000  0.0000  0.1046  0.0000  0.0000  0.3299  0.0000  0.5301  0.0000 </r>
       </set>
       <set comment="band 4">
        <r>  0.1207  0.0842  0.0000  0.0015  0.5085  0.0000  0.1758  0.0000  0.0250 </r>
       </set>
       <set comment="band 5">
        <r>  0.0000  0.0000  0.0335  0.0000  0.0000  0.6230  0.0000  0.2885  0.0000 </r>
       </set>
       <set comment="band 6">
        <r>  0.1928  0.1221  0.0000  0.2616  0.0992  0.0000  0.0273  0.0000  0.2577 </r>
       </set>
       <set comment="band 7">
        <r>  0.1674  0.2502  0.0000  0.0660  0.3439  0.0000  0.0005  0.0000  0.0615 </r>
       </set>
       <set comment="band 8">
        <r> 43.9330  0.0013  0.0000  0.0000  0.0018  0.0000  0.0001  0.0000  0.0001 </r>
       </set>
       <set comment="band 9">
        <r>  0.0000  0.0000  0.6750  0.0000  0.0000  0.0029  0.0000  0.2726  0.0000 </r>
       </set>
      </set>
      <set comment="kpoint 13">
       <set comment="band 1">
        <r>  0.0000  0.0153  0.0612  0.0153  0.0119  0.0030  0.7923  0.0030  0.0000 </r>
       </set>
       <set comment="band 2">
        <r>  0.0000  0.0459  0.0000  0.0459  0.0000  0.0089  0.0000  0.0089  0.7923 </r>
       </set>
       <set comment="band 3">
        <r>  0.1439  0.0343  0.0343  0.0343  0.2316  0.2316  0.0000  0.2316  0.0000 </r>
       </set>
       <set comment="band 4">
        <r>  0.0000  0.0353  0.1412  0.0353  0.4369  0.1092  0.0633  0.1092  0.0000 </r>
       </set>
       <set comment="band 5">
        <r>  0.0000  0.1059  0.0000  0.1059  0.0000  0.3277  0.0000  0.3277  0.0633 </r>
       </set>
       <set comment="band 6">
        <r>  0.4063  0.0515  0.0515  0.0515  0.1004  0.1004  0.0000  0.1004  0.0000 </r>
       </set>
       <set comment="band 7">
        <r>  0.0000  0.0983  0.3932  0.0983  0.2195  0.0549  0.0735  0.0549  0.0000 </r>
       </set>
       <set comment="band 8">
        <r>  0.0000  0.2949  0.0000  0.2949  0.0000  0.1646  0.0000  0.1646  0.0735 </r>
       </set>
       <set comment="band 9">
        <r> 43.8298  0.0002  0.0002  0.0002  0.0001  0.0001  0.0000  0.0001  0.0000 </r>
       </set>
      </set>
      <set comment="kpoint 14">
       <set comment="band 1">
        <r>  0.0000  0.0000  0.0000  0.0000  0.0000  0.0000  0.6867  0.0000  0.2289 </r>
       </set>
       <set comment="band 2">
        <r>  0.0056  0.0000  0.0000  0.0600  0.0000  0.0000  0.2135  0.0000  0.6406 </r>
       </set>
       <set comment="band 3">
        <r>  0.0000  0.1143  0.1143  0.0000  0.3491  0.0000  0.0000  0.3491  0.0000 </r>
       </set>
       <set comment="band 4">
        <r>  0.0000  0.1143  0.1143  0.0000  0.3491  0.0000  0.0000  0.3491  0.0000 </r>
       </set>
       <set comment="band 5">
        <r>  0.0000  0.0000  0.0000  0.0000  0.0000  0.9446  0.0000  0.0000  0.0000 </r>
       </set>
       <set comment="band 6">
        <r>  0.2537  0.0000  0.0000  0.5765  0.0000  0.0000  0.0155  0.0000  0.0465 </r>
       </set>
       <set comment="band 7">
        <r>  0.0000  0.3149  0.3149  0.0000  0.1563  0.0000  0.0000  0.1563  0.0000 </r>
       </set>
       <set comment="band 8">
        <r>  0.0000  0.3149  0.3149  0.0000  0.1563  0.0000  0.0000  0.1563  0.0000 </r>
       </set>
       <set comment="band 9">
        <r> 43.1463  0.0000  0.0000  0.0016  0.0000  0.0000  0.0000  0.0000  0.0001 </r>
       </set>
      </set>
     </set>
    </set>
   </array>
  </projected>
 </calculation>
 <structure name="finalpos" >
  <crystal>
   <varray name="basis" >
    <v>      -1.65500000       1.65500000       1.65500000 </v>
    <v>       1.65500000      -1.65500000       1.65500000 </v>
    <v>       1.65500000       1.65500000      -1.65500000 </v>
   </varray>
   <i name="volume">     18.13234550 </i>
   <varray name="rec_basis" >
    <v>       0.00000000       0.30211480       0.30211480 </v>
    <v>       0.30211480       0.00000000       0.30211480 </v>
    <v>       0.30211480       0.30211480       0.00000000 </v>
   </varray>
  </crystal>
  <varray name="positions" >
   <v>       0.00000000       0.00000000       0.00000000 </v>
  </varray>
 </structure>
</modeling>
