   1   1   0   0
  0.1813235E+02  0.2866544E-09  0.2866544E-09  0.2866544E-09  0.5000000E-15
  1.000000000000000E-004
  CAR 
 unknown system                          
     15.90163633     -1.69370873  301      5.23938410      1.00000000
     -1.694  0.0000E+00  0.0000E+00
     -1.635  0.0000E+00  0.0000E+00
     -1.576  0.0000E+00  0.0000E+00
     -1.518  0.0000E+00  0.0000E+00
     -1.459  0.0000E+00  0.0000E+00
     -1.400  0.0000E+00  0.0000E+00
     -1.342 -0.1148E-33 -0.6732E-35
     -1.283 -0.3373E-25 -0.1979E-26
     -1.224 -0.6181E-18 -0.3625E-19
     -1.166 -0.6767E-12 -0.3969E-13
     -1.107 -0.4563E-07 -0.2676E-08
     -1.049 -0.1763E-03 -0.1034E-04
     -0.990 -0.3268E-01 -0.1927E-02
     -0.931  0.1126E+00  0.4677E-02
     -0.873  0.2565E+01  0.1551E+00
     -0.814  0.6264E+00  0.1918E+00
     -0.755 -0.7280E-01  0.1876E+00
     -0.697 -0.1005E-02  0.1875E+00
     -0.638 -0.5784E-06  0.1875E+00
     -0.579 -0.1858E-10  0.1875E+00
     -0.521  0.0000E+00  0.1875E+00
     -0.462  0.0000E+00  0.1875E+00
     -0.403  0.0000E+00  0.1875E+00
     -0.345  0.0000E+00  0.1875E+00
     -0.286  0.0000E+00  0.1875E+00
     -0.227  0.0000E+00  0.1875E+00
     -0.169  0.0000E+00  0.1875E+00
     -0.110  0.0000E+00  0.1875E+00
     -0.051  0.0000E+00  0.1875E+00
      0.007  0.0000E+00  0.1875E+00
      0.066  0.0000E+00  0.1875E+00
      0.124  0.0000E+00  0.1875E+00
      0.183  0.0000E+00  0.1875E+00
      0.242  0.0000E+00  0.1875E+00
      0.300  0.0000E+00  0.1875E+00
      0.359  0.0000E+00  0.1875E+00
      0.418  0.0000E+00  0.1875E+00
      0.476  0.0000E+00  0.1875E+00
      0.535  0.0000E+00  0.1875E+00
      0.594  0.0000E+00  0.1875E+00
      0.652  0.0000E+00  0.1875E+00
      0.711 -0.2690E-30  0.1875E+00
      0.770 -0.2860E-22  0.1875E+00
      0.828 -0.1891E-15  0.1875E+00
      0.887 -0.7387E-10  0.1875E+00
      0.946 -0.1761E-05  0.1875E+00
      1.004 -0.2316E-02  0.1874E+00
      1.063 -0.1176E+00  0.1805E+00
      1.122  0.1171E+01  0.2491E+00
      1.180  0.3225E+01  0.4383E+00
      1.239  0.1743E-01  0.4393E+00
      1.297 -0.3080E-01  0.4375E+00
      1.356 -0.1225E-03  0.4375E+00
      1.415 -0.2414E-07  0.4375E+00
      1.473 -0.2745E-12  0.4375E+00
      1.532 -0.8213E-14  0.4375E+00
      1.591 -0.1877E-08  0.4375E+00
      1.649 -0.2599E-04  0.4375E+00
      1.708 -0.1932E-01  0.4364E+00
      1.767 -0.4309E+00  0.4111E+00
      1.825  0.5841E+01  0.7537E+00
      1.884  0.7800E+01  0.1211E+01
      1.943 -0.3620E+00  0.1190E+01
      2.001 -0.4146E-01  0.1188E+01
      2.060 -0.9067E-04  0.1188E+01
      2.119 -0.1032E-07  0.1188E+01
      2.177 -0.6815E-13  0.1188E+01
      2.236 -0.3628E-31  0.1188E+01
      2.295 -0.5452E-23  0.1188E+01
      2.353 -0.5129E-16  0.1188E+01
      2.412 -0.2888E-10  0.1187E+01
      2.471 -0.1009E-05  0.1187E+01
      2.529 -0.2016E-02  0.1187E+01
      2.588 -0.1800E+00  0.1177E+01
      2.646  0.1319E+01  0.1254E+01
      2.705  0.7963E+01  0.1721E+01
      2.764  0.3317E+01  0.1916E+01
      2.822  0.4415E+00  0.1942E+01
      2.881 -0.7013E-01  0.1938E+01
      2.940 -0.8808E-03  0.1938E+01
      2.998 -0.4746E-06  0.1938E+01
      3.057 -0.1432E-10  0.1938E+01
      3.116  0.0000E+00  0.1938E+01
      3.174  0.0000E+00  0.1938E+01
      3.233  0.0000E+00  0.1938E+01
      3.292  0.0000E+00  0.1938E+01
      3.350  0.0000E+00  0.1938E+01
      3.409  0.0000E+00  0.1938E+01
      3.468  0.0000E+00  0.1938E+01
      3.526  0.0000E+00  0.1938E+01
      3.585 -0.1906E-30  0.1938E+01
      3.644 -0.2341E-22  0.1938E+01
      3.702 -0.1789E-15  0.1938E+01
      3.761 -0.8091E-10  0.1937E+01
      3.819 -0.2236E-05  0.1937E+01
      3.878 -0.3435E-02  0.1937E+01
      3.937 -0.2151E+00  0.1925E+01
      3.995  0.1804E+01  0.2031E+01
      4.054  0.8080E+01  0.2504E+01
      4.113  0.5215E+01  0.2810E+01
      4.171 -0.3842E-01  0.2808E+01
      4.230  0.2511E+01  0.2955E+01
      4.289  0.1979E+01  0.3071E+01
      4.347 -0.1438E+00  0.3063E+01
      4.406 -0.6692E-02  0.3063E+01
      4.465 -0.9213E-05  0.3063E+01
      4.523 -0.9222E-06  0.3062E+01
      4.582 -0.1896E-02  0.3062E+01
      4.641 -0.1688E+00  0.3052E+01
      4.699  0.1308E+01  0.3129E+01
      4.758  0.6982E+01  0.3539E+01
      4.817  0.5118E+00  0.3569E+01
      4.875 -0.1059E+00  0.3563E+01
      4.934 -0.6942E-03  0.3562E+01
      4.993 -0.6023E-02  0.3562E+01
      5.051 -0.3372E+00  0.3542E+01
      5.110  0.3132E+01  0.3726E+01
      5.168  0.9983E+01  0.4312E+01
      5.227  0.9968E+01  0.4896E+01
      5.286  0.3182E+01  0.5083E+01
      5.344 -0.3403E+00  0.5063E+01
      5.403 -0.6187E-02  0.5063E+01
      5.462 -0.4427E-05  0.5063E+01
      5.520 -0.1753E-09  0.5062E+01
      5.579 -0.2998E-25  0.5062E+01
      5.638 -0.6219E-18  0.5062E+01
      5.696 -0.7717E-12  0.5062E+01
      5.755 -0.5902E-07  0.5062E+01
      5.814 -0.2596E-03  0.5062E+01
      5.872 -0.5567E-01  0.5059E+01
      5.931  0.1215E+00  0.5066E+01
      5.990  0.5007E+01  0.5360E+01
      6.048  0.1484E+01  0.5447E+01
      6.107 -0.1605E+00  0.5438E+01
      6.166 -0.2618E-02  0.5437E+01
      6.224 -0.3179E-02  0.5437E+01
      6.283 -0.1714E+00  0.5427E+01
      6.341  0.1668E+01  0.5525E+01
      6.400  0.4895E+01  0.5812E+01
      6.459  0.5430E-01  0.5815E+01
      6.517 -0.4906E-01  0.5813E+01
      6.576 -0.2052E-03  0.5813E+01
      6.635 -0.4232E-07  0.5813E+01
      6.693 -0.5026E-12  0.5812E+01
      6.752 -0.1560E-20  0.5812E+01
      6.811 -0.4877E-14  0.5812E+01
      6.869 -0.9593E-09  0.5812E+01
      6.928 -0.1100E-04  0.5812E+01
      6.987 -0.6695E-02  0.5812E+01
      7.045 -0.1060E+00  0.5806E+01
      7.104  0.1668E+01  0.5904E+01
      7.163  0.1752E+01  0.6007E+01
      7.221 -0.1032E+00  0.6000E+01
      7.280 -0.7631E-02  0.6000E+01
      7.339 -0.1363E-04  0.6000E+01
      7.397 -0.1284E-08  0.6000E+01
      7.456 -0.7099E-14  0.6000E+01
      7.515 -0.1650E-12  0.6000E+01
      7.573 -0.1524E-07  0.6000E+01
      7.632 -0.8130E-04  0.6000E+01
      7.690 -0.2160E-01  0.5999E+01
      7.749 -0.1312E-02  0.5999E+01
      7.808  0.2385E+01  0.6139E+01
      7.866  0.9276E+00  0.6193E+01
      7.925 -0.9080E-01  0.6188E+01
      7.984 -0.1915E-02  0.6188E+01
      8.042 -0.1532E-05  0.6188E+01
      8.101 -0.6751E-10  0.6188E+01
      8.160 -0.1085E-11  0.6187E+01
      8.218 -0.8979E-07  0.6187E+01
      8.277 -0.4279E-03  0.6187E+01
      8.336 -0.1004E+00  0.6182E+01
      8.394  0.1310E+00  0.6189E+01
      8.453  0.9833E+01  0.6766E+01
      8.512  0.3270E+01  0.6958E+01
      8.570 -0.3390E+00  0.6938E+01
      8.629 -0.6142E-02  0.6938E+01
      8.688 -0.4378E-05  0.6938E+01
      8.746 -0.1727E-09  0.6938E+01
      8.805 -0.1865E-28  0.6938E+01
      8.863 -0.1152E-20  0.6938E+01
      8.922 -0.4420E-14  0.6938E+01
      8.981 -0.9949E-09  0.6937E+01
      9.039 -0.1357E-04  0.6937E+01
      9.098 -0.9925E-02  0.6937E+01
      9.157 -0.2156E+00  0.6924E+01
      9.215  0.2954E+01  0.7098E+01
      9.274  0.3869E+01  0.7324E+01
      9.333 -0.1838E+00  0.7314E+01
      9.391 -0.2023E-01  0.7313E+01
      9.450 -0.4352E-04  0.7313E+01
      9.509 -0.4881E-08  0.7312E+01
      9.567 -0.1088E-06  0.7312E+01
      9.626 -0.4346E-03  0.7312E+01
      9.685 -0.8367E-01  0.7308E+01
      9.743  0.2623E+00  0.7323E+01
      9.802  0.6801E+01  0.7722E+01
      9.861  0.1748E+01  0.7824E+01
      9.919 -0.1993E+00  0.7813E+01
      9.978 -0.8623E-02  0.7812E+01
     10.037 -0.2346E+00  0.7798E+01
     10.095  0.2079E+01  0.7920E+01
     10.154  0.9992E+01  0.8506E+01
     10.212  0.3413E+01  0.8707E+01
     10.271 -0.3244E+00  0.8688E+01
     10.330 -0.1013E+00  0.8682E+01
     10.388  0.1945E+01  0.8796E+01
     10.447  0.1466E+01  0.8882E+01
     10.506 -0.1078E+00  0.8875E+01
     10.564 -0.3053E-01  0.8873E+01
     10.623 -0.1496E+00  0.8865E+01
     10.682  0.4170E+01  0.9109E+01
     10.740  0.2618E+01  0.9263E+01
     10.799 -0.2113E+00  0.9250E+01
     10.858 -0.8728E-01  0.9245E+01
     10.916 -0.6904E-01  0.9241E+01
     10.975  0.9260E+01  0.9784E+01
     11.034  0.4997E+01  0.1008E+02
     11.092  0.2927E+01  0.1025E+02
     11.151  0.7059E-02  0.1025E+02
     11.210  0.1892E+00  0.1026E+02
     11.268  0.2631E+01  0.1041E+02
     11.327  0.4450E+00  0.1044E+02
     11.385 -0.1019E+00  0.1044E+02
     11.444 -0.2636E+00  0.1042E+02
     11.503  0.6606E+01  0.1081E+02
     11.561  0.9923E+01  0.1139E+02
     11.620 -0.1613E+00  0.1138E+02
     11.679 -0.7829E-01  0.1138E+02
     11.737 -0.2669E-03  0.1138E+02
     11.796 -0.4608E-07  0.1138E+02
     11.855 -0.4628E-12  0.1138E+02
     11.913  0.0000E+00  0.1138E+02
     11.972  0.0000E+00  0.1138E+02
     12.031  0.0000E+00  0.1138E+02
     12.089  0.0000E+00  0.1138E+02
     12.148  0.0000E+00  0.1138E+02
     12.207  0.0000E+00  0.1138E+02
     12.265  0.0000E+00  0.1138E+02
     12.324  0.0000E+00  0.1138E+02
     12.383  0.0000E+00  0.1138E+02
     12.441  0.0000E+00  0.1138E+02
     12.500  0.0000E+00  0.1138E+02
     12.559  0.0000E+00  0.1138E+02
     12.617  0.0000E+00  0.1138E+02
     12.676  0.0000E+00  0.1138E+02
     12.734  0.0000E+00  0.1138E+02
     12.793  0.0000E+00  0.1138E+02
     12.852  0.0000E+00  0.1138E+02
     12.910  0.0000E+00  0.1138E+02
     12.969  0.0000E+00  0.1138E+02
     13.028  0.0000E+00  0.1138E+02
     13.086  0.0000E+00  0.1138E+02
     13.145  0.0000E+00  0.1138E+02
     13.204  0.0000E+00  0.1138E+02
     13.262  0.0000E+00  0.1138E+02
     13.321  0.0000E+00  0.1138E+02
     13.380  0.0000E+00  0.1138E+02
     13.438  0.0000E+00  0.1138E+02
     13.497  0.0000E+00  0.1138E+02
     13.556  0.0000E+00  0.1138E+02
     13.614  0.0000E+00  0.1138E+02
     13.673  0.0000E+00  0.1138E+02
     13.732  0.0000E+00  0.1138E+02
     13.790  0.0000E+00  0.1138E+02
     13.849  0.0000E+00  0.1138E+02
     13.907  0.0000E+00  0.1138E+02
     13.966  0.0000E+00  0.1138E+02
     14.025  0.0000E+00  0.1138E+02
     14.083  0.0000E+00  0.1138E+02
     14.142  0.0000E+00  0.1138E+02
     14.201  0.0000E+00  0.1138E+02
     14.259  0.0000E+00  0.1138E+02
     14.318  0.0000E+00  0.1138E+02
     14.377  0.0000E+00  0.1138E+02
     14.435  0.0000E+00  0.1138E+02
     14.494  0.0000E+00  0.1138E+02
     14.553  0.0000E+00  0.1138E+02
     14.611 -0.5324E-33  0.1138E+02
     14.670 -0.1399E-24  0.1138E+02
     14.729 -0.2291E-17  0.1138E+02
     14.787 -0.2239E-11  0.1137E+02
     14.846 -0.1347E-06  0.1137E+02
     14.905 -0.4635E-03  0.1137E+02
     14.963 -0.7643E-01  0.1137E+02
     15.022  0.2371E+00  0.1138E+02
     15.081  0.6046E+01  0.1174E+02
     15.139  0.4477E+01  0.1200E+02
     15.198  0.1800E-01  0.1200E+02
     15.256 -0.4515E-01  0.1200E+02
     15.315 -0.2359E-03  0.1200E+02
     15.374 -0.6087E-07  0.1200E+02
     15.432 -0.9020E-12  0.1200E+02
     15.491  0.0000E+00  0.1200E+02
     15.550  0.0000E+00  0.1200E+02
     15.608  0.0000E+00  0.1200E+02
     15.667  0.0000E+00  0.1200E+02
     15.726  0.0000E+00  0.1200E+02
     15.784  0.0000E+00  0.1200E+02
     15.843  0.0000E+00  0.1200E+02
     15.902  0.0000E+00  0.1200E+02
