   1   1   1   0
  0.1813235E+02  0.2866544E-09  0.2866544E-09  0.2866544E-09  0.5000000E-15
  1.000000000000000E-004
  CAR 
 unknown system                          
     15.90723532     -1.72531770  301      5.26543283      1.00000000
     -1.725  0.0000E+00  0.0000E+00  0.0000E+00  0.0000E+00
     -1.667  0.0000E+00  0.0000E+00  0.0000E+00  0.0000E+00
     -1.608  0.0000E+00  0.0000E+00  0.0000E+00  0.0000E+00
     -1.549  0.0000E+00  0.0000E+00  0.0000E+00  0.0000E+00
     -1.490  0.0000E+00  0.0000E+00  0.0000E+00  0.0000E+00
     -1.431  0.0000E+00  0.0000E+00  0.0000E+00  0.0000E+00
     -1.373  0.0000E+00 -0.4086E-34  0.0000E+00 -0.2402E-35
     -1.314 -0.1636E-34 -0.1305E-25 -0.9617E-36 -0.7670E-27
     -1.255 -0.5898E-26 -0.2569E-18 -0.3467E-27 -0.1510E-19
     -1.196 -0.1311E-18 -0.2985E-12 -0.7704E-20 -0.1754E-13
     -1.138 -0.1723E-12 -0.2113E-07 -0.1012E-13 -0.1242E-08
     -1.079 -0.1379E-07 -0.8469E-04 -0.8105E-09 -0.4979E-05
     -1.020 -0.6275E-04 -0.1611E-01 -0.3689E-05 -0.9519E-03
     -0.961 -0.1376E-01  0.5522E-01 -0.8126E-03  0.2293E-02
     -0.902  0.3003E-01  0.1281E+01  0.9523E-03  0.7760E-01
     -0.844  0.1252E+01  0.3114E+00  0.7452E-01  0.9590E-01
     -0.785  0.3676E+00 -0.3609E-01  0.9612E-01  0.9378E-01
     -0.726 -0.3972E-01 -0.4868E-03  0.9379E-01  0.9375E-01
     -0.667 -0.6300E-03 -0.2708E-06  0.9375E-01  0.9375E-01
     -0.609 -0.3988E-06 -0.8314E-11  0.9375E-01  0.9375E-01
     -0.550 -0.1386E-10  0.0000E+00  0.9375E-01  0.9375E-01
     -0.491  0.0000E+00  0.0000E+00  0.9375E-01  0.9375E-01
     -0.432  0.0000E+00  0.0000E+00  0.9375E-01  0.9375E-01
     -0.373  0.0000E+00  0.0000E+00  0.9375E-01  0.9375E-01
     -0.315  0.0000E+00  0.0000E+00  0.9375E-01  0.9375E-01
     -0.256  0.0000E+00  0.0000E+00  0.9375E-01  0.9375E-01
     -0.197  0.0000E+00  0.0000E+00  0.9375E-01  0.9375E-01
     -0.138  0.0000E+00  0.0000E+00  0.9375E-01  0.9375E-01
     -0.080  0.0000E+00  0.0000E+00  0.9375E-01  0.9375E-01
     -0.021  0.0000E+00  0.0000E+00  0.9375E-01  0.9375E-01
      0.038  0.0000E+00  0.0000E+00  0.9375E-01  0.9375E-01
      0.097  0.0000E+00  0.0000E+00  0.9375E-01  0.9375E-01
      0.155  0.0000E+00  0.0000E+00  0.9375E-01  0.9375E-01
      0.214  0.0000E+00  0.0000E+00  0.9375E-01  0.9375E-01
      0.273  0.0000E+00  0.0000E+00  0.9375E-01  0.9375E-01
      0.332  0.0000E+00  0.0000E+00  0.9375E-01  0.9375E-01
      0.391  0.0000E+00  0.0000E+00  0.9375E-01  0.9375E-01
      0.449  0.0000E+00  0.0000E+00  0.9375E-01  0.9375E-01
      0.508  0.0000E+00  0.0000E+00  0.9375E-01  0.9375E-01
      0.567  0.0000E+00  0.0000E+00  0.9375E-01  0.9375E-01
      0.626  0.0000E+00  0.0000E+00  0.9375E-01  0.9375E-01
      0.684  0.0000E+00 -0.1784E-30  0.9375E-01  0.9375E-01
      0.743 -0.4969E-30 -0.1889E-22  0.9375E-01  0.9375E-01
      0.802 -0.4557E-22 -0.1230E-15  0.9375E-01  0.9375E-01
      0.861 -0.2567E-15 -0.4671E-10  0.9375E-01  0.9375E-01
      0.920 -0.8422E-10 -0.1069E-05  0.9375E-01  0.9375E-01
      0.978 -0.1662E-05 -0.1330E-02  0.9375E-01  0.9367E-01
      1.037 -0.1770E-02 -0.6139E-01  0.9365E-01  0.9006E-01
      1.096 -0.6604E-01  0.6400E+00  0.8976E-01  0.1277E+00
      1.155  0.7434E+00  0.1571E+01  0.1335E+00  0.2200E+00
      1.213  0.1493E+01 -0.8223E-02  0.2212E+00  0.2195E+00
      1.272 -0.3095E-01 -0.1348E-01  0.2194E+00  0.2188E+00
      1.331 -0.1090E-01 -0.4747E-04  0.2188E+00  0.2188E+00
      1.390 -0.3258E-04 -0.8266E-08  0.2188E+00  0.2188E+00
      1.449 -0.4883E-08 -0.8217E-13  0.2188E+00  0.2188E+00
      1.507 -0.4203E-13 -0.4262E-14  0.2188E+00  0.2187E+00
      1.566 -0.3320E-13 -0.9887E-09  0.2187E+00  0.2187E+00
      1.625 -0.5144E-08 -0.1373E-04  0.2187E+00  0.2187E+00
      1.684 -0.4593E-04 -0.1010E-01  0.2187E+00  0.2182E+00
      1.742 -0.2108E-01 -0.2154E+00  0.2175E+00  0.2055E+00
      1.801 -0.1774E+00  0.2999E+01  0.2071E+00  0.3818E+00
      1.860  0.3941E+01  0.3814E+01  0.4387E+00  0.6060E+00
      1.919  0.2861E+01 -0.1885E+00  0.6069E+00  0.5949E+00
      1.978 -0.2145E+00 -0.1908E-01  0.5943E+00  0.5938E+00
      2.036 -0.9043E-02 -0.3888E-04  0.5938E+00  0.5938E+00
      2.095 -0.1151E-04 -0.4090E-08  0.5938E+00  0.5938E+00
      2.154 -0.7787E-09 -0.2550E-13  0.5938E+00  0.5938E+00
      2.213 -0.2833E-14 -0.1267E-30  0.5938E+00  0.5938E+00
      2.271 -0.1163E-28 -0.1378E-22  0.5938E+00  0.5938E+00
      2.330 -0.7207E-21 -0.9341E-16  0.5938E+00  0.5938E+00
      2.389 -0.2740E-14 -0.3795E-10  0.5937E+00  0.5937E+00
      2.448 -0.6039E-09 -0.9720E-06  0.5937E+00  0.5937E+00
      2.506 -0.7981E-05 -0.1466E-02  0.5937E+00  0.5937E+00
      2.565 -0.5633E-02 -0.1004E+00  0.5934E+00  0.5878E+00
      2.624 -0.1251E+00  0.8058E+00  0.5861E+00  0.6351E+00
      2.683  0.1614E+01  0.4193E+01  0.6809E+00  0.8816E+00
      2.742  0.3186E+01  0.1525E+01  0.8682E+00  0.9712E+00
      2.800  0.1447E+01 -0.2763E-01  0.9532E+00  0.9696E+00
      2.859  0.3038E+00 -0.1409E-01  0.9711E+00  0.9688E+00
      2.918 -0.3884E-01 -0.6228E-04  0.9688E+00  0.9688E+00
      2.977 -0.5741E-03 -0.1361E-07  0.9688E+00  0.9688E+00
      3.035 -0.3465E-06 -0.1693E-12  0.9688E+00  0.9688E+00
      3.094 -0.1151E-10  0.0000E+00  0.9688E+00  0.9688E+00
      3.153  0.0000E+00  0.0000E+00  0.9688E+00  0.9688E+00
      3.212  0.0000E+00  0.0000E+00  0.9688E+00  0.9688E+00
      3.271  0.0000E+00  0.0000E+00  0.9688E+00  0.9688E+00
      3.329  0.0000E+00  0.0000E+00  0.9688E+00  0.9688E+00
      3.388  0.0000E+00  0.0000E+00  0.9688E+00  0.9688E+00
      3.447  0.0000E+00  0.0000E+00  0.9688E+00  0.9688E+00
      3.506  0.0000E+00  0.0000E+00  0.9688E+00  0.9688E+00
      3.564  0.0000E+00 -0.1508E-28  0.9688E+00  0.9688E+00
      3.623 -0.2942E-30 -0.9384E-21  0.9688E+00  0.9688E+00
      3.682 -0.3203E-22 -0.3581E-14  0.9688E+00  0.9687E+00
      3.741 -0.2145E-15 -0.7922E-09  0.9688E+00  0.9687E+00
      3.800 -0.8411E-10 -0.1048E-04  0.9687E+00  0.9687E+00
      3.858 -0.2005E-05 -0.7325E-02  0.9687E+00  0.9683E+00
      3.917 -0.2676E-02 -0.1436E+00  0.9686E+00  0.9599E+00
      3.976 -0.1519E+00  0.2038E+01  0.9597E+00  0.1080E+01
      4.035  0.1340E+01  0.2590E+01  0.1038E+01  0.1232E+01
      4.093  0.5718E+01  0.2433E+01  0.1374E+01  0.1375E+01
      4.152  0.5834E+00  0.5393E+00  0.1409E+01  0.1407E+01
      4.211  0.4966E+00  0.6530E+00  0.1438E+01  0.1445E+01
      4.270  0.1599E+01  0.1507E+01  0.1532E+01  0.1534E+01
      4.329  0.3047E-02 -0.2737E-01  0.1532E+01  0.1532E+01
      4.387 -0.1467E-01 -0.1133E-01  0.1531E+01  0.1531E+01
      4.446 -0.5534E-04 -0.3485E-04  0.1531E+01  0.1531E+01
      4.505 -0.3141E-07 -0.4909E-07  0.1531E+01  0.1531E+01
      4.564 -0.1131E-03 -0.1890E-03  0.1531E+01  0.1531E+01
      4.622 -0.2970E-01 -0.3915E-01  0.1529E+01  0.1529E+01
      4.681  0.9540E-02  0.1059E+00  0.1530E+01  0.1535E+01
      4.740  0.3209E+01  0.3372E+01  0.1719E+01  0.1733E+01
      4.799  0.1185E+01  0.9185E+00  0.1788E+01  0.1787E+01
      4.858 -0.1178E+00 -0.1020E+00  0.1781E+01  0.1781E+01
      4.916 -0.2316E-02 -0.1515E-02  0.1781E+01  0.1781E+01
      4.975 -0.1118E-02 -0.3078E-03  0.1781E+01  0.1781E+01
      5.034 -0.1146E+00 -0.6267E-01  0.1774E+01  0.1778E+01
      5.093  0.8286E+00  0.5359E-01  0.1823E+01  0.1781E+01
      5.151  0.5194E+01  0.6144E+01  0.2128E+01  0.2142E+01
      5.210  0.8336E+00  0.6525E+01  0.2177E+01  0.2525E+01
      5.269  0.5130E+01  0.1771E+00  0.2479E+01  0.2536E+01
      5.328  0.1020E+01 -0.7597E-01  0.2539E+01  0.2531E+01
      5.386 -0.1287E+00 -0.4434E-03  0.2531E+01  0.2531E+01
      5.445 -0.1463E-02 -0.1238E-06  0.2531E+01  0.2531E+01
      5.504 -0.7083E-06 -0.1956E-11  0.2531E+01  0.2531E+01
      5.563 -0.1901E-10 -0.1789E-24  0.2531E+01  0.2531E+01
      5.622 -0.3924E-23 -0.2615E-17  0.2531E+01  0.2531E+01
      5.680 -0.3518E-16 -0.2250E-11  0.2531E+01  0.2531E+01
      5.739 -0.1848E-10 -0.1176E-06  0.2531E+01  0.2531E+01
      5.798 -0.5868E-06 -0.3449E-03  0.2531E+01  0.2531E+01
      5.857 -0.1027E-02 -0.4592E-01  0.2531E+01  0.2529E+01
      5.915 -0.7367E-01  0.2699E+00  0.2527E+01  0.2544E+01
      5.974  0.6453E+00  0.2640E+01  0.2565E+01  0.2700E+01
      6.033  0.2551E+01  0.3815E+00  0.2715E+01  0.2722E+01
      6.092  0.9940E-01 -0.5477E-01  0.2721E+01  0.2719E+01
      6.151 -0.3122E-01 -0.5046E-03  0.2719E+01  0.2719E+01
      6.209 -0.1389E-02 -0.1443E-03  0.2719E+01  0.2719E+01
      6.268 -0.7875E-01 -0.2961E-01  0.2714E+01  0.2717E+01
      6.327  0.7242E+00  0.8212E-01  0.2757E+01  0.2722E+01
      6.386  0.2509E+01  0.2532E+01  0.2904E+01  0.2871E+01
      6.444  0.6450E-01  0.6828E+00  0.2908E+01  0.2911E+01
      6.503 -0.2795E-01 -0.7612E-01  0.2906E+01  0.2906E+01
      6.562 -0.1292E-03 -0.1120E-02  0.2906E+01  0.2906E+01
      6.621 -0.2873E-07 -0.6685E-06  0.2906E+01  0.2906E+01
      6.680 -0.3634E-12 -0.2195E-10  0.2906E+01  0.2906E+01
      6.738 -0.1574E-20 -0.6589E-24  0.2906E+01  0.2906E+01
      6.797 -0.4476E-14 -0.7032E-17  0.2906E+01  0.2906E+01
      6.856 -0.7948E-09 -0.4405E-11  0.2906E+01  0.2906E+01
      6.915 -0.8091E-05 -0.1671E-06  0.2906E+01  0.2906E+01
      6.973 -0.4273E-02 -0.3518E-03  0.2906E+01  0.2906E+01
      7.032 -0.4954E-01 -0.3165E-01  0.2903E+01  0.2904E+01
      7.091  0.9181E+00  0.2478E+00  0.2957E+01  0.2919E+01
      7.150  0.7873E+00  0.1307E+01  0.3003E+01  0.2996E+01
      7.209 -0.5371E-01  0.9187E-01  0.3000E+01  0.3001E+01
      7.267 -0.2843E-02 -0.1935E-01  0.3000E+01  0.3000E+01
      7.326 -0.4156E-05 -0.1214E-03  0.3000E+01  0.3000E+01
      7.385 -0.3203E-09 -0.3542E-07  0.3000E+01  0.3000E+01
      7.444 -0.1417E-14 -0.5823E-12  0.3000E+01  0.3000E+01
      7.502 -0.8589E-18 -0.2112E-10  0.3000E+01  0.3000E+01
      7.561 -0.7993E-12 -0.5480E-06  0.3000E+01  0.3000E+01
      7.620 -0.4520E-07 -0.7772E-03  0.3000E+01  0.3000E+01
      7.679 -0.1438E-03 -0.4266E-01  0.3000E+01  0.2997E+01
      7.737 -0.2104E-01  0.4170E+00  0.2999E+01  0.3022E+01
      7.796  0.1117E+00  0.1221E+01  0.3005E+01  0.3094E+01
      7.855  0.1315E+01  0.1211E-01  0.3083E+01  0.3094E+01
      7.914  0.2196E+00 -0.1201E-01  0.3096E+01  0.3094E+01
      7.973 -0.2958E-01 -0.4869E-04  0.3094E+01  0.3094E+01
      8.031 -0.3003E-03 -0.9632E-08  0.3094E+01  0.3094E+01
      8.090 -0.1323E-06 -0.1087E-12  0.3094E+01  0.3094E+01
      8.149 -0.3247E-11 -0.1162E-11  0.3094E+01  0.3094E+01
      8.208 -0.1051E-08 -0.8275E-07  0.3094E+01  0.3094E+01
      8.266 -0.1437E-04 -0.3338E-03  0.3094E+01  0.3094E+01
      8.325 -0.1039E-01 -0.6395E-01  0.3093E+01  0.3090E+01
      8.384 -0.2154E+00  0.2154E+00  0.3080E+01  0.3103E+01
      8.443  0.3034E+01  0.5120E+01  0.3259E+01  0.3404E+01
      8.502  0.3781E+01  0.1256E+01  0.3481E+01  0.3477E+01
      8.560 -0.1910E+00 -0.1451E+00  0.3470E+01  0.3469E+01
      8.619 -0.1860E-01 -0.1973E-02  0.3469E+01  0.3469E+01
      8.678 -0.3724E-04 -0.1104E-05  0.3469E+01  0.3469E+01
      8.737 -0.3855E-08 -0.3412E-10  0.3469E+01  0.3469E+01
      8.795 -0.2267E-13 -0.3688E-30  0.3469E+01  0.3469E+01
      8.854 -0.1452E-21 -0.3735E-22  0.3469E+01  0.3469E+01
      8.913 -0.7220E-15 -0.2323E-15  0.3469E+01  0.3469E+01
      8.972 -0.2088E-09 -0.8431E-10  0.3469E+01  0.3469E+01
      9.031 -0.3625E-05 -0.1842E-05  0.3469E+01  0.3469E+01
      9.089 -0.3375E-02 -0.2183E-02  0.3469E+01  0.3469E+01
      9.148 -0.1038E+00 -0.9440E-01  0.3462E+01  0.3463E+01
      9.207  0.1254E+01  0.1008E+01  0.3536E+01  0.3522E+01
      9.266  0.2126E+01  0.2322E+01  0.3661E+01  0.3659E+01
      9.324 -0.6876E-01 -0.2399E-01  0.3657E+01  0.3657E+01
      9.383 -0.1352E-01 -0.1894E-01  0.3656E+01  0.3656E+01
      9.442 -0.3510E-04 -0.6336E-04  0.3656E+01  0.3656E+01
      9.501 -0.4622E-08 -0.1056E-07  0.3656E+01  0.3656E+01
      9.560 -0.3223E-09 -0.9691E-06  0.3656E+01  0.3656E+01
      9.618 -0.5390E-05 -0.1579E-02  0.3656E+01  0.3656E+01
      9.677 -0.4823E-02 -0.1036E+00  0.3656E+01  0.3650E+01
      9.736 -0.1398E+00  0.9432E+00  0.3648E+01  0.3706E+01
      9.795  0.1726E+01  0.3359E+01  0.3749E+01  0.3903E+01
      9.853  0.2788E+01  0.9530E-01  0.3913E+01  0.3909E+01
      9.912 -0.9892E-01 -0.3817E-01  0.3907E+01  0.3906E+01
      9.971 -0.1735E-01 -0.9169E-02  0.3906E+01  0.3906E+01
     10.030 -0.5374E-01 -0.1114E+00  0.3903E+01  0.3899E+01
     10.088  0.1027E+00  0.1749E+01  0.3909E+01  0.4002E+01
     10.147  0.4995E+01  0.4179E+01  0.4203E+01  0.4248E+01
     10.206  0.2609E+01  0.1790E+01  0.4356E+01  0.4353E+01
     10.265 -0.1997E+00 -0.1767E+00  0.4344E+01  0.4342E+01
     10.324 -0.3369E-01  0.1977E+00  0.4342E+01  0.4354E+01
     10.382  0.1563E+00  0.1318E+01  0.4351E+01  0.4432E+01
     10.441  0.1322E+01  0.1241E+00  0.4429E+01  0.4439E+01
     10.500  0.1674E+00 -0.2241E-01  0.4439E+01  0.4437E+01
     10.559 -0.2700E-01 -0.4562E-01  0.4437E+01  0.4435E+01
     10.617 -0.8340E-01  0.2643E+00  0.4433E+01  0.4450E+01
     10.676  0.7971E+00  0.2639E+01  0.4479E+01  0.4605E+01
     10.735  0.2466E+01  0.3880E+00  0.4624E+01  0.4628E+01
     10.794  0.3681E-01 -0.5630E-01  0.4626E+01  0.4625E+01
     10.853 -0.3193E-01 -0.1105E+00  0.4625E+01  0.4618E+01
     10.911 -0.2090E+00  0.7687E+00  0.4612E+01  0.4664E+01
     10.970  0.2424E+01  0.5244E+01  0.4755E+01  0.4972E+01
     11.029  0.5006E+01  0.7810E+00  0.5049E+01  0.5018E+01
     11.088  0.1360E+01  0.1670E+01  0.5129E+01  0.5116E+01
     11.146 -0.9192E-01  0.1762E+00  0.5124E+01  0.5126E+01
     11.205  0.2751E+00 -0.3983E-01  0.5140E+01  0.5124E+01
     11.264  0.1292E+01  0.1171E+01  0.5216E+01  0.5193E+01
     11.323  0.6855E-01  0.4895E+00  0.5220E+01  0.5222E+01
     11.382 -0.3327E-01 -0.8049E-01  0.5218E+01  0.5217E+01
     11.440 -0.2646E+00  0.1382E+00  0.5202E+01  0.5225E+01
     11.499  0.4107E+01  0.2238E+01  0.5444E+01  0.5356E+01
     11.558  0.4423E+01  0.5327E+01  0.5704E+01  0.5670E+01
     11.617 -0.2545E+00  0.3862E+00  0.5689E+01  0.5692E+01
     11.675 -0.1941E-01 -0.8071E-01  0.5688E+01  0.5688E+01
     11.734 -0.3481E-04 -0.5270E-03  0.5688E+01  0.5688E+01
     11.793 -0.3265E-08 -0.1593E-06  0.5688E+01  0.5688E+01
     11.852 -0.1877E-13 -0.2713E-11  0.5688E+01  0.5688E+01
     11.911  0.0000E+00  0.0000E+00  0.5688E+01  0.5688E+01
     11.969  0.0000E+00  0.0000E+00  0.5688E+01  0.5688E+01
     12.028  0.0000E+00  0.0000E+00  0.5688E+01  0.5688E+01
     12.087  0.0000E+00  0.0000E+00  0.5688E+01  0.5688E+01
     12.146  0.0000E+00  0.0000E+00  0.5688E+01  0.5688E+01
     12.204  0.0000E+00  0.0000E+00  0.5688E+01  0.5688E+01
     12.263  0.0000E+00  0.0000E+00  0.5688E+01  0.5688E+01
     12.322  0.0000E+00  0.0000E+00  0.5688E+01  0.5688E+01
     12.381  0.0000E+00  0.0000E+00  0.5688E+01  0.5688E+01
     12.439  0.0000E+00  0.0000E+00  0.5688E+01  0.5688E+01
     12.498  0.0000E+00  0.0000E+00  0.5688E+01  0.5688E+01
     12.557  0.0000E+00  0.0000E+00  0.5688E+01  0.5688E+01
     12.616  0.0000E+00  0.0000E+00  0.5688E+01  0.5688E+01
     12.675  0.0000E+00  0.0000E+00  0.5688E+01  0.5688E+01
     12.733  0.0000E+00  0.0000E+00  0.5688E+01  0.5688E+01
     12.792  0.0000E+00  0.0000E+00  0.5688E+01  0.5688E+01
     12.851  0.0000E+00  0.0000E+00  0.5688E+01  0.5688E+01
     12.910  0.0000E+00  0.0000E+00  0.5688E+01  0.5688E+01
     12.968  0.0000E+00  0.0000E+00  0.5688E+01  0.5688E+01
     13.027  0.0000E+00  0.0000E+00  0.5688E+01  0.5688E+01
     13.086  0.0000E+00  0.0000E+00  0.5688E+01  0.5688E+01
     13.145  0.0000E+00  0.0000E+00  0.5688E+01  0.5688E+01
     13.204  0.0000E+00  0.0000E+00  0.5688E+01  0.5688E+01
     13.262  0.0000E+00  0.0000E+00  0.5688E+01  0.5688E+01
     13.321  0.0000E+00  0.0000E+00  0.5688E+01  0.5688E+01
     13.380  0.0000E+00  0.0000E+00  0.5688E+01  0.5688E+01
     13.439  0.0000E+00  0.0000E+00  0.5688E+01  0.5688E+01
     13.497  0.0000E+00  0.0000E+00  0.5688E+01  0.5688E+01
     13.556  0.0000E+00  0.0000E+00  0.5688E+01  0.5688E+01
     13.615  0.0000E+00  0.0000E+00  0.5688E+01  0.5688E+01
     13.674  0.0000E+00  0.0000E+00  0.5688E+01  0.5688E+01
     13.733  0.0000E+00  0.0000E+00  0.5688E+01  0.5688E+01
     13.791  0.0000E+00  0.0000E+00  0.5688E+01  0.5688E+01
     13.850  0.0000E+00  0.0000E+00  0.5688E+01  0.5688E+01
     13.909  0.0000E+00  0.0000E+00  0.5688E+01  0.5688E+01
     13.968  0.0000E+00  0.0000E+00  0.5688E+01  0.5688E+01
     14.026  0.0000E+00  0.0000E+00  0.5688E+01  0.5688E+01
     14.085  0.0000E+00  0.0000E+00  0.5688E+01  0.5688E+01
     14.144  0.0000E+00  0.0000E+00  0.5688E+01  0.5688E+01
     14.203  0.0000E+00  0.0000E+00  0.5688E+01  0.5688E+01
     14.262  0.0000E+00  0.0000E+00  0.5688E+01  0.5688E+01
     14.320  0.0000E+00  0.0000E+00  0.5688E+01  0.5688E+01
     14.379  0.0000E+00  0.0000E+00  0.5688E+01  0.5688E+01
     14.438  0.0000E+00  0.0000E+00  0.5688E+01  0.5688E+01
     14.497  0.0000E+00  0.0000E+00  0.5688E+01  0.5688E+01
     14.555  0.0000E+00  0.0000E+00  0.5688E+01  0.5688E+01
     14.614 -0.1587E-32 -0.1296E-32  0.5688E+01  0.5688E+01
     14.673 -0.3407E-24 -0.2858E-24  0.5688E+01  0.5688E+01
     14.732 -0.4501E-17 -0.3882E-17  0.5688E+01  0.5688E+01
     14.791 -0.3499E-11 -0.3103E-11  0.5687E+01  0.5687E+01
     14.849 -0.1650E-06 -0.1506E-06  0.5687E+01  0.5687E+01
     14.908 -0.4356E-03 -0.4105E-03  0.5687E+01  0.5687E+01
     14.967 -0.5186E-01 -0.5166E-01  0.5684E+01  0.5684E+01
     15.026  0.2877E+00  0.2500E+00  0.5701E+01  0.5699E+01
     15.084  0.3059E+01  0.3419E+01  0.5881E+01  0.5900E+01
     15.143  0.2020E+01  0.1798E+01  0.6000E+01  0.6006E+01
     15.202  0.2433E-01 -0.8725E-01  0.6001E+01  0.6001E+01
     15.261 -0.2188E-01 -0.1065E-01  0.6000E+01  0.6000E+01
     15.319 -0.1131E-03 -0.2929E-04  0.6000E+01  0.6000E+01
     15.378 -0.2818E-07 -0.4180E-08  0.6000E+01  0.6000E+01
     15.437 -0.3981E-12 -0.3447E-13  0.6000E+01  0.6000E+01
     15.496  0.0000E+00  0.0000E+00  0.6000E+01  0.6000E+01
     15.555  0.0000E+00  0.0000E+00  0.6000E+01  0.6000E+01
     15.613  0.0000E+00  0.0000E+00  0.6000E+01  0.6000E+01
     15.672  0.0000E+00  0.0000E+00  0.6000E+01  0.6000E+01
     15.731  0.0000E+00  0.0000E+00  0.6000E+01  0.6000E+01
     15.790  0.0000E+00  0.0000E+00  0.6000E+01  0.6000E+01
     15.848  0.0000E+00  0.0000E+00  0.6000E+01  0.6000E+01
     15.907  0.0000E+00  0.0000E+00  0.6000E+01  0.6000E+01
     15.90723532     -1.72531770  301      5.26543283      1.00000000
     -1.725  0.0000E+00  0.0000E+00  0.0000E+00  0.0000E+00  0.0000E+00  0.0000E+00  0.0000E+00  0.0000E+00  0.0000E+00  0.0000E+00  0.0000E+00  0.0000E+00  0.0000E+00  0.0000E+00  0.0000E+00  0.0000E+00  0.0000E+00  0.0000E+00
     -1.667  0.0000E+00  0.0000E+00  0.0000E+00  0.0000E+00  0.0000E+00  0.0000E+00  0.0000E+00  0.0000E+00  0.0000E+00  0.0000E+00  0.0000E+00  0.0000E+00  0.0000E+00  0.0000E+00  0.0000E+00  0.0000E+00  0.0000E+00  0.0000E+00
     -1.608  0.0000E+00  0.0000E+00  0.0000E+00  0.0000E+00  0.0000E+00  0.0000E+00  0.0000E+00  0.0000E+00  0.0000E+00  0.0000E+00  0.0000E+00  0.0000E+00  0.0000E+00  0.0000E+00  0.0000E+00  0.0000E+00  0.0000E+00  0.0000E+00
     -1.549  0.0000E+00  0.0000E+00  0.0000E+00  0.0000E+00  0.0000E+00  0.0000E+00  0.0000E+00  0.0000E+00  0.0000E+00  0.0000E+00  0.0000E+00  0.0000E+00  0.0000E+00  0.0000E+00  0.0000E+00  0.0000E+00  0.0000E+00  0.0000E+00
     -1.490  0.0000E+00  0.0000E+00  0.0000E+00  0.0000E+00  0.0000E+00  0.0000E+00  0.0000E+00  0.0000E+00  0.0000E+00  0.0000E+00  0.0000E+00  0.0000E+00  0.0000E+00  0.0000E+00  0.0000E+00  0.0000E+00  0.0000E+00  0.0000E+00
     -1.431  0.0000E+00  0.0000E+00  0.0000E+00  0.0000E+00  0.0000E+00  0.0000E+00  0.0000E+00  0.0000E+00  0.0000E+00  0.0000E+00  0.0000E+00  0.0000E+00  0.0000E+00  0.0000E+00  0.0000E+00  0.0000E+00  0.0000E+00  0.0000E+00
     -1.373  0.0000E+00 -0.3138E-34  0.0000E+00 -0.6729E-36  0.0000E+00 -0.2019E-35  0.0000E+00 -0.1346E-35  0.0000E+00 -0.6346E-37  0.0000E+00 -0.9520E-37  0.0000E+00 -0.2380E-37  0.0000E+00 -0.1904E-36  0.0000E+00 -0.7932E-38
     -1.314 -0.1256E-34 -0.1002E-25 -0.2695E-36 -0.2149E-27 -0.8084E-36 -0.6447E-27 -0.5389E-36 -0.4298E-27 -0.2522E-37 -0.2027E-28 -0.3783E-37 -0.3040E-28 -0.9458E-38 -0.7601E-29 -0.7566E-37 -0.6080E-28 -0.3153E-38 -0.2533E-29
     -1.255 -0.4526E-26 -0.1973E-18 -0.9713E-28 -0.4230E-20 -0.2914E-27 -0.1269E-19 -0.1943E-27 -0.8459E-20 -0.9092E-29 -0.3989E-21 -0.1364E-28 -0.5984E-21 -0.3409E-29 -0.1496E-21 -0.2727E-28 -0.1197E-20 -0.1136E-29 -0.4986E-22
     -1.196 -0.1006E-18 -0.2293E-12 -0.2159E-20 -0.4916E-14 -0.6476E-20 -0.1475E-13 -0.4317E-20 -0.9831E-14 -0.2020E-21 -0.4636E-15 -0.3031E-21 -0.6954E-15 -0.7576E-22 -0.1739E-15 -0.6061E-21 -0.1391E-14 -0.2526E-22 -0.5795E-16
     -1.138 -0.1322E-12 -0.1623E-07 -0.2837E-14 -0.3479E-09 -0.8510E-14 -0.1044E-08 -0.5673E-14 -0.6959E-09 -0.2655E-15 -0.3281E-10 -0.3982E-15 -0.4922E-10 -0.9956E-16 -0.1231E-10 -0.7965E-15 -0.9844E-10 -0.3319E-16 -0.4102E-11
     -1.079 -0.1058E-07 -0.6504E-04 -0.2271E-09 -0.1395E-05 -0.6813E-09 -0.4184E-05 -0.4542E-09 -0.2789E-05 -0.2126E-10 -0.1315E-06 -0.3188E-10 -0.1973E-06 -0.7971E-11 -0.4932E-07 -0.6377E-10 -0.3945E-06 -0.2657E-11 -0.1644E-07
     -1.020 -0.4815E-04 -0.1237E-01 -0.1033E-05 -0.2653E-03 -0.3100E-05 -0.7959E-03 -0.2067E-05 -0.5306E-03 -0.9672E-07 -0.2502E-04 -0.1451E-06 -0.3753E-04 -0.3627E-07 -0.9384E-05 -0.2901E-06 -0.7506E-04 -0.1209E-07 -0.3127E-05
     -0.961 -0.1056E-01  0.4241E-01 -0.2267E-03  0.9092E-03 -0.6800E-03  0.2728E-02 -0.4533E-03  0.1818E-02 -0.2121E-04  0.8575E-04 -0.3182E-04  0.1286E-03 -0.7955E-05  0.3216E-04 -0.6364E-04  0.2572E-03 -0.2652E-05  0.1072E-04
     -0.902  0.2304E-01  0.9840E+00  0.4945E-03  0.2110E-01  0.1484E-02  0.6329E-01  0.9890E-03  0.4220E-01  0.4629E-04  0.1990E-02  0.6943E-04  0.2985E-02  0.1736E-04  0.7462E-03  0.1389E-03  0.5969E-02  0.5786E-05  0.2487E-03
     -0.844  0.9605E+00  0.2392E+00  0.2061E-01  0.5128E-02  0.6183E-01  0.1538E-01  0.4122E-01  0.1026E-01  0.1929E-02  0.4836E-03  0.2894E-02  0.7255E-03  0.7234E-03  0.1814E-03  0.5788E-02  0.1451E-02  0.2411E-03  0.6045E-04
     -0.785  0.2821E+00 -0.2771E-01  0.6053E-02 -0.5942E-03  0.1816E-01 -0.1783E-02  0.1211E-01 -0.1188E-02  0.5666E-03 -0.5604E-04  0.8499E-03 -0.8407E-04  0.2125E-03 -0.2102E-04  0.1700E-02 -0.1681E-03  0.7082E-04 -0.7005E-05
     -0.726 -0.3048E-01 -0.3739E-03 -0.6540E-03 -0.8016E-05 -0.1962E-02 -0.2405E-04 -0.1308E-02 -0.1603E-04 -0.6122E-04 -0.7559E-06 -0.9183E-04 -0.1134E-05 -0.2296E-04 -0.2835E-06 -0.1837E-03 -0.2268E-05 -0.7652E-05 -0.9449E-07
     -0.667 -0.4835E-03 -0.2080E-06 -0.1037E-04 -0.4459E-08 -0.3112E-04 -0.1338E-07 -0.2075E-04 -0.8919E-08 -0.9711E-06 -0.4205E-09 -0.1457E-05 -0.6309E-09 -0.3642E-06 -0.1577E-09 -0.2913E-05 -0.1262E-08 -0.1214E-06 -0.5257E-10
     -0.609 -0.3061E-06 -0.6385E-11 -0.6568E-08 -0.1369E-12 -0.1970E-07 -0.4107E-12 -0.1314E-07 -0.2738E-12 -0.6148E-09 -0.1291E-13 -0.9221E-09 -0.1937E-13 -0.2305E-09 -0.4842E-14 -0.1844E-08 -0.3873E-13 -0.7684E-10 -0.1614E-14
     -0.550 -0.1064E-10  0.0000E+00 -0.2283E-12  0.0000E+00 -0.6849E-12  0.0000E+00 -0.4566E-12  0.0000E+00 -0.2137E-13  0.0000E+00 -0.3205E-13  0.0000E+00 -0.8013E-14  0.0000E+00 -0.6411E-13  0.0000E+00 -0.2671E-14  0.0000E+00
     -0.491  0.0000E+00  0.0000E+00  0.0000E+00  0.0000E+00  0.0000E+00  0.0000E+00  0.0000E+00  0.0000E+00  0.0000E+00  0.0000E+00  0.0000E+00  0.0000E+00  0.0000E+00  0.0000E+00  0.0000E+00  0.0000E+00  0.0000E+00  0.0000E+00
     -0.432  0.0000E+00  0.0000E+00  0.0000E+00  0.0000E+00  0.0000E+00  0.0000E+00  0.0000E+00  0.0000E+00  0.0000E+00  0.0000E+00  0.0000E+00  0.0000E+00  0.0000E+00  0.0000E+00  0.0000E+00  0.0000E+00  0.0000E+00  0.0000E+00
     -0.373  0.0000E+00  0.0000E+00  0.0000E+00  0.0000E+00  0.0000E+00  0.0000E+00  0.0000E+00  0.0000E+00  0.0000E+00  0.0000E+00  0.0000E+00  0.0000E+00  0.0000E+00  0.0000E+00  0.0000E+00  0.0000E+00  0.0000E+00  0.0000E+00
     -0.315  0.0000E+00  0.0000E+00  0.0000E+00  0.0000E+00  0.0000E+00  0.0000E+00  0.0000E+00  0.0000E+00  0.0000E+00  0.0000E+00  0.0000E+00  0.0000E+00  0.0000E+00  0.0000E+00  0.0000E+00  0.0000E+00  0.0000E+00  0.0000E+00
     -0.256  0.0000E+00  0.0000E+00  0.0000E+00  0.0000E+00  0.0000E+00  0.0000E+00  0.0000E+00  0.0000E+00  0.0000E+00  0.0000E+00  0.0000E+00  0.0000E+00  0.0000E+00  0.0000E+00  0.0000E+00  0.0000E+00  0.0000E+00  0.0000E+00
     -0.197  0.0000E+00  0.0000E+00  0.0000E+00  0.0000E+00  0.0000E+00  0.0000E+00  0.0000E+00  0.0000E+00  0.0000E+00  0.0000E+00  0.0000E+00  0.0000E+00  0.0000E+00  0.0000E+00  0.0000E+00  0.0000E+00  0.0000E+00  0.0000E+00
     -0.138  0.0000E+00  0.0000E+00  0.0000E+00  0.0000E+00  0.0000E+00  0.0000E+00  0.0000E+00  0.0000E+00  0.0000E+00  0.0000E+00  0.0000E+00  0.0000E+00  0.0000E+00  0.0000E+00  0.0000E+00  0.0000E+00  0.0000E+00  0.0000E+00
     -0.080  0.0000E+00  0.0000E+00  0.0000E+00  0.0000E+00  0.0000E+00  0.0000E+00  0.0000E+00  0.0000E+00  0.0000E+00  0.0000E+00  0.0000E+00  0.0000E+00  0.0000E+00  0.0000E+00  0.0000E+00  0.0000E+00  0.0000E+00  0.0000E+00
     -0.021  0.0000E+00  0.0000E+00  0.0000E+00  0.0000E+00  0.0000E+00  0.0000E+00  0.0000E+00  0.0000E+00  0.0000E+00  0.0000E+00  0.0000E+00  0.0000E+00  0.0000E+00  0.0000E+00  0.0000E+00  0.0000E+00  0.0000E+00  0.0000E+00
      0.038  0.0000E+00  0.0000E+00  0.0000E+00  0.0000E+00  0.0000E+00  0.0000E+00  0.0000E+00  0.0000E+00  0.0000E+00  0.0000E+00  0.0000E+00  0.0000E+00  0.0000E+00  0.0000E+00  0.0000E+00  0.0000E+00  0.0000E+00  0.0000E+00
      0.097  0.0000E+00  0.0000E+00  0.0000E+00  0.0000E+00  0.0000E+00  0.0000E+00  0.0000E+00  0.0000E+00  0.0000E+00  0.0000E+00  0.0000E+00  0.0000E+00  0.0000E+00  0.0000E+00  0.0000E+00  0.0000E+00  0.0000E+00  0.0000E+00
      0.155  0.0000E+00  0.0000E+00  0.0000E+00  0.0000E+00  0.0000E+00  0.0000E+00  0.0000E+00  0.0000E+00  0.0000E+00  0.0000E+00  0.0000E+00  0.0000E+00  0.0000E+00  0.0000E+00  0.0000E+00  0.0000E+00  0.0000E+00  0.0000E+00
      0.214  0.0000E+00  0.0000E+00  0.0000E+00  0.0000E+00  0.0000E+00  0.0000E+00  0.0000E+00  0.0000E+00  0.0000E+00  0.0000E+00  0.0000E+00  0.0000E+00  0.0000E+00  0.0000E+00  0.0000E+00  0.0000E+00  0.0000E+00  0.0000E+00
      0.273  0.0000E+00  0.0000E+00  0.0000E+00  0.0000E+00  0.0000E+00  0.0000E+00  0.0000E+00  0.0000E+00  0.0000E+00  0.0000E+00  0.0000E+00  0.0000E+00  0.0000E+00  0.0000E+00  0.0000E+00  0.0000E+00  0.0000E+00  0.0000E+00
      0.332  0.0000E+00  0.0000E+00  0.0000E+00  0.0000E+00  0.0000E+00  0.0000E+00  0.0000E+00  0.0000E+00  0.0000E+00  0.0000E+00  0.0000E+00  0.0000E+00  0.0000E+00  0.0000E+00  0.0000E+00  0.0000E+00  0.0000E+00  0.0000E+00
      0.391  0.0000E+00  0.0000E+00  0.0000E+00  0.0000E+00  0.0000E+00  0.0000E+00  0.0000E+00  0.0000E+00  0.0000E+00  0.0000E+00  0.0000E+00  0.0000E+00  0.0000E+00  0.0000E+00  0.0000E+00  0.0000E+00  0.0000E+00  0.0000E+00
      0.449  0.0000E+00  0.0000E+00  0.0000E+00  0.0000E+00  0.0000E+00  0.0000E+00  0.0000E+00  0.0000E+00  0.0000E+00  0.0000E+00  0.0000E+00  0.0000E+00  0.0000E+00  0.0000E+00  0.0000E+00  0.0000E+00  0.0000E+00  0.0000E+00
      0.508  0.0000E+00  0.0000E+00  0.0000E+00  0.0000E+00  0.0000E+00  0.0000E+00  0.0000E+00  0.0000E+00  0.0000E+00  0.0000E+00  0.0000E+00  0.0000E+00  0.0000E+00  0.0000E+00  0.0000E+00  0.0000E+00  0.0000E+00  0.0000E+00
      0.567  0.0000E+00  0.0000E+00  0.0000E+00  0.0000E+00  0.0000E+00  0.0000E+00  0.0000E+00  0.0000E+00  0.0000E+00  0.0000E+00  0.0000E+00  0.0000E+00  0.0000E+00  0.0000E+00  0.0000E+00  0.0000E+00  0.0000E+00  0.0000E+00
      0.626  0.0000E+00  0.0000E+00  0.0000E+00  0.0000E+00  0.0000E+00  0.0000E+00  0.0000E+00  0.0000E+00  0.0000E+00  0.0000E+00  0.0000E+00  0.0000E+00  0.0000E+00  0.0000E+00  0.0000E+00  0.0000E+00  0.0000E+00  0.0000E+00
      0.684  0.0000E+00 -0.1083E-30  0.0000E+00 -0.8308E-32  0.0000E+00 -0.2492E-31  0.0000E+00 -0.4154E-32  0.0000E+00 -0.1282E-32  0.0000E+00 -0.7691E-32  0.0000E+00 -0.4326E-32  0.0000E+00 -0.3845E-32  0.0000E+00 -0.1602E-33
      0.743 -0.3015E-30 -0.1147E-22 -0.2305E-31 -0.8800E-24 -0.6914E-31 -0.2640E-23 -0.1152E-31 -0.4400E-24 -0.3616E-32 -0.1358E-24 -0.2170E-31 -0.8146E-24 -0.1221E-31 -0.4582E-24 -0.1085E-31 -0.4073E-24 -0.4520E-33 -0.1697E-25
      0.802 -0.2765E-22 -0.7466E-16 -0.2114E-23 -0.5728E-17 -0.6341E-23 -0.1718E-16 -0.1057E-23 -0.2864E-17 -0.3316E-24 -0.8837E-18 -0.1990E-23 -0.5302E-17 -0.1119E-23 -0.2982E-17 -0.9949E-24 -0.2651E-17 -0.4145E-25 -0.1105E-18
      0.861 -0.1557E-15 -0.2836E-10 -0.1190E-16 -0.2176E-11 -0.3571E-16 -0.6527E-11 -0.5952E-17 -0.1088E-11 -0.1868E-17 -0.3357E-12 -0.1121E-16 -0.2014E-11 -0.6304E-17 -0.1133E-11 -0.5603E-17 -0.1007E-11 -0.2335E-18 -0.4196E-13
      0.920 -0.5110E-10 -0.6490E-06 -0.3906E-11 -0.4979E-07 -0.1172E-10 -0.1494E-06 -0.1953E-11 -0.2490E-07 -0.6129E-12 -0.7682E-08 -0.3677E-11 -0.4609E-07 -0.2069E-11 -0.2593E-07 -0.1839E-11 -0.2304E-07 -0.7661E-13 -0.9602E-09
      0.978 -0.1008E-05 -0.8074E-03 -0.7708E-07 -0.6194E-04 -0.2313E-06 -0.1858E-03 -0.3854E-07 -0.3097E-04 -0.1209E-07 -0.9556E-05 -0.7257E-07 -0.5733E-04 -0.4082E-07 -0.3225E-04 -0.3628E-07 -0.2867E-04 -0.1512E-08 -0.1194E-05
      1.037 -0.1074E-02 -0.3727E-01 -0.8210E-04 -0.2859E-02 -0.2463E-03 -0.8578E-02 -0.4105E-04 -0.1430E-02 -0.1288E-04 -0.4411E-03 -0.7729E-04 -0.2647E-02 -0.4348E-04 -0.1489E-02 -0.3865E-04 -0.1323E-02 -0.1610E-05 -0.5514E-04
      1.096 -0.4007E-01  0.3886E+00 -0.3063E-02  0.2981E-01 -0.9190E-02  0.8943E-01 -0.1532E-02  0.1490E-01 -0.4806E-03  0.4599E-02 -0.2884E-02  0.2759E-01 -0.1622E-02  0.1552E-01 -0.1442E-02  0.1380E-01 -0.6008E-04  0.5748E-03
      1.155  0.4511E+00  0.9540E+00  0.3448E-01  0.7318E-01  0.1034E+00  0.2196E+00  0.1724E-01  0.3659E-01  0.5410E-02  0.1129E-01  0.3246E-01  0.6774E-01  0.1826E-01  0.3811E-01  0.1623E-01  0.3387E-01  0.6763E-03  0.1411E-02
      1.213  0.9059E+00 -0.4993E-02  0.6925E-01 -0.3830E-03  0.2077E+00 -0.1149E-02  0.3462E-01 -0.1915E-03  0.1087E-01 -0.5909E-04  0.6519E-01 -0.3545E-03  0.3667E-01 -0.1994E-03  0.3260E-01 -0.1773E-03  0.1358E-02 -0.7386E-05