    1    1    1    1
  0.1813235E+02  0.2866544E-09  0.2866544E-09  0.2866544E-09  0.5000000E-15
  1.000000000000000E-004
  CAR 
 unknown system                          
    5    6    6
 
  0.1250000E+00  0.1250000E+00  0.1250000E+00  0.1250000E+00
   1        1.137363
   2        4.723949
   3        4.723949
   4        9.781266
   5        9.781266
   6       11.051324
 
  0.3750000E+00  0.1250000E+00  0.1250000E+00  0.1875000E+00
   1        2.669399
   2        4.073832
   3        5.970882
   4       10.105807
   5       10.674224
   6       15.056824
 
 -0.1250000E+00  0.1250000E+00  0.1250000E+00  0.9375000E-01
   1       -0.893920
   2        6.358234
   3        6.358234
   4        7.104761
   5        7.792972
   6       10.383880
 
 -0.3750000E+00  0.3750000E+00  0.1250000E+00  0.3750000E+00
   1        1.830017
   2        5.127109
   3        5.210118
   4        8.435856
   5       10.961320
   6       11.515970
 
 -0.3750000E+00 -0.3750000E+00  0.1250000E+00  0.1250000E+00
   1        4.014322
   2        4.014322
   3        4.225846
   4       10.146509
   5       10.146509
   6       15.101848
 
 -0.3750000E+00  0.3750000E+00  0.3750000E+00  0.9375000E-01
   1        2.678867
   2        2.741156
   3        9.219749
   4        9.219749
   5       11.242308
   6       11.481297
