    1    1    1    2
  0.1813235E+02  0.2866544E-09  0.2866544E-09  0.2866544E-09  0.5000000E-15
  1.000000000000000E-004
  CAR 
 unknown system                          
    5    6    6
 
  0.1250000E+00  0.1250000E+00  0.1250000E+00  0.1250000E+00
   1        1.165733      1.109999
   2        4.724404      4.720102
   3        4.724404      4.720102
   4        9.802289      9.755275
   5        9.802289      9.755275
   6       11.040076     11.056883
 
  0.3750000E+00  0.1250000E+00  0.1250000E+00  0.1875000E+00
   1        2.685619      2.651994
   2        4.072667      4.071900
   3        5.995077      5.946586
   4       10.120679     10.085424
   5       10.693718     10.648791
   6       15.054617     15.055197
 
 -0.1250000E+00  0.1250000E+00  0.1250000E+00  0.9375000E-01
   1       -0.862505     -0.923838
   2        6.345939      6.365668
   3        6.345941      6.365672
   4        7.088481      7.115472
   5        7.829022      7.754175
   6       10.412101     10.350496
 
 -0.3750000E+00  0.3750000E+00  0.1250000E+00  0.3750000E+00
   1        1.854822      1.805063
   2        5.119303      5.130874
   3        5.244789      5.175066
   4        8.446330      8.421543
   5       10.978720     10.938901
   6       11.501099     11.524331
 
 -0.3750000E+00 -0.3750000E+00  0.1250000E+00  0.1250000E+00
   1        4.049326      3.978756
   2        4.049330      3.978758
   3        4.226342      4.222581
   4       10.146058     10.141982
   5       10.146063     10.141987
   6       15.105756     15.094555
 
 -0.3750000E+00  0.3750000E+00  0.3750000E+00  0.9375000E-01
   1        2.718808      2.638369
   2        2.780623      2.701555
   3        9.215307      9.220022
   4        9.215308      9.220024
   5       11.227804     11.250285
   6       11.497071     11.464114
