       N       E                     dE             d eps       ncg     rms          rms(c)
DAV:   1     0.106551343539E+02    0.10655E+02   -0.20159E+03   150   0.565E+02
DAV:   2    -0.100390902955E+01   -0.11659E+02   -0.98847E+01   270   0.701E+01
DAV:   3    -0.113102286206E+01   -0.12711E+00   -0.12496E+00   144   0.101E+01
DAV:   4    -0.113144475796E+01   -0.42190E-03   -0.42119E-03   180   0.422E-01
DAV:   5    -0.113144603924E+01   -0.12813E-05   -0.12808E-05   132   0.246E-02    0.785E+00
DAV:   6    -0.117560235687E+02   -0.10625E+02   -0.33185E+00   144   0.949E+00    0.385E+00
DAV:   7    -0.118581838716E+02   -0.10216E+00   -0.33791E-02   150   0.164E+00    0.367E+00
DAV:   8    -0.101335533551E+02    0.17246E+01   -0.68961E+00   150   0.151E+01    0.628E+00
DAV:   9    -0.116893023018E+02   -0.15557E+01   -0.92546E-01   144   0.660E+00    0.275E+00
DAV:  10    -0.117760783448E+02   -0.86776E-01   -0.21387E-02   162   0.113E+00    0.224E+00
DAV:  11    -0.118073215962E+02   -0.31243E-01   -0.38503E-02   156   0.131E+00    0.234E+00
DAV:  12    -0.119692281425E+02   -0.16191E+00   -0.35018E-01   144   0.357E+00    0.444E-01
DAV:  13    -0.119675622270E+02    0.16659E-02   -0.23772E-03   162   0.401E-01    0.513E-01
DAV:  14    -0.119743058066E+02   -0.67436E-02   -0.14161E-02   150   0.885E-01    0.308E-01
DAV:  15    -0.119757927825E+02   -0.14870E-02   -0.67130E-03   144   0.571E-01    0.116E-01
DAV:  16    -0.119757202903E+02    0.72492E-04   -0.20049E-04   132   0.113E-01
   1 F= -.11975720E+02 E0= -.11975428E+02  d E =-.877923E-03  mag=    -0.0747
