       N       E                     dE             d eps       ncg     rms          rms(c)
DAV:   1    -0.298065681971E+01   -0.29807E+01   -0.18955E+03    72   0.483E+02
DAV:   2    -0.123819624750E+02   -0.94013E+01   -0.88752E+01   132   0.670E+01
DAV:   3    -0.124288664254E+02   -0.46904E-01   -0.46904E-01    72   0.738E+00
DAV:   4    -0.124289477491E+02   -0.81324E-04   -0.81324E-04    90   0.241E-01
DAV:   5    -0.124289478088E+02   -0.59646E-07   -0.59517E-07    78   0.619E-03    0.306E+00
DAV:   6    -0.121208985853E+02    0.30805E+00   -0.18750E-01    72   0.327E+00    0.169E+00
DAV:   7    -0.119759315963E+02    0.14497E+00   -0.37981E-01    72   0.416E+00    0.198E-01
DAV:   8    -0.119764870995E+02   -0.55550E-03   -0.89082E-04    84   0.314E-01    0.241E-01
DAV:   9    -0.119751288348E+02    0.13583E-02   -0.44337E-03    72   0.505E-01    0.236E-02
DAV:  10    -0.119751102965E+02    0.18538E-04   -0.14719E-05    42   0.321E-02
   1 F= -.11975110E+02 E0= -.11974820E+02  d E =-.871607E-03
