 vasp.5.2.12 11Nov11 complex                                                    
  
 executed on             LinuxIFC date 2012.10.17  10:14:48
 running on    1 nodes
 distr:  one band on    1 nodes,    1 groups


--------------------------------------------------------------------------------------------------------


 INCAR:
 POTCAR:    PAW_PBE Ta 17Jan2003                  
 POTCAR:    PAW_PBE Ta 17Jan2003                  
   VRHFIN =Ta:  6s5d                                                            
   LEXCH  = PE                                                                  
   EATOM  =   130.6506 eV,    9.6025 Ry                                         
                                                                                
   TITEL  = PAW_PBE Ta 17Jan2003                                                
   LULTRA =        F    use ultrasoft PP ?                                      
   IUNSCR =        1    unscreen: 0-lin 1-nonlin 2-no                           
   RPACOR =    2.330    partial core radius                                     
   POMASS =  180.948; ZVAL   =    5.000    mass and valenz                      
   RCORE  =    2.900    outmost cutoff radius                                   
   RWIGS  =    2.840; RWIGS  =    1.503    wigner-seitz radius (au A)           
   ENMAX  =  223.667; ENMIN  =  167.750 eV                                      
   RCLOC  =    2.205    cutoff for local pot                                    
   LCOR   =        T    correct aug charges                                     
   LPAW   =        T    paw PP                                                  
   EAUG   =  332.075                                                            
   DEXC   =    -.049                                                            
   RMAX   =    3.083    core radius for proj-oper                               
   RAUG   =    1.300    factor for augmentation sphere                          
   RDEP   =    3.060    radius for radial grids                                 
   QCUT   =   -4.055; QGAM   =    8.109    optimization parameters              
                                                                                
   Description                                                                  
     l     E      TYP  RCUT    TYP  RCUT                                        
     2   .000     23  2.500                                                     
     2   .000     23  2.500                                                     
     0   .000     23  2.500                                                     
     0   .000     23  2.500                                                     
     1   .000     23  2.900                                                     
     1  2.000     23  2.900                                                     
     3   .000      7   .000                                                     
  local pseudopotential read in
  partial core-charges read in
  atomic valenz-charges read in
  non local Contribution for L=           2  read in
    real space projection operators read in
  non local Contribution for L=           2  read in
    real space projection operators read in
  non local Contribution for L=           0  read in
    real space projection operators read in
  non local Contribution for L=           0  read in
    real space projection operators read in
  non local Contribution for L=           1  read in
    real space projection operators read in
  non local Contribution for L=           1  read in
    real space projection operators read in
    PAW grid and wavefunctions read in
 
   number of l-projection  operators is LMAX  =           6
   number of lm-projection operators is LMMAX =          18
 
  PAW_PBE Ta 17Jan2003                  :
 energy of atom  1       EATOM= -130.6506
 kinetic energy error for atom=    0.0044 (will be added to EATOM!!)
 
 
 POSCAR: Ta                                      
  positions in cartesian coordinates
  No initial velocities read in
 exchange correlation table for  LEXCH =        8
   RHO(1)=    0.500       N(1)  =     2000
   RHO(2)=  100.500       N(2)  =     4000
 


--------------------------------------------------------------------------------------------------------


 ion  position               nearest neighbor table
   1  0.000  0.000  0.000-
 
  LATTYP: Found a body centered cubic cell.
 ALAT       =     3.3100000000
  
  Lattice vectors:
  
 A1 = (   2.8665440865,   0.0000000000,   0.0000000000)
 A2 = (  -0.9555146955,   2.7026036829,   0.0000000000)
 A3 = (  -0.9555146955,  -1.3513018414,   2.3405234457)
 Subroutine PRICEL returns:
 Original cell was already a primitive cell.
 

Analysis of symmetry for initial positions (statically):

 Routine SETGRP: Setting up the symmetry group for a 
 body centered cubic supercell.


 Subroutine GETGRP returns: Found 48 space group operations
 (whereof 48 operations were pure point group operations)
 out of a pool of 48 trial point group operations.


The static configuration has the point symmetry O_h .

Analysis of symmetry for dynamics (positions and initial velocities):

 Subroutine DYNSYM returns: Found 48 space group operations
 (whereof 48 operations were pure point group operations)
 out of a pool of 48 trial space group operations
 (whereof 48 operations were pure point group operations)
 and found also     1 'primitive' translations


The dynamic configuration has the point symmetry O_h .

Analysis of magnetic symmetry:

 Subroutine MAGSYM returns: Found 48 space group operations
 (whereof 48 operations were pure point group operations)
 out of a pool of 48 trial space group operations
 (whereof 48 operations were pure point group operations)
 and found also     1 'primitive' translations


The magnetic configuration has the point symmetry O_h .
 
 
 KPOINTS: KPOINTS created by Atomic Simulation Env

Automatic generation of k-mesh.
 
 Subroutine IBZKPT returns following result:
 ===========================================
 
 Found      6 irreducible k-points:
 
 Following reciprocal coordinates:
            Coordinates               Weight
  0.125000  0.125000  0.125000      8.000000
  0.375000  0.125000  0.125000     12.000000
 -0.125000  0.125000  0.125000      6.000000
 -0.375000  0.375000  0.125000     24.000000
 -0.375000 -0.375000  0.125000      8.000000
 -0.375000  0.375000  0.375000      6.000000
 
 Following cartesian coordinates:
            Coordinates               Weight
  0.043607  0.061669  0.106814      8.000000
  0.130820  0.092503  0.160221     12.000000
 -0.043607  0.030834  0.053407      6.000000
 -0.130820  0.092503  0.053407     24.000000
 -0.130820 -0.185007 -0.106814      8.000000
 -0.130820  0.092503  0.160221      6.000000
 


--------------------------------------------------------------------------------------------------------




 Dimension of arrays:
   k-points           NKPTS =      6   k-points in BZ     NKDIM =      6   number of bands    NBANDS=      6
   number of dos      NEDOS =    301   number of ions     NIONS =      1
   non local maximal  LDIM  =      6   non local SUM 2l+1 LMDIM =     18
   total plane-waves  NPLWV =   5832
   max r-space proj   IRMAX =      1   max aug-charges    IRDMAX=  22091
   dimension x,y,z NGX =    18 NGY =   18 NGZ =   18
   dimension x,y,z NGXF=    36 NGYF=   36 NGZF=   36
   support grid    NGXF=    36 NGYF=   36 NGZF=   36
   ions per type =               1
 NGX,Y,Z   is equivalent  to a cutoff of  10.44, 10.44, 10.44 a.u.
 NGXF,Y,Z  is equivalent  to a cutoff of  20.88, 20.88, 20.88 a.u.


 I would recommend the setting:
   dimension x,y,z NGX =    17 NGY =   17 NGZ =   17
 SYSTEM =  unknown system                          
 POSCAR =  Ta                                      

 Startparameter for this run:
   NWRITE =      2    write-flag & timer
   PREC   = accura    normal or accurate (medium, high low for compatibility)
   ISTART =      0    job   : 0-new  1-cont  2-samecut
   ICHARG =      2    charge: 1-file 2-atom 10-const
   ISPIN  =      2    spin polarized calculation?
   LNONCOLLINEAR =      F non collinear calculations
   LSORBIT =      F    spin-orbit coupling
   INIWAV =      1    electr: 0-lowe 1-rand  2-diag
   LASPH  =      F    aspherical Exc in radial PAW
   METAGGA=      F    non-selfconsistent MetaGGA calc.

 Electronic Relaxation 1
   ENCUT  =  350.0 eV  25.72 Ry    5.07 a.u.   4.37  4.37  4.37*2*pi/ulx,y,z
   ENINI  =  350.0     initial cutoff
   ENAUG  =  332.1 eV  augmentation charge cutoff
   NELM   =     60;   NELMIN=  2; NELMDL= -5     # of ELM steps 
   EDIFF  = 0.1E-03   stopping-criterion for ELM
   LREAL  =      F    real-space projection
   NLSPLINE    = F    spline interpolate recip. space projectors
   LCOMPAT=      F    compatible to vasp.4.4
   GGA_COMPAT  = T    GGA compatible to vasp.4.4-vasp.4.6
   LMAXPAW     = -100 max onsite density
   LMAXMIX     =    2 max onsite mixed and CHGCAR
   VOSKOWN=      0    Vosko Wilk Nusair interpolation
   ROPT   =    0.00000
 Ionic relaxation
   EDIFFG = 0.1E-02   stopping-criterion for IOM
   NSW    =      0    number of steps for IOM
   NBLOCK =      1;   KBLOCK =      1    inner block; outer block 
   IBRION =     -1    ionic relax: 0-MD 1-quasi-New 2-CG
   NFREE  =      0    steps in history (QN), initial steepest desc. (CG)
   ISIF   =      2    stress and relaxation
   IWAVPR =     10    prediction:  0-non 1-charg 2-wave 3-comb
   ISYM   =      2    0-nonsym 1-usesym 2-fastsym
   LCORR  =      T    Harris-Foulkes like correction to forces

   POTIM  = 0.5000    time-step for ionic-motion
   TEIN   =    0.0    initial temperature
   TEBEG  =    0.0;   TEEND  =   0.0 temperature during run
   SMASS  =  -3.00    Nose mass-parameter (am)
   estimated Nose-frequenzy (Omega)   =  0.10E-29 period in steps =****** mass=  -0.188E-27a.u.
   SCALEE = 1.0000    scale energy and forces
   NPACO  =    256;   APACO  = 16.0  distance and # of slots for P.C.
   PSTRESS=    0.0 pullay stress

  Mass of Ions in am
   POMASS = 180.95
  Ionic Valenz
   ZVAL   =   5.00
  Atomic Wigner-Seitz radii
   RWIGS  =  -1.00
  virtual crystal weights 
   VCA    =   1.00
   NELECT =       5.0000    total number of electrons
   NUPDOWN=      -1.0000    fix difference up-down

 DOS related values:
   EMIN   =  10.00;   EMAX   =-10.00  energy-range for DOS
   EFERMI =   0.00
   ISMEAR =     1;   SIGMA  =   0.05  broadening in eV -4-tet -1-fermi 0-gaus

 Electronic relaxation 2 (details)
   IALGO  =     38    algorithm
   LDIAG  =      T    sub-space diagonalisation (order eigenvalues)
   LSUBROT=      T    optimize rotation matrix (better conditioning)
   TURBO    =      0    0=normal 1=particle mesh
   IRESTART =      0    0=no restart 2=restart with 2 vectors
   NREBOOT  =      0    no. of reboots
   NMIN     =      0    reboot dimension
   EREF     =   0.00    reference energy to select bands
   IMIX   =      4    mixing-type and parameters
     AMIX     =   0.40;   BMIX     =  1.00
     AMIX_MAG =   1.60;   BMIX_MAG =  1.00
     AMIN     =   0.10
     WC   =   100.;   INIMIX=   1;  MIXPRE=   1

 Intra band minimization:
   WEIMIN = 0.0000     energy-eigenvalue tresh-hold
   EBREAK =  0.42E-05  absolut break condition
   DEPER  =   0.30     relativ break condition  

   TIME   =   0.40     timestep for ELM

  volume/ion in A,a.u.               =      18.13       122.36
  Fermi-wavevector in a.u.,A,eV,Ry     =   1.065566  2.013627 15.448462  1.135430
  Thomas-Fermi vector in A             =   2.201121
 
 Write flags
   LWAVE  =      T    write WAVECAR
   LCHARG =      T    write CHGCAR
   LVTOT  =      F    write LOCPOT, total local potential
   LVHAR  =      F    write LOCPOT, Hartree potential only
   LELF   =      F    write electronic localiz. function (ELF)
   LORBIT =     11    0 simple, 1 ext, 2 COOP (PROOUT)


 Dipole corrections
   LMONO  =      F    monopole corrections only (constant potential shift)
   LDIPOL =      F    correct potential (dipole corrections)
   IDIPOL =      0    1-x, 2-y, 3-z, 4-all directions 
   EPSILON=  1.0000000 bulk dielectric constant

 Exchange correlation treatment:
   GGA     =    --    GGA type
   LEXCH   =     8    internal setting for exchange type
   VOSKOWN=      0    Vosko Wilk Nusair interpolation
   LHFCALC =     F    Hartree Fock is set to
   LHFONE  =     F    Hartree Fock one center treatment
   AEXX    =    0.0000 exact exchange contribution

 Linear response parameters
   LEPSILON=     F    determine dielectric tensor
   LRPA    =     F    only Hartree local field effects (RPA)
   LNABLA  =     F    use nabla operator in PAW spheres
   LVEL    =     F    velocity operator in full k-point grid
   LINTERFAST=   F  fast interpolation
   KINTER  =     0    interpolate to denser k-point grid
   CSHIFT  =0.1000    complex shift for real part using Kramers Kronig
   OMEGAMAX=  -1.0    maximum frequency
   RTIME   =    0.100 relaxation time in fs

 Orbital magnetization related:
   ORBITALMAG=     F  switch on orbital magnetization
   LCHIMAG   =     F  perturbation theory with respect to B field
   DQ        =  0.001000  dq finite difference perturbation B field



--------------------------------------------------------------------------------------------------------


 Static calculation
 charge density and potential will be updated during run
 spin polarized calculation
 Variant of blocked Davidson
 Davidson routine will perform the subspace rotation
 perform sub-space diagonalisation
    after iterative eigenvector-optimisation
 modified Broyden-mixing scheme, WC =      100.0
 initial mixing is a Kerker type mixing with AMIX =  0.4000 and BMIX =      1.0000
 Hartree-type preconditioning will be used
 using additional bands            3
 reciprocal scheme for non local part
 use partial core corrections
 calculate Harris-corrections to forces 
   (improved forces if not selfconsistent)
 use gradient corrections 
 use of overlap-Matrix (Vanderbilt PP)
 Methfessel and Paxton  Order N= 1 SIGMA  =   0.05


--------------------------------------------------------------------------------------------------------


  energy-cutoff  :      350.00
  volume of cell :       18.13
      direct lattice vectors                 reciprocal lattice vectors
     2.866544087  0.000000000  0.000000000     0.348852126  0.123337852  0.213627426
    -0.955514696  2.702603683  0.000000000     0.000000000  0.370013556  0.213627426
    -0.955514696 -1.351301841  2.340523446     0.000000000  0.000000000  0.427254853

  length of vectors
     2.866544087  2.866544087  2.866544087     0.427254853  0.427254853  0.427254853


 
 k-points in units of 2pi/SCALE and weight: KPOINTS created by Atomic Simulation Env
   0.04360652  0.06166893  0.10681371       0.125
   0.13081955  0.09250339  0.16022057       0.188
  -0.04360652  0.03083446  0.05340686       0.094
  -0.13081955  0.09250339  0.05340686       0.375
  -0.13081955 -0.18500678 -0.10681371       0.125
  -0.13081955  0.09250339  0.16022057       0.094
 
 k-points in reciprocal lattice and weights: KPOINTS created by Atomic Simulation Env
   0.12500000  0.12500000  0.12500000       0.125
   0.37500000  0.12500000  0.12500000       0.188
  -0.12500000  0.12500000  0.12500000       0.094
  -0.37500000  0.37500000  0.12500000       0.375
  -0.37500000 -0.37500000  0.12500000       0.125
  -0.37500000  0.37500000  0.37500000       0.094
 
 position of ions in fractional coordinates (direct lattice) 
   0.00000000  0.00000000  0.00000000
 
 position of ions in cartesian coordinates  (Angst):
   0.00000000  0.00000000  0.00000000
 


--------------------------------------------------------------------------------------------------------


 k-point  1 :  0.12500.12500.1250  plane waves:     267
 k-point  2 :  0.37500.12500.1250  plane waves:     268
 k-point  3 :  -.12500.12500.1250  plane waves:     265
 k-point  4 :  -.37500.37500.1250  plane waves:     271
 k-point  5 :  -.3750-.37500.1250  plane waves:     267
 k-point  6 :  -.37500.37500.3750  plane waves:     261

 maximum and minimum number of plane-waves per node :       271      261

 maximum number of plane-waves:       271
 maximum index in each direction: 
   IXMAX=    4   IYMAX=    4   IZMAX=    4
   IXMIN=   -4   IYMIN=   -4   IZMIN=   -4

 NGX is ok and might be reduce to  18
 NGY is ok and might be reduce to  18
 NGZ is ok and might be reduce to  18

 serial   3D FFT for wavefunctions
 parallel 3D FFT for charge:
    minimum data exchange during FFTs selected (reduces bandwidth)


 total amount of memory used by VASP on root node    36258. kBytes
========================================================================

   base      :      30000. kBytes
   nonl-proj :        238. kBytes
   fftplans  :       1676. kBytes
   grid      :       3981. kBytes
   one-center:         31. kBytes
   wavefun   :        332. kBytes
 
 Broyden mixing: mesh for mixing (old mesh)
   NGX =  9   NGY =  9   NGZ =  9
  (NGX  = 36   NGY  = 36   NGZ  = 36)
  gives a total of    729 points

 initial charge density was supplied:
 charge density of overlapping atoms calculated
 number of electron       5.0000000 magnetization       6.0000000
 keeping initial charge density in first step


--------------------------------------------------------------------------------------------------------


 Maximum index for augmentation-charges        21187 (set IRDMAX)


--------------------------------------------------------------------------------------------------------


 First call to EWALD:  gamma=   0.675
 Maximum number of real-space cells 3x 3x 3
 Maximum number of reciprocal cells 3x 3x 3

    FEWALD:  cpu time    0.00: real time    0.00


----------------------------------------- Iteration    1(   1)  ---------------------------------------


    POTLOK:  cpu time    0.14: real time    0.14
    SETDIJ:  cpu time    0.03: real time    0.04
     EDDAV:  cpu time    0.14: real time    0.14
       DOS:  cpu time    0.00: real time    0.00
    --------------------------------------------
      LOOP:  cpu time    0.32: real time    0.34

 eigenvalue-minimisations  :   150
 total energy-change (2. order) : 0.1065513E+02  (-0.2015946E+03)
 number of electron       5.0000000 magnetization       6.0000000
 augmentation part        5.0000000 magnetization       6.0000000

 Free energy of the ion-electron system (eV)
  ---------------------------------------------------
  alpha Z        PSCENC =        30.58334069
  Ewald energy   TEWEN  =      -197.90100875
  -1/2 Hartree   DENC   =        -2.50452612
  -exchange  EXHF       =         0.00000000
  -V(xc)+E(xc)   XCENC  =       -60.69825643
  PAW double counting   =       143.51874798      -69.33493833
  entropy T*S    EENTRO =        -0.00193387
  eigenvalues    EBANDS =        36.34749438
  atomic energy  EATOM  =       130.64621481
  ---------------------------------------------------
  free energy    TOTEN  =        10.65513435 eV

  energy without entropy =       10.65706822  energy(sigma->0) =       10.65577898


--------------------------------------------------------------------------------------------------------




----------------------------------------- Iteration    1(   2)  ---------------------------------------


     EDDAV:  cpu time    0.22: real time    0.23
       DOS:  cpu time    0.00: real time    0.00
    --------------------------------------------
      LOOP:  cpu time    0.23: real time    0.24

 eigenvalue-minimisations  :   270
 total energy-change (2. order) :-0.1165904E+02  (-0.9884661E+01)
 number of electron       5.0000000 magnetization       6.0000000
 augmentation part        5.0000000 magnetization       6.0000000

 Free energy of the ion-electron system (eV)
  ---------------------------------------------------
  alpha Z        PSCENC =        30.58334069
  Ewald energy   TEWEN  =      -197.90100875
  -1/2 Hartree   DENC   =        -2.50452612
  -exchange  EXHF       =         0.00000000
  -V(xc)+E(xc)   XCENC  =       -60.69825643
  PAW double counting   =       143.51874798      -69.33493833
  entropy T*S    EENTRO =        -0.00010114
  eigenvalues    EBANDS =        24.68661826
  atomic energy  EATOM  =       130.64621481
  ---------------------------------------------------
  free energy    TOTEN  =        -1.00390903 eV

  energy without entropy =       -1.00380789  energy(sigma->0) =       -1.00387532


--------------------------------------------------------------------------------------------------------




----------------------------------------- Iteration    1(   3)  ---------------------------------------


     EDDAV:  cpu time    0.13: real time    0.13
       DOS:  cpu time    0.00: real time    0.00
    --------------------------------------------
      LOOP:  cpu time    0.14: real time    0.16

 eigenvalue-minimisations  :   144
 total energy-change (2. order) :-0.1271138E+00  (-0.1249632E+00)
 number of electron       5.0000000 magnetization       6.0000000
 augmentation part        5.0000000 magnetization       6.0000000

 Free energy of the ion-electron system (eV)
  ---------------------------------------------------
  alpha Z        PSCENC =        30.58334069
  Ewald energy   TEWEN  =      -197.90100875
  -1/2 Hartree   DENC   =        -2.50452612
  -exchange  EXHF       =         0.00000000
  -V(xc)+E(xc)   XCENC  =       -60.69825643
  PAW double counting   =       143.51874798      -69.33493833
  entropy T*S    EENTRO =        -0.00116680
  eigenvalues    EBANDS =        24.56057009
  atomic energy  EATOM  =       130.64621481
  ---------------------------------------------------
  free energy    TOTEN  =        -1.13102286 eV

  energy without entropy =       -1.12985606  energy(sigma->0) =       -1.13063393


--------------------------------------------------------------------------------------------------------




----------------------------------------- Iteration    1(   4)  ---------------------------------------


     EDDAV:  cpu time    0.16: real time    0.16
       DOS:  cpu time    0.00: real time    0.00
    --------------------------------------------
      LOOP:  cpu time    0.17: real time    0.18

 eigenvalue-minimisations  :   180
 total energy-change (2. order) :-0.4218959E-03  (-0.4211878E-03)
 number of electron       5.0000000 magnetization       6.0000000
 augmentation part        5.0000000 magnetization       6.0000000

 Free energy of the ion-electron system (eV)
  ---------------------------------------------------
  alpha Z        PSCENC =        30.58334069
  Ewald energy   TEWEN  =      -197.90100875
  -1/2 Hartree   DENC   =        -2.50452612
  -exchange  EXHF       =         0.00000000
  -V(xc)+E(xc)   XCENC  =       -60.69825643
  PAW double counting   =       143.51874798      -69.33493833
  entropy T*S    EENTRO =        -0.00116815
  eigenvalues    EBANDS =        24.56014954
  atomic energy  EATOM  =       130.64621481
  ---------------------------------------------------
  free energy    TOTEN  =        -1.13144476 eV

  energy without entropy =       -1.13027661  energy(sigma->0) =       -1.13105538


--------------------------------------------------------------------------------------------------------




----------------------------------------- Iteration    1(   5)  ---------------------------------------


     EDDAV:  cpu time    0.13: real time    0.13
       DOS:  cpu time    0.00: real time    0.00
    CHARGE:  cpu time    0.05: real time    0.05
    MIXING:  cpu time    0.00: real time    0.00
    --------------------------------------------
      LOOP:  cpu time    0.19: real time    0.21

 eigenvalue-minimisations  :   132
 total energy-change (2. order) :-0.1281282E-05  (-0.1280817E-05)
 number of electron       5.0000001 magnetization       1.8727126
 augmentation part        0.4506567 magnetization      -0.8738699

 Broyden mixing:
  rms(total) = 0.78484E+00    rms(broyden)= 0.78484E+00
  rms(prec ) = 0.10235E+01
  weight for this iteration     100.00

 Free energy of the ion-electron system (eV)
  ---------------------------------------------------
  alpha Z        PSCENC =        30.58334069
  Ewald energy   TEWEN  =      -197.90100875
  -1/2 Hartree   DENC   =        -2.50452612
  -exchange  EXHF       =         0.00000000
  -V(xc)+E(xc)   XCENC  =       -60.69825643
  PAW double counting   =       143.51874798      -69.33493833
  entropy T*S    EENTRO =        -0.00116814
  eigenvalues    EBANDS =        24.56014826
  atomic energy  EATOM  =       130.64621481
  ---------------------------------------------------
  free energy    TOTEN  =        -1.13144604 eV

  energy without entropy =       -1.13027790  energy(sigma->0) =       -1.13105666


--------------------------------------------------------------------------------------------------------




----------------------------------------- Iteration    1(   6)  ---------------------------------------


    POTLOK:  cpu time    0.14: real time    0.14
    SETDIJ:  cpu time    0.04: real time    0.05
     EDDAV:  cpu time    0.13: real time    0.13
       DOS:  cpu time    0.00: real time    0.00
    CHARGE:  cpu time    0.05: real time    0.05
    MIXING:  cpu time    0.00: real time    0.00
    --------------------------------------------
      LOOP:  cpu time    0.37: real time    0.41

 eigenvalue-minimisations  :   144
 total energy-change (2. order) :-0.1062458E+02  (-0.3318539E+00)
 number of electron       5.0000001 magnetization       1.5643305
 augmentation part        0.3641513 magnetization       0.9342926

 Broyden mixing:
  rms(total) = 0.38476E+00    rms(broyden)= 0.38475E+00
  rms(prec ) = 0.11566E+01
  weight for this iteration     100.00

 eigenvalues of (default mixing * dielectric matrix)
  average eigenvalue GAMMA=   1.4582
  1.4582

 Free energy of the ion-electron system (eV)
  ---------------------------------------------------
  alpha Z        PSCENC =        30.58334069
  Ewald energy   TEWEN  =      -197.90100875
  -1/2 Hartree   DENC   =        -1.94897868
  -exchange  EXHF       =         0.00000000
  -V(xc)+E(xc)   XCENC  =       -66.19163519
  PAW double counting   =       163.60134055      -89.67054510
  entropy T*S    EENTRO =        -0.00027834
  eigenvalues    EBANDS =        19.12552643
  atomic energy  EATOM  =       130.64621481
  ---------------------------------------------------
  free energy    TOTEN  =       -11.75602357 eV

  energy without entropy =      -11.75574523  energy(sigma->0) =      -11.75593079


--------------------------------------------------------------------------------------------------------




----------------------------------------- Iteration    1(   7)  ---------------------------------------


    POTLOK:  cpu time    0.14: real time    0.14
    SETDIJ:  cpu time    0.04: real time    0.04
     EDDAV:  cpu time    0.14: real time    0.14
       DOS:  cpu time    0.00: real time    0.00
    CHARGE:  cpu time    0.04: real time    0.05
    MIXING:  cpu time    0.00: real time    0.00
    --------------------------------------------
      LOOP:  cpu time    0.37: real time    0.40

 eigenvalue-minimisations  :   150
 total energy-change (2. order) :-0.1021603E+00  (-0.3379103E-02)
 number of electron       5.0000001 magnetization      -2.8009812
 augmentation part        0.3633278 magnetization      -3.2057463

 Broyden mixing:
  rms(total) = 0.36693E+00    rms(broyden)= 0.36692E+00
  rms(prec ) = 0.10819E+01
  weight for this iteration     100.00

 eigenvalues of (default mixing * dielectric matrix)
  average eigenvalue GAMMA=   0.9451
  1.6167  0.2736

 Free energy of the ion-electron system (eV)
  ---------------------------------------------------
  alpha Z        PSCENC =        30.58334069
  Ewald energy   TEWEN  =      -197.90100875
  -1/2 Hartree   DENC   =        -1.79118491
  -exchange  EXHF       =         0.00000000
  -V(xc)+E(xc)   XCENC  =       -66.25662081
  PAW double counting   =       166.21731727      -92.33251956
  entropy T*S    EENTRO =        -0.00222255
  eigenvalues    EBANDS =        18.97849995
  atomic energy  EATOM  =       130.64621481
  ---------------------------------------------------
  free energy    TOTEN  =       -11.85818387 eV

  energy without entropy =      -11.85596132  energy(sigma->0) =      -11.85744302


--------------------------------------------------------------------------------------------------------




----------------------------------------- Iteration    1(   8)  ---------------------------------------


    POTLOK:  cpu time    0.15: real time    0.15
    SETDIJ:  cpu time    0.04: real time    0.04
     EDDAV:  cpu time    0.14: real time    0.14
       DOS:  cpu time    0.00: real time    0.00
    CHARGE:  cpu time    0.05: real time    0.05
    MIXING:  cpu time    0.00: real time    0.00
    --------------------------------------------
      LOOP:  cpu time    0.38: real time    0.40

 eigenvalue-minimisations  :   150
 total energy-change (2. order) : 0.1724631E+01  (-0.6896084E+00)
 number of electron       5.0000001 magnetization      -0.8058796
 augmentation part        0.4097683 magnetization       0.0687303

 Broyden mixing:
  rms(total) = 0.62824E+00    rms(broyden)= 0.62823E+00
  rms(prec ) = 0.66551E+00
  weight for this iteration     100.00

 eigenvalues of (default mixing * dielectric matrix)
  average eigenvalue GAMMA=   1.0578
  1.3242  1.3242  0.5251

 Free energy of the ion-electron system (eV)
  ---------------------------------------------------
  alpha Z        PSCENC =        30.58334069
  Ewald energy   TEWEN  =      -197.90100875
  -1/2 Hartree   DENC   =        -0.36767548
  -exchange  EXHF       =         0.00000000
  -V(xc)+E(xc)   XCENC  =       -64.14645824
  PAW double counting   =       185.34013876     -111.85153194
  entropy T*S    EENTRO =        -0.00164699
  eigenvalues    EBANDS =        17.56507379
  atomic energy  EATOM  =       130.64621481
  ---------------------------------------------------
  free energy    TOTEN  =       -10.13355336 eV

  energy without entropy =      -10.13190637  energy(sigma->0) =      -10.13300436


--------------------------------------------------------------------------------------------------------




----------------------------------------- Iteration    1(   9)  ---------------------------------------


    POTLOK:  cpu time    0.15: real time    0.15
    SETDIJ:  cpu time    0.04: real time    0.04
     EDDAV:  cpu time    0.13: real time    0.13
       DOS:  cpu time    0.00: real time    0.00
    CHARGE:  cpu time    0.05: real time    0.05
    MIXING:  cpu time    0.00: real time    0.00
    --------------------------------------------
      LOOP:  cpu time    0.38: real time    0.41

 eigenvalue-minimisations  :   144
 total energy-change (2. order) :-0.1555749E+01  (-0.9254580E-01)
 number of electron       5.0000001 magnetization      -0.6413153
 augmentation part        0.4011333 magnetization      -0.5963466

 Broyden mixing:
  rms(total) = 0.27527E+00    rms(broyden)= 0.27526E+00
  rms(prec ) = 0.28082E+00
  weight for this iteration     100.00

 eigenvalues of (default mixing * dielectric matrix)
  average eigenvalue GAMMA=   0.9450
  1.3074  1.3074  0.5826  0.5826

 Free energy of the ion-electron system (eV)
  ---------------------------------------------------
  alpha Z        PSCENC =        30.58334069
  Ewald energy   TEWEN  =      -197.90100875
  -1/2 Hartree   DENC   =        -0.60101193
  -exchange  EXHF       =         0.00000000
  -V(xc)+E(xc)   XCENC  =       -65.86600369
  PAW double counting   =       182.80572217     -109.31197998
  entropy T*S    EENTRO =        -0.00076885
  eigenvalues    EBANDS =        17.95619323
  atomic energy  EATOM  =       130.64621481
  ---------------------------------------------------
  free energy    TOTEN  =       -11.68930230 eV

  energy without entropy =      -11.68853346  energy(sigma->0) =      -11.68904602


--------------------------------------------------------------------------------------------------------




----------------------------------------- Iteration    1(  10)  ---------------------------------------


    POTLOK:  cpu time    0.14: real time    0.14
    SETDIJ:  cpu time    0.04: real time    0.04
     EDDAV:  cpu time    0.15: real time    0.15
       DOS:  cpu time    0.00: real time    0.00
    CHARGE:  cpu time    0.05: real time    0.05
    MIXING:  cpu time    0.00: real time    0.00
    --------------------------------------------
      LOOP:  cpu time    0.38: real time    0.40

 eigenvalue-minimisations  :   162
 total energy-change (2. order) :-0.8677604E-01  (-0.2138670E-02)
 number of electron       5.0000001 magnetization      -0.8415292
 augmentation part        0.4006868 magnetization      -0.7882614

 Broyden mixing:
  rms(total) = 0.22448E+00    rms(broyden)= 0.22448E+00
  rms(prec ) = 0.23112E+00
  weight for this iteration     100.00

 eigenvalues of (default mixing * dielectric matrix)
  average eigenvalue GAMMA=   1.0375
  1.7372  0.9113  0.9113  1.0386  0.5889

 Free energy of the ion-electron system (eV)
  ---------------------------------------------------
  alpha Z        PSCENC =        30.58334069
  Ewald energy   TEWEN  =      -197.90100875
  -1/2 Hartree   DENC   =        -0.60977612
  -exchange  EXHF       =         0.00000000
  -V(xc)+E(xc)   XCENC  =       -65.92048653
  PAW double counting   =       183.31426799     -109.81601492
  entropy T*S    EENTRO =        -0.00135225
  eigenvalues    EBANDS =        17.92873673
  atomic energy  EATOM  =       130.64621481
  ---------------------------------------------------
  free energy    TOTEN  =       -11.77607834 eV

  energy without entropy =      -11.77472609  energy(sigma->0) =      -11.77562759


--------------------------------------------------------------------------------------------------------




----------------------------------------- Iteration    1(  11)  ---------------------------------------


    POTLOK:  cpu time    0.14: real time    0.14
    SETDIJ:  cpu time    0.04: real time    0.04
     EDDAV:  cpu time    0.14: real time    0.14
       DOS:  cpu time    0.00: real time    0.00
    CHARGE:  cpu time    0.05: real time    0.05
    MIXING:  cpu time    0.00: real time    0.00
    --------------------------------------------
      LOOP:  cpu time    0.38: real time    0.39

 eigenvalue-minimisations  :   156
 total energy-change (2. order) :-0.3124325E-01  (-0.3850301E-02)
 number of electron       5.0000001 magnetization       0.1614464
 augmentation part        0.4037377 magnetization       0.2169266

 Broyden mixing:
  rms(total) = 0.23436E+00    rms(broyden)= 0.23436E+00
  rms(prec ) = 0.24830E+00
  weight for this iteration     100.00

 eigenvalues of (default mixing * dielectric matrix)
  average eigenvalue GAMMA=   1.1712
  1.9396  1.9396  1.0412  0.7387  0.7387  0.6295

 Free energy of the ion-electron system (eV)
  ---------------------------------------------------
  alpha Z        PSCENC =        30.58334069
  Ewald energy   TEWEN  =      -197.90100875
  -1/2 Hartree   DENC   =        -0.53325269
  -exchange  EXHF       =         0.00000000
  -V(xc)+E(xc)   XCENC  =       -65.87795087
  PAW double counting   =       187.73124857     -114.27178345
  entropy T*S    EENTRO =        -0.00134387
  eigenvalues    EBANDS =        17.81721396
  atomic energy  EATOM  =       130.64621481
  ---------------------------------------------------
  free energy    TOTEN  =       -11.80732160 eV

  energy without entropy =      -11.80597772  energy(sigma->0) =      -11.80687364


--------------------------------------------------------------------------------------------------------




----------------------------------------- Iteration    1(  12)  ---------------------------------------


    POTLOK:  cpu time    0.14: real time    0.14
    SETDIJ:  cpu time    0.04: real time    0.04
     EDDAV:  cpu time    0.13: real time    0.13
       DOS:  cpu time    0.00: real time    0.00
    CHARGE:  cpu time    0.04: real time    0.05
    MIXING:  cpu time    0.00: real time    0.00
    --------------------------------------------
      LOOP:  cpu time    0.37: real time    0.39

 eigenvalue-minimisations  :   144
 total energy-change (2. order) :-0.1619065E+00  (-0.3501829E-01)
 number of electron       5.0000001 magnetization       0.2013606
 augmentation part        0.4039985 magnetization       0.1199749

 Broyden mixing:
  rms(total) = 0.44385E-01    rms(broyden)= 0.44384E-01
  rms(prec ) = 0.61047E-01
  weight for this iteration     100.00

 eigenvalues of (default mixing * dielectric matrix)
  average eigenvalue GAMMA=   1.0056
  1.9419  1.9419  1.0377  0.7402  0.7402  0.6282  0.0088

 Free energy of the ion-electron system (eV)
  ---------------------------------------------------
  alpha Z        PSCENC =        30.58334069
  Ewald energy   TEWEN  =      -197.90100875
  -1/2 Hartree   DENC   =        -0.62559024
  -exchange  EXHF       =         0.00000000
  -V(xc)+E(xc)   XCENC  =       -66.02320061
  PAW double counting   =       191.97095526     -118.48664878
  entropy T*S    EENTRO =         0.00030366
  eigenvalues    EBANDS =        17.86640582
  atomic energy  EATOM  =       130.64621481
  ---------------------------------------------------
  free energy    TOTEN  =       -11.96922814 eV

  energy without entropy =      -11.96953180  energy(sigma->0) =      -11.96932936


--------------------------------------------------------------------------------------------------------




----------------------------------------- Iteration    1(  13)  ---------------------------------------


    POTLOK:  cpu time    0.14: real time    0.14
    SETDIJ:  cpu time    0.03: real time    0.03
     EDDAV:  cpu time    0.15: real time    0.15
       DOS:  cpu time    0.00: real time    0.00
    CHARGE:  cpu time    0.04: real time    0.04
    MIXING:  cpu time    0.00: real time    0.00
    --------------------------------------------
      LOOP:  cpu time    0.38: real time    0.39

 eigenvalue-minimisations  :   162
 total energy-change (2. order) : 0.1665916E-02  (-0.2377198E-03)
 number of electron       5.0000001 magnetization      -0.1562394
 augmentation part        0.4034113 magnetization      -0.2219190

 Broyden mixing:
  rms(total) = 0.51316E-01    rms(broyden)= 0.51316E-01
  rms(prec ) = 0.60565E-01
  weight for this iteration     100.00

 eigenvalues of (default mixing * dielectric matrix)
  average eigenvalue GAMMA=   1.0398
  2.1211  1.5213  1.5213  0.7295  0.7295  0.6695  0.5132  0.5132

 Free energy of the ion-electron system (eV)
  ---------------------------------------------------
  alpha Z        PSCENC =        30.58334069
  Ewald energy   TEWEN  =      -197.90100875
  -1/2 Hartree   DENC   =        -0.63444791
  -exchange  EXHF       =         0.00000000
  -V(xc)+E(xc)   XCENC  =       -66.02553976
  PAW double counting   =       192.21690152     -118.73121856
  entropy T*S    EENTRO =        -0.00034828
  eigenvalues    EBANDS =        17.87854402
  atomic energy  EATOM  =       130.64621481
  ---------------------------------------------------
  free energy    TOTEN  =       -11.96756223 eV

  energy without entropy =      -11.96721395  energy(sigma->0) =      -11.96744613


--------------------------------------------------------------------------------------------------------




----------------------------------------- Iteration    1(  14)  ---------------------------------------


    POTLOK:  cpu time    0.14: real time    0.14
    SETDIJ:  cpu time    0.03: real time    0.04
     EDDAV:  cpu time    0.14: real time    0.14
       DOS:  cpu time    0.00: real time    0.00
    CHARGE:  cpu time    0.04: real time    0.04
    MIXING:  cpu time    0.00: real time    0.00
    --------------------------------------------
      LOOP:  cpu time    0.37: real time    0.39

 eigenvalue-minimisations  :   150
 total energy-change (2. order) :-0.6743580E-02  (-0.1416148E-02)
 number of electron       5.0000001 magnetization      -0.0861944
 augmentation part        0.4044697 magnetization      -0.0256264

 Broyden mixing:
  rms(total) = 0.30811E-01    rms(broyden)= 0.30811E-01
  rms(prec ) = 0.57633E-01
  weight for this iteration     100.00

 eigenvalues of (default mixing * dielectric matrix)
  average eigenvalue GAMMA=   1.1576
  2.9818  1.6896  1.6896  0.9489  0.7431  0.7431  0.5805  0.5805  0.4618

 Free energy of the ion-electron system (eV)
  ---------------------------------------------------
  alpha Z        PSCENC =        30.58334069
  Ewald energy   TEWEN  =      -197.90100875
  -1/2 Hartree   DENC   =        -0.60163658
  -exchange  EXHF       =         0.00000000
  -V(xc)+E(xc)   XCENC  =       -66.00778159
  PAW double counting   =       193.33353766     -119.86382015
  entropy T*S    EENTRO =        -0.00096046
  eigenvalues    EBANDS =        17.83780856
  atomic energy  EATOM  =       130.64621481
  ---------------------------------------------------
  free energy    TOTEN  =       -11.97430581 eV

  energy without entropy =      -11.97334534  energy(sigma->0) =      -11.97398565


--------------------------------------------------------------------------------------------------------




----------------------------------------- Iteration    1(  15)  ---------------------------------------


    POTLOK:  cpu time    0.14: real time    0.14
    SETDIJ:  cpu time    0.03: real time    0.04
     EDDAV:  cpu time    0.13: real time    0.13
       DOS:  cpu time    0.00: real time    0.00
    CHARGE:  cpu time    0.04: real time    0.04
    MIXING:  cpu time    0.00: real time    0.00
    --------------------------------------------
      LOOP:  cpu time    0.36: real time    0.39

 eigenvalue-minimisations  :   144
 total energy-change (2. order) :-0.1486976E-02  (-0.6712951E-03)
 number of electron       5.0000001 magnetization      -0.0435273
 augmentation part        0.4037111 magnetization       0.0158175

 Broyden mixing:
  rms(total) = 0.11622E-01    rms(broyden)= 0.11622E-01
  rms(prec ) = 0.23228E-01
  weight for this iteration     100.00

 eigenvalues of (default mixing * dielectric matrix)
  average eigenvalue GAMMA=   1.1661
  2.5624  2.5624  1.3286  1.3286  0.8347  0.8347  0.6517  0.6042  0.4769  0.4769

 Free energy of the ion-electron system (eV)
  ---------------------------------------------------
  alpha Z        PSCENC =        30.58334069
  Ewald energy   TEWEN  =      -197.90100875
  -1/2 Hartree   DENC   =        -0.62741937
  -exchange  EXHF       =         0.00000000
  -V(xc)+E(xc)   XCENC  =       -66.01896975
  PAW double counting   =       194.34212084     -120.86643743
  entropy T*S    EENTRO =        -0.00128438
  eigenvalues    EBANDS =        17.86765055
  atomic energy  EATOM  =       130.64621481
  ---------------------------------------------------
  free energy    TOTEN  =       -11.97579278 eV

  energy without entropy =      -11.97450840  energy(sigma->0) =      -11.97536466


--------------------------------------------------------------------------------------------------------




----------------------------------------- Iteration    1(  16)  ---------------------------------------


    POTLOK:  cpu time    0.14: real time    0.14
    SETDIJ:  cpu time    0.04: real time    0.04
     EDDAV:  cpu time    0.13: real time    0.13
       DOS:  cpu time    0.00: real time    0.00
    --------------------------------------------
      LOOP:  cpu time    0.31: real time    0.33

 eigenvalue-minimisations  :   132
 total energy-change (2. order) : 0.7249228E-04  (-0.2004883E-04)
 number of electron       5.0000001 magnetization      -0.0435273
 augmentation part        0.4037111 magnetization       0.0158175

 Free energy of the ion-electron system (eV)
  ---------------------------------------------------
  alpha Z        PSCENC =        30.58334069
  Ewald energy   TEWEN  =      -197.90100875
  -1/2 Hartree   DENC   =        -0.64032257
  -exchange  EXHF       =         0.00000000
  -V(xc)+E(xc)   XCENC  =       -66.02655532
  PAW double counting   =       193.92752032     -120.44491243
  entropy T*S    EENTRO =        -0.00087792
  eigenvalues    EBANDS =        17.88088087
  atomic energy  EATOM  =       130.64621481
  ---------------------------------------------------
  free energy    TOTEN  =       -11.97572029 eV

  energy without entropy =      -11.97484237  energy(sigma->0) =      -11.97542765


--------------------------------------------------------------------------------------------------------




 average (electrostatic) potential at core
  the test charge radii are     1.2538
  (the norm of the test charge is              1.0000)
       1 -34.9925
 
 
 
 E-fermi :   5.2654     XC(G=0): -12.3605     alpha+bet :-13.5035


 spin component 1

 k-point   1 :       0.1250    0.1250    0.1250
  band No.  band energies     occupation 
      1       1.1657      1.00000
      2       4.7244      1.00000
      3       4.7244      1.00000
      4       9.8023      0.00000
      5       9.8023      0.00000
      6      11.0401      0.00000

 k-point   2 :       0.3750    0.1250    0.1250
  band No.  band energies     occupation 
      1       2.6856      1.00000
      2       4.0727      1.00000
      3       5.9951      0.00000
      4      10.1207      0.00000
      5      10.6937      0.00000
      6      15.0546      0.00000

 k-point   3 :      -0.1250    0.1250    0.1250
  band No.  band energies     occupation 
      1      -0.8625      1.00000
      2       6.3459      0.00000
      3       6.3459      0.00000
      4       7.0885      0.00000
      5       7.8290      0.00000
      6      10.4121      0.00000

 k-point   4 :      -0.3750    0.3750    0.1250
  band No.  band energies     occupation 
      1       1.8548      1.00000
      2       5.1193      1.00014
      3       5.2448      0.81857
      4       8.4463      0.00000
      5      10.9787      0.00000
      6      11.5011      0.00000

 k-point   5 :      -0.3750   -0.3750    0.1250
  band No.  band energies     occupation 
      1       4.0493      1.00000
      2       4.0493      1.00000
      3       4.2263      1.00000
      4      10.1461      0.00000
      5      10.1461      0.00000
      6      15.1058      0.00000

 k-point   6 :      -0.3750    0.3750    0.3750
  band No.  band energies     occupation 
      1       2.7188      1.00000
      2       2.7806      1.00000
      3       9.2153      0.00000
      4       9.2153      0.00000
      5      11.2278      0.00000
      6      11.4971      0.00000

 spin component 2

 k-point   1 :       0.1250    0.1250    0.1250
  band No.  band energies     occupation 
      1       1.1100      1.00000
      2       4.7201      1.00000
      3       4.7201      1.00000
      4       9.7553      0.00000
      5       9.7553      0.00000
      6      11.0569      0.00000

 k-point   2 :       0.3750    0.1250    0.1250
  band No.  band energies     occupation 
      1       2.6520      1.00000
      2       4.0719      1.00000
      3       5.9466      0.00000
      4      10.0854      0.00000
      5      10.6488      0.00000
      6      15.0552      0.00000

 k-point   3 :      -0.1250    0.1250    0.1250
  band No.  band energies     occupation 
      1      -0.9238      1.00000
      2       6.3657      0.00000
      3       6.3657      0.00000
      4       7.1155      0.00000
      5       7.7542      0.00000
      6      10.3505      0.00000

 k-point   4 :      -0.3750    0.3750    0.1250
  band No.  band energies     occupation 
      1       1.8051      1.00000
      2       5.1309      1.00047
      3       5.1751      1.01415
      4       8.4215      0.00000
      5      10.9389      0.00000
      6      11.5243      0.00000

 k-point   5 :      -0.3750   -0.3750    0.1250
  band No.  band energies     occupation 
      1       3.9788      1.00000
      2       3.9788      1.00000
      3       4.2226      1.00000
      4      10.1420      0.00000
      5      10.1420      0.00000
      6      15.0946      0.00000

 k-point   6 :      -0.3750    0.3750    0.3750
  band No.  band energies     occupation 
      1       2.6384      1.00000
      2       2.7016      1.00000
      3       9.2200      0.00000
      4       9.2200      0.00000
      5      11.2503      0.00000
      6      11.4641      0.00000


--------------------------------------------------------------------------------------------------------


 soft charge-density along one line, spin component           1
         0         1         2         3         4         5         6         7         8         9
 total charge-density along one line
 
 soft charge-density along one line, spin component           2
         0         1         2         3         4         5         6         7         8         9
 total charge-density along one line
 
 pseudopotential strength for first ion, spin component:           1
 -6.580   0.000   0.002   0.000   0.001   0.090   0.000   0.000
  0.000  -6.579   0.000   0.002   0.000   0.000   0.090   0.000
  0.002   0.000  -6.578   0.000  -0.001   0.000   0.000   0.090
  0.000   0.002   0.000  -6.580   0.000   0.000   0.000   0.000
  0.001   0.000  -0.001   0.000  -6.578   0.000   0.000   0.000
  0.090   0.000   0.000   0.000   0.000   0.071   0.000   0.000
  0.000   0.090   0.000   0.000   0.000   0.000   0.071   0.000
  0.000   0.000   0.090   0.000   0.000   0.000   0.000   0.071
  0.000   0.000   0.000   0.090   0.000   0.000   0.000   0.000
  0.000   0.000   0.000   0.000   0.090   0.000   0.000   0.000
  0.000   0.000   0.000   0.000   0.000   0.000   0.000   0.000
  0.000   0.000   0.000   0.000   0.000   0.000   0.000   0.000
  0.000   0.000   0.000   0.000   0.000   0.000   0.000   0.000
  0.000   0.000   0.000   0.000   0.000   0.000   0.000   0.000
  0.000   0.000   0.000   0.000   0.000   0.000   0.000   0.000
  0.000   0.000   0.000   0.000   0.000   0.000   0.000   0.000
  0.000   0.000   0.000   0.000   0.000   0.000   0.000   0.000
  0.000   0.000   0.000   0.000   0.000   0.000   0.000   0.000
 pseudopotential strength for first ion, spin component:           2
 -6.580   0.000   0.004   0.000   0.002   0.090   0.000   0.000
  0.000  -6.577   0.000   0.004   0.000   0.000   0.090   0.000
  0.004   0.000  -6.576   0.000  -0.001   0.000   0.000   0.090
  0.000   0.004   0.000  -6.580   0.000   0.000   0.000   0.000
  0.002   0.000  -0.001   0.000  -6.575   0.000   0.000   0.000
  0.090   0.000   0.000   0.000   0.000   0.071   0.000   0.000
  0.000   0.090   0.000   0.000   0.000   0.000   0.071   0.000
  0.000   0.000   0.090   0.000   0.000   0.000   0.000   0.071
  0.000   0.000   0.000   0.090   0.000   0.000   0.000   0.000
  0.000   0.000   0.000   0.000   0.090   0.000   0.000   0.000
  0.000   0.000   0.000   0.000   0.000   0.000   0.000   0.000
  0.000   0.000   0.000   0.000   0.000   0.000   0.000   0.000
  0.000   0.000   0.000   0.000   0.000   0.000   0.000   0.000
  0.000   0.000   0.000   0.000   0.000   0.000   0.000   0.000
  0.000   0.000   0.000   0.000   0.000   0.000   0.000   0.000
  0.000   0.000   0.000   0.000   0.000   0.000   0.000   0.000
  0.000   0.000   0.000   0.000   0.000   0.000   0.000   0.000
  0.000   0.000   0.000   0.000   0.000   0.000   0.000   0.000
 total augmentation occupancy for first ion, spin component:           1
  0.653   0.000   0.079   0.000   0.046  -0.529   0.000  -0.026   0.000  -0.015   0.000   0.000   0.000   0.000   0.000   0.000
  0.000   0.718   0.000   0.091   0.000   0.000  -0.550   0.000  -0.030   0.000   0.000   0.000   0.000   0.000   0.000   0.000
  0.079   0.000   0.734   0.000  -0.028  -0.026   0.000  -0.555   0.000   0.009   0.000   0.000   0.000   0.000   0.000   0.000
  0.000   0.091   0.000   0.653   0.000   0.000  -0.030   0.000  -0.529   0.000   0.000   0.000   0.000   0.000   0.000   0.000
  0.046   0.000  -0.028   0.000   0.766  -0.015   0.000   0.009   0.000  -0.565   0.000   0.000   0.000   0.000   0.000   0.000
 -0.529   0.000  -0.026   0.000  -0.015   0.471   0.000  -0.009   0.000  -0.005   0.000   0.000   0.000   0.000   0.000   0.000
  0.000  -0.550   0.000  -0.030   0.000   0.000   0.464   0.000  -0.010   0.000   0.000   0.000   0.000   0.000   0.000   0.000
 -0.026   0.000  -0.555   0.000   0.009  -0.009   0.000   0.462   0.000   0.003   0.000   0.000   0.000   0.000   0.000   0.000
  0.000  -0.030   0.000  -0.529   0.000   0.000  -0.010   0.000   0.471   0.000   0.000   0.000   0.000   0.000   0.000   0.000
 -0.015   0.000   0.009   0.000  -0.565  -0.005   0.000   0.003   0.000   0.458   0.000   0.000   0.000   0.000   0.000   0.000
  0.000   0.000   0.000   0.000   0.000   0.000   0.000   0.000   0.000   0.000   1.437  -0.275   0.000   0.000   0.000   0.000
  0.000   0.000   0.000   0.000   0.000   0.000   0.000   0.000   0.000   0.000  -0.275   0.057   0.000   0.000   0.000   0.000
  0.000   0.000   0.000   0.000   0.000   0.000   0.000   0.000   0.000   0.000   0.000   0.000   0.268   0.000   0.000   0.011
  0.000   0.000   0.000   0.000   0.000   0.000   0.000   0.000   0.000   0.000   0.000   0.000   0.000   0.268   0.000   0.000
  0.000   0.000   0.000   0.000   0.000   0.000   0.000   0.000   0.000   0.000   0.000   0.000   0.000   0.000   0.268   0.000
  0.000   0.000   0.000   0.000   0.000   0.000   0.000   0.000   0.000   0.000   0.000   0.000   0.011   0.000   0.000   0.000
  0.000   0.000   0.000   0.000   0.000   0.000   0.000   0.000   0.000   0.000   0.000   0.000   0.000   0.011   0.000   0.000
  0.000   0.000   0.000   0.000   0.000   0.000   0.000   0.000   0.000   0.000   0.000   0.000   0.000   0.000   0.011   0.000
 total augmentation occupancy for first ion, spin component:           2
 -0.011   0.000   0.008   0.000   0.004   0.009   0.000  -0.004   0.000  -0.002   0.000   0.000   0.000   0.000   0.000   0.000
  0.000  -0.005   0.000   0.009   0.000   0.000   0.005   0.000  -0.005   0.000   0.000   0.000   0.000   0.000   0.000   0.000
  0.008   0.000  -0.004   0.000  -0.003  -0.004   0.000   0.005   0.000   0.001   0.000   0.000   0.000   0.000   0.000   0.000
  0.000   0.009   0.000  -0.011   0.000   0.000  -0.005   0.000   0.009   0.000   0.000   0.000   0.000   0.000   0.000   0.000
  0.004   0.000  -0.003   0.000   0.000  -0.002   0.000   0.001   0.000   0.003   0.000   0.000   0.000   0.000   0.000   0.000
  0.009   0.000  -0.004   0.000  -0.002  -0.008   0.000   0.002   0.000   0.001   0.000   0.000   0.000   0.000   0.000   0.000
  0.000   0.005   0.000  -0.005   0.000   0.000  -0.006   0.000   0.003   0.000   0.000   0.000   0.000   0.000   0.000   0.000
 -0.004   0.000   0.005   0.000   0.001   0.002   0.000  -0.005   0.000  -0.001   0.000   0.000   0.000   0.000   0.000   0.000
  0.000  -0.005   0.000   0.009   0.000   0.000   0.003   0.000  -0.008   0.000   0.000   0.000   0.000   0.000   0.000   0.000
 -0.002   0.000   0.001   0.000   0.003   0.001   0.000  -0.001   0.000  -0.004   0.000   0.000   0.000   0.000   0.000   0.000
  0.000   0.000   0.000   0.000   0.000   0.000   0.000   0.000   0.000   0.000  -0.003   0.005   0.000   0.000   0.000   0.000
  0.000   0.000   0.000   0.000   0.000   0.000   0.000   0.000   0.000   0.000   0.005  -0.002   0.000   0.000   0.000   0.000
  0.000   0.000   0.000   0.000   0.000   0.000   0.000   0.000   0.000   0.000   0.000   0.000  -0.008   0.000   0.000   0.000
  0.000   0.000   0.000   0.000   0.000   0.000   0.000   0.000   0.000   0.000   0.000   0.000   0.000  -0.008   0.000   0.000
  0.000   0.000   0.000   0.000   0.000   0.000   0.000   0.000   0.000   0.000   0.000   0.000   0.000   0.000  -0.008   0.000
  0.000   0.000   0.000   0.000   0.000   0.000   0.000   0.000   0.000   0.000   0.000   0.000   0.000   0.000   0.000   0.000
  0.000   0.000   0.000   0.000   0.000   0.000   0.000   0.000   0.000   0.000   0.000   0.000   0.000   0.000   0.000   0.000
  0.000   0.000   0.000   0.000   0.000   0.000   0.000   0.000   0.000   0.000   0.000   0.000   0.000   0.000   0.000   0.000


------------------------ aborting loop because EDIFF is reached ----------------------------------------


 


 total charge     
 
# of ion     s       p       d       tot
----------------------------------------
  1        0.723   0.622   3.416   4.761
 


 magnetization (x)
 
# of ion     s       p       d       tot
----------------------------------------
  1       -0.004  -0.022  -0.038  -0.063
 
    CHARGE:  cpu time    0.04: real time    0.04
    FORLOC:  cpu time    0.00: real time    0.00
    FORNL :  cpu time    0.15: real time    0.15
    STRESS:  cpu time    0.26: real time    0.26
    FORCOR:  cpu time    0.14: real time    0.14
    FORHAR:  cpu time    0.02: real time    0.02
    MIXING:  cpu time    0.00: real time    0.00

  FORCE on cell =-STRESS in cart. coord.  units (eV):
  Direction    XX          YY          ZZ          XY          YZ          ZX
  --------------------------------------------------------------------------------------
  Alpha Z    30.58334    30.58334    30.58334
  Ewald     -65.96700   -65.96700   -65.96700     0.00000     0.00000     0.00000
  Hartree     0.21578     0.21578     0.21578     0.00000     0.00000     0.00000
  E(xc)     -22.50921   -22.50921   -22.50921     0.00000     0.00000     0.00000
  Local       3.98546     3.98546     3.98546     0.00000     0.00000     0.00000
  n-local   -10.70384    -8.49004    -7.02099    -0.10939    -2.06945    -2.04114
  augment     2.91471     2.91471     2.91471     0.00000     0.00000     0.00000
  Kinetic    57.83164    61.58413    57.27027     2.67583    -0.14852    -0.50439
  Fock        0.00000     0.00000     0.00000     0.00000     0.00000     0.00000
  -------------------------------------------------------------------------------------
  Total      -0.61986    -0.61986    -0.61986     0.00000     0.00000     0.00000
  in kB     -54.77105   -54.77105   -54.77105     0.00000     0.00000     0.00000
  external pressure =      -54.77 kB  Pullay stress =        0.00 kB


 VOLUME and BASIS-vectors are now :
 -----------------------------------------------------------------------------
  energy-cutoff  :      350.00
  volume of cell :       18.13
      direct lattice vectors                 reciprocal lattice vectors
     2.866544087  0.000000000  0.000000000     0.348852126  0.123337852  0.213627426
    -0.955514696  2.702603683  0.000000000     0.000000000  0.370013556  0.213627426
    -0.955514696 -1.351301841  2.340523446     0.000000000  0.000000000  0.427254853

  length of vectors
     2.866544087  2.866544087  2.866544087     0.427254853  0.427254853  0.427254853


 FORCES acting on ions
    electron-ion (+dipol)            ewald-force                    non-local-force                 convergence-correction
 -----------------------------------------------------------------------------------------------
   -.545E-15 0.383E-15 0.277E-14   -.279E-15 -.214E-15 0.640E-15   -.165E-23 -.165E-23 0.000E+00   -.532E-15 -.290E-15 -.266E-15
 -----------------------------------------------------------------------------------------------
   -.545E-15 0.383E-15 0.277E-14   -.279E-15 -.214E-15 0.640E-15   -.165E-23 -.165E-23 0.000E+00   -.532E-15 -.290E-15 -.266E-15
 
 
 POSITION                                       TOTAL-FORCE (eV/Angst)
 -----------------------------------------------------------------------------------
      0.00000      0.00000      0.00000         0.000000      0.000000      0.000000
 -----------------------------------------------------------------------------------
    total drift:                                0.000000      0.000000      0.000000


--------------------------------------------------------------------------------------------------------



  FREE ENERGIE OF THE ION-ELECTRON SYSTEM (eV)
  ---------------------------------------------------
  free  energy   TOTEN  =       -11.975720 eV

  energy  without entropy=      -11.974842  energy(sigma->0) =      -11.975428
 


--------------------------------------------------------------------------------------------------------


    POTLOK:  cpu time    0.18: real time    0.18


--------------------------------------------------------------------------------------------------------


 writing wavefunctions
     LOOP+:  cpu time    6.12: real time    6.53
    4ORBIT:  cpu time    0.00: real time    0.00
 


 total charge     
 
# of ion     s       p       d       tot
----------------------------------------
  1        0.723   0.622   3.416   4.761
 


 magnetization (x)
 
# of ion     s       p       d       tot
----------------------------------------
  1       -0.004  -0.022  -0.038  -0.063
 

 total amount of memory used by VASP on root node    36258. kBytes
========================================================================

   base      :      30000. kBytes
   nonl-proj :        238. kBytes
   fftplans  :       1676. kBytes
   grid      :       3981. kBytes
   one-center:         31. kBytes
   wavefun   :        332. kBytes
 
  
  
 General timing and accounting informations for this job:
 ========================================================
  
                  Total CPU time used (sec):        6.749
                            User time (sec):        6.355
                          System time (sec):        0.394
                         Elapsed time (sec):        7.533
  
                   Maximum memory used (kb):           0.
                   Average memory used (kb):           0.
  
                          Minor page faults:         7687
                          Major page faults:            0
                 Voluntary context switches:         8405
