 vasp.5.2.12 11Nov11 complex                                                    
  
 executed on             LinuxIFC date 2012.10.14  15:40:34
 running on    1 nodes
 distr:  one band on    1 nodes,    1 groups


--------------------------------------------------------------------------------------------------------


 INCAR:
 POTCAR:    PAW_PBE Ta 17Jan2003                  
 POTCAR:    PAW_PBE Ta 17Jan2003                  
   VRHFIN =Ta:  6s5d                                                            
   LEXCH  = PE                                                                  
   EATOM  =   130.6506 eV,    9.6025 Ry                                         
                                                                                
   TITEL  = PAW_PBE Ta 17Jan2003                                                
   LULTRA =        F    use ultrasoft PP ?                                      
   IUNSCR =        1    unscreen: 0-lin 1-nonlin 2-no                           
   RPACOR =    2.330    partial core radius                                     
   POMASS =  180.948; ZVAL   =    5.000    mass and valenz                      
   RCORE  =    2.900    outmost cutoff radius                                   
   RWIGS  =    2.840; RWIGS  =    1.503    wigner-seitz radius (au A)           
   ENMAX  =  223.667; ENMIN  =  167.750 eV                                      
   RCLOC  =    2.205    cutoff for local pot                                    
   LCOR   =        T    correct aug charges                                     
   LPAW   =        T    paw PP                                                  
   EAUG   =  332.075                                                            
   DEXC   =    -.049                                                            
   RMAX   =    3.083    core radius for proj-oper                               
   RAUG   =    1.300    factor for augmentation sphere                          
   RDEP   =    3.060    radius for radial grids                                 
   QCUT   =   -4.055; QGAM   =    8.109    optimization parameters              
                                                                                
   Description                                                                  
     l     E      TYP  RCUT    TYP  RCUT                                        
     2   .000     23  2.500                                                     
     2   .000     23  2.500                                                     
     0   .000     23  2.500                                                     
     0   .000     23  2.500                                                     
     1   .000     23  2.900                                                     
     1  2.000     23  2.900                                                     
     3   .000      7   .000                                                     
  local pseudopotential read in
  partial core-charges read in
  atomic valenz-charges read in
  non local Contribution for L=           2  read in
    real space projection operators read in
  non local Contribution for L=           2  read in
    real space projection operators read in
  non local Contribution for L=           0  read in
    real space projection operators read in
  non local Contribution for L=           0  read in
    real space projection operators read in
  non local Contribution for L=           1  read in
    real space projection operators read in
  non local Contribution for L=           1  read in
    real space projection operators read in
    PAW grid and wavefunctions read in
 
   number of l-projection  operators is LMAX  =           6
   number of lm-projection operators is LMMAX =          18
 
  PAW_PBE Ta 17Jan2003                  :
 energy of atom  1       EATOM= -130.6506
 kinetic energy error for atom=    0.0044 (will be added to EATOM!!)
 
 
 POSCAR: Ta                                      
  positions in cartesian coordinates
  No initial velocities read in
 exchange correlation table for  LEXCH =        8
   RHO(1)=    0.500       N(1)  =     2000
   RHO(2)=  100.500       N(2)  =     4000
 


--------------------------------------------------------------------------------------------------------


 ion  position               nearest neighbor table
   1  0.000  0.000  0.000-
 
  LATTYP: Found a body centered cubic cell.
 ALAT       =     3.3100000000
  
  Lattice vectors:
  
 A1 = (   2.8665440865,   0.0000000000,   0.0000000000)
 A2 = (  -0.9555146955,   2.7026036829,   0.0000000000)
 A3 = (  -0.9555146955,  -1.3513018414,   2.3405234457)
 Subroutine PRICEL returns:
 Original cell was already a primitive cell.
 

Analysis of symmetry for initial positions (statically):

 Routine SETGRP: Setting up the symmetry group for a 
 body centered cubic supercell.


 Subroutine GETGRP returns: Found 48 space group operations
 (whereof 48 operations were pure point group operations)
 out of a pool of 48 trial point group operations.


The static configuration has the point symmetry O_h .

Analysis of symmetry for dynamics (positions and initial velocities):

 Subroutine DYNSYM returns: Found 48 space group operations
 (whereof 48 operations were pure point group operations)
 out of a pool of 48 trial space group operations
 (whereof 48 operations were pure point group operations)
 and found also     1 'primitive' translations


The dynamic configuration has the point symmetry O_h .
 
 
 KPOINTS: KPOINTS created by Atomic Simulation Env

Automatic generation of k-mesh.
 
 Subroutine IBZKPT returns following result:
 ===========================================
 
 Found      6 irreducible k-points:
 
 Following reciprocal coordinates:
            Coordinates               Weight
  0.125000  0.125000  0.125000      8.000000
  0.375000  0.125000  0.125000     12.000000
 -0.125000  0.125000  0.125000      6.000000
 -0.375000  0.375000  0.125000     24.000000
 -0.375000 -0.375000  0.125000      8.000000
 -0.375000  0.375000  0.375000      6.000000
 
 Following cartesian coordinates:
            Coordinates               Weight
  0.043607  0.061669  0.106814      8.000000
  0.130820  0.092503  0.160221     12.000000
 -0.043607  0.030834  0.053407      6.000000
 -0.130820  0.092503  0.053407     24.000000
 -0.130820 -0.185007 -0.106814      8.000000
 -0.130820  0.092503  0.160221      6.000000
 


--------------------------------------------------------------------------------------------------------




 Dimension of arrays:
   k-points           NKPTS =      6   k-points in BZ     NKDIM =      6   number of bands    NBANDS=      6
   number of dos      NEDOS =    301   number of ions     NIONS =      1
   non local maximal  LDIM  =      6   non local SUM 2l+1 LMDIM =     18
   total plane-waves  NPLWV =   5832
   max r-space proj   IRMAX =      1   max aug-charges    IRDMAX=  22091
   dimension x,y,z NGX =    18 NGY =   18 NGZ =   18
   dimension x,y,z NGXF=    36 NGYF=   36 NGZF=   36
   support grid    NGXF=    36 NGYF=   36 NGZF=   36
   ions per type =               1
 NGX,Y,Z   is equivalent  to a cutoff of  10.44, 10.44, 10.44 a.u.
 NGXF,Y,Z  is equivalent  to a cutoff of  20.88, 20.88, 20.88 a.u.


 I would recommend the setting:
   dimension x,y,z NGX =    17 NGY =   17 NGZ =   17
 SYSTEM =  unknown system                          
 POSCAR =  Ta                                      

 Startparameter for this run:
   NWRITE =      2    write-flag & timer
   PREC   = accura    normal or accurate (medium, high low for compatibility)
   ISTART =      0    job   : 0-new  1-cont  2-samecut
   ICHARG =      2    charge: 1-file 2-atom 10-const
   ISPIN  =      1    spin polarized calculation?
   LNONCOLLINEAR =      F non collinear calculations
   LSORBIT =      F    spin-orbit coupling
   INIWAV =      1    electr: 0-lowe 1-rand  2-diag
   LASPH  =      F    aspherical Exc in radial PAW
   METAGGA=      F    non-selfconsistent MetaGGA calc.

 Electronic Relaxation 1
   ENCUT  =  350.0 eV  25.72 Ry    5.07 a.u.   4.37  4.37  4.37*2*pi/ulx,y,z
   ENINI  =  350.0     initial cutoff
   ENAUG  =  332.1 eV  augmentation charge cutoff
   NELM   =     60;   NELMIN=  2; NELMDL= -5     # of ELM steps 
   EDIFF  = 0.1E-03   stopping-criterion for ELM
   LREAL  =      F    real-space projection
   NLSPLINE    = F    spline interpolate recip. space projectors
   LCOMPAT=      F    compatible to vasp.4.4
   GGA_COMPAT  = T    GGA compatible to vasp.4.4-vasp.4.6
   LMAXPAW     = -100 max onsite density
   LMAXMIX     =    2 max onsite mixed and CHGCAR
   VOSKOWN=      0    Vosko Wilk Nusair interpolation
   ROPT   =    0.00000
 Ionic relaxation
   EDIFFG = 0.1E-02   stopping-criterion for IOM
   NSW    =      0    number of steps for IOM
   NBLOCK =      1;   KBLOCK =      1    inner block; outer block 
   IBRION =     -1    ionic relax: 0-MD 1-quasi-New 2-CG
   NFREE  =      0    steps in history (QN), initial steepest desc. (CG)
   ISIF   =      2    stress and relaxation
   IWAVPR =     10    prediction:  0-non 1-charg 2-wave 3-comb
   ISYM   =      2    0-nonsym 1-usesym 2-fastsym
   LCORR  =      T    Harris-Foulkes like correction to forces

   POTIM  = 0.5000    time-step for ionic-motion
   TEIN   =    0.0    initial temperature
   TEBEG  =    0.0;   TEEND  =   0.0 temperature during run
   SMASS  =  -3.00    Nose mass-parameter (am)
   estimated Nose-frequenzy (Omega)   =  0.10E-29 period in steps =****** mass=  -0.188E-27a.u.
   SCALEE = 1.0000    scale energy and forces
   NPACO  =    256;   APACO  = 16.0  distance and # of slots for P.C.
   PSTRESS=    0.0 pullay stress

  Mass of Ions in am
   POMASS = 180.95
  Ionic Valenz
   ZVAL   =   5.00
  Atomic Wigner-Seitz radii
   RWIGS  =  -1.00
  virtual crystal weights 
   VCA    =   1.00
   NELECT =       5.0000    total number of electrons
   NUPDOWN=      -1.0000    fix difference up-down

 DOS related values:
   EMIN   =  10.00;   EMAX   =-10.00  energy-range for DOS
   EFERMI =   0.00
   ISMEAR =     1;   SIGMA  =   0.05  broadening in eV -4-tet -1-fermi 0-gaus

 Electronic relaxation 2 (details)
   IALGO  =     38    algorithm
   LDIAG  =      T    sub-space diagonalisation (order eigenvalues)
   LSUBROT=      T    optimize rotation matrix (better conditioning)
   TURBO    =      0    0=normal 1=particle mesh
   IRESTART =      0    0=no restart 2=restart with 2 vectors
   NREBOOT  =      0    no. of reboots
   NMIN     =      0    reboot dimension
   EREF     =   0.00    reference energy to select bands
   IMIX   =      4    mixing-type and parameters
     AMIX     =   0.40;   BMIX     =  1.00
     AMIX_MAG =   1.60;   BMIX_MAG =  1.00
     AMIN     =   0.10
     WC   =   100.;   INIMIX=   1;  MIXPRE=   1

 Intra band minimization:
   WEIMIN = 0.0000     energy-eigenvalue tresh-hold
   EBREAK =  0.42E-05  absolut break condition
   DEPER  =   0.30     relativ break condition  

   TIME   =   0.40     timestep for ELM

  volume/ion in A,a.u.               =      18.13       122.36
  Fermi-wavevector in a.u.,A,eV,Ry     =   1.065566  2.013627 15.448462  1.135430
  Thomas-Fermi vector in A             =   2.201121
 
 Write flags
   LWAVE  =      T    write WAVECAR
   LCHARG =      T    write CHGCAR
   LVTOT  =      F    write LOCPOT, total local potential
   LVHAR  =      F    write LOCPOT, Hartree potential only
   LELF   =      F    write electronic localiz. function (ELF)
   LORBIT =      0    0 simple, 1 ext, 2 COOP (PROOUT)


 Dipole corrections
   LMONO  =      F    monopole corrections only (constant potential shift)
   LDIPOL =      F    correct potential (dipole corrections)
   IDIPOL =      0    1-x, 2-y, 3-z, 4-all directions 
   EPSILON=  1.0000000 bulk dielectric constant

 Exchange correlation treatment:
   GGA     =    --    GGA type
   LEXCH   =     8    internal setting for exchange type
   VOSKOWN=      0    Vosko Wilk Nusair interpolation
   LHFCALC =     F    Hartree Fock is set to
   LHFONE  =     F    Hartree Fock one center treatment
   AEXX    =    0.0000 exact exchange contribution

 Linear response parameters
   LEPSILON=     F    determine dielectric tensor
   LRPA    =     F    only Hartree local field effects (RPA)
   LNABLA  =     F    use nabla operator in PAW spheres
   LVEL    =     F    velocity operator in full k-point grid
   LINTERFAST=   F  fast interpolation
   KINTER  =     0    interpolate to denser k-point grid
   CSHIFT  =0.1000    complex shift for real part using Kramers Kronig
   OMEGAMAX=  -1.0    maximum frequency
   RTIME   =    0.100 relaxation time in fs

 Orbital magnetization related:
   ORBITALMAG=     F  switch on orbital magnetization
   LCHIMAG   =     F  perturbation theory with respect to B field
   DQ        =  0.001000  dq finite difference perturbation B field



--------------------------------------------------------------------------------------------------------


 Static calculation
 charge density and potential will be updated during run
 non-spin polarized calculation
 Variant of blocked Davidson
 Davidson routine will perform the subspace rotation
 perform sub-space diagonalisation
    after iterative eigenvector-optimisation
 modified Broyden-mixing scheme, WC =      100.0
 initial mixing is a Kerker type mixing with AMIX =  0.4000 and BMIX =      1.0000
 Hartree-type preconditioning will be used
 using additional bands            3
 reciprocal scheme for non local part
 use partial core corrections
 calculate Harris-corrections to forces 
   (improved forces if not selfconsistent)
 use gradient corrections 
 use of overlap-Matrix (Vanderbilt PP)
 Methfessel and Paxton  Order N= 1 SIGMA  =   0.05


--------------------------------------------------------------------------------------------------------


  energy-cutoff  :      350.00
  volume of cell :       18.13
      direct lattice vectors                 reciprocal lattice vectors
     2.866544087  0.000000000  0.000000000     0.348852126  0.123337852  0.213627426
    -0.955514696  2.702603683  0.000000000     0.000000000  0.370013556  0.213627426
    -0.955514696 -1.351301841  2.340523446     0.000000000  0.000000000  0.427254853

  length of vectors
     2.866544087  2.866544087  2.866544087     0.427254853  0.427254853  0.427254853


 
 k-points in units of 2pi/SCALE and weight: KPOINTS created by Atomic Simulation Env
   0.04360652  0.06166893  0.10681371       0.125
   0.13081955  0.09250339  0.16022057       0.188
  -0.04360652  0.03083446  0.05340686       0.094
  -0.13081955  0.09250339  0.05340686       0.375
  -0.13081955 -0.18500678 -0.10681371       0.125
  -0.13081955  0.09250339  0.16022057       0.094
 
 k-points in reciprocal lattice and weights: KPOINTS created by Atomic Simulation Env
   0.12500000  0.12500000  0.12500000       0.125
   0.37500000  0.12500000  0.12500000       0.188
  -0.12500000  0.12500000  0.12500000       0.094
  -0.37500000  0.37500000  0.12500000       0.375
  -0.37500000 -0.37500000  0.12500000       0.125
  -0.37500000  0.37500000  0.37500000       0.094
 
 position of ions in fractional coordinates (direct lattice) 
   0.00000000  0.00000000  0.00000000
 
 position of ions in cartesian coordinates  (Angst):
   0.00000000  0.00000000  0.00000000
 


--------------------------------------------------------------------------------------------------------


 k-point  1 :  0.12500.12500.1250  plane waves:     267
 k-point  2 :  0.37500.12500.1250  plane waves:     268
 k-point  3 :  -.12500.12500.1250  plane waves:     265
 k-point  4 :  -.37500.37500.1250  plane waves:     271
 k-point  5 :  -.3750-.37500.1250  plane waves:     267
 k-point  6 :  -.37500.37500.3750  plane waves:     261

 maximum and minimum number of plane-waves per node :       271      261

 maximum number of plane-waves:       271
 maximum index in each direction: 
   IXMAX=    4   IYMAX=    4   IZMAX=    4
   IXMIN=   -4   IYMIN=   -4   IZMIN=   -4

 NGX is ok and might be reduce to  18
 NGY is ok and might be reduce to  18
 NGZ is ok and might be reduce to  18

 serial   3D FFT for wavefunctions
 parallel 3D FFT for charge:
    minimum data exchange during FFTs selected (reduces bandwidth)


 total amount of memory used by VASP on root node    34655. kBytes
========================================================================

   base      :      30000. kBytes
   nonl-proj :        238. kBytes
   fftplans  :       1676. kBytes
   grid      :       2560. kBytes
   one-center:         15. kBytes
   wavefun   :        166. kBytes
 
 Broyden mixing: mesh for mixing (old mesh)
   NGX =  9   NGY =  9   NGZ =  9
  (NGX  = 36   NGY  = 36   NGZ  = 36)
  gives a total of    729 points

 initial charge density was supplied:
 charge density of overlapping atoms calculated
 number of electron       5.0000000 magnetization 
 keeping initial charge density in first step


--------------------------------------------------------------------------------------------------------


 Maximum index for augmentation-charges        21187 (set IRDMAX)


--------------------------------------------------------------------------------------------------------


 First call to EWALD:  gamma=   0.675
 Maximum number of real-space cells 3x 3x 3
 Maximum number of reciprocal cells 3x 3x 3

    FEWALD:  cpu time    0.00: real time    0.00


----------------------------------------- Iteration    1(   1)  ---------------------------------------


    POTLOK:  cpu time    0.07: real time    0.09
    SETDIJ:  cpu time    0.02: real time    0.02
     EDDAV:  cpu time    0.09: real time    0.29
       DOS:  cpu time    0.00: real time    0.00
    --------------------------------------------
      LOOP:  cpu time    0.18: real time    0.44

 eigenvalue-minimisations  :    72
 total energy-change (2. order) :-0.2980657E+01  (-0.1895547E+03)
 number of electron       5.0000000 magnetization 
 augmentation part        5.0000000 magnetization 

 Free energy of the ion-electron system (eV)
  ---------------------------------------------------
  alpha Z        PSCENC =        30.58334069
  Ewald energy   TEWEN  =      -197.90100875
  -1/2 Hartree   DENC   =        -2.50452612
  -exchange  EXHF       =         0.00000000
  -V(xc)+E(xc)   XCENC  =       -66.68582567
  PAW double counting   =       148.27821850      -73.99089003
  entropy T*S    EENTRO =        -0.00522426
  eigenvalues    EBANDS =        28.59904401
  atomic energy  EATOM  =       130.64621481
  ---------------------------------------------------
  free energy    TOTEN  =        -2.98065682 eV

  energy without entropy =       -2.97543256  energy(sigma->0) =       -2.97891540


--------------------------------------------------------------------------------------------------------




----------------------------------------- Iteration    1(   2)  ---------------------------------------


     EDDAV:  cpu time    0.12: real time    0.12
       DOS:  cpu time    0.00: real time    0.00
    --------------------------------------------
      LOOP:  cpu time    0.12: real time    0.13

 eigenvalue-minimisations  :   132
 total energy-change (2. order) :-0.9401306E+01  (-0.8875172E+01)
 number of electron       5.0000000 magnetization 
 augmentation part        5.0000000 magnetization 

 Free energy of the ion-electron system (eV)
  ---------------------------------------------------
  alpha Z        PSCENC =        30.58334069
  Ewald energy   TEWEN  =      -197.90100875
  -1/2 Hartree   DENC   =        -2.50452612
  -exchange  EXHF       =         0.00000000
  -V(xc)+E(xc)   XCENC  =       -66.68582567
  PAW double counting   =       148.27821850      -73.99089003
  entropy T*S    EENTRO =        -0.00110812
  eigenvalues    EBANDS =        19.19362222
  atomic energy  EATOM  =       130.64621481
  ---------------------------------------------------
  free energy    TOTEN  =       -12.38196248 eV

  energy without entropy =      -12.38085436  energy(sigma->0) =      -12.38159310


--------------------------------------------------------------------------------------------------------




----------------------------------------- Iteration    1(   3)  ---------------------------------------


     EDDAV:  cpu time    0.07: real time    0.19
       DOS:  cpu time    0.00: real time    0.00
    --------------------------------------------
      LOOP:  cpu time    0.07: real time    0.21

 eigenvalue-minimisations  :    72
 total energy-change (2. order) :-0.4690395E-01  (-0.4690395E-01)
 number of electron       5.0000000 magnetization 
 augmentation part        5.0000000 magnetization 

 Free energy of the ion-electron system (eV)
  ---------------------------------------------------
  alpha Z        PSCENC =        30.58334069
  Ewald energy   TEWEN  =      -197.90100875
  -1/2 Hartree   DENC   =        -2.50452612
  -exchange  EXHF       =         0.00000000
  -V(xc)+E(xc)   XCENC  =       -66.68582567
  PAW double counting   =       148.27821850      -73.99089003
  entropy T*S    EENTRO =        -0.00110812
  eigenvalues    EBANDS =        19.14671826
  atomic energy  EATOM  =       130.64621481
  ---------------------------------------------------
  free energy    TOTEN  =       -12.42886643 eV

  energy without entropy =      -12.42775831  energy(sigma->0) =      -12.42849705


--------------------------------------------------------------------------------------------------------




----------------------------------------- Iteration    1(   4)  ---------------------------------------


     EDDAV:  cpu time    0.09: real time    0.28
       DOS:  cpu time    0.00: real time    0.00
    --------------------------------------------
      LOOP:  cpu time    0.09: real time    0.40

 eigenvalue-minimisations  :    90
 total energy-change (2. order) :-0.8132370E-04  (-0.8132362E-04)
 number of electron       5.0000000 magnetization 
 augmentation part        5.0000000 magnetization 

 Free energy of the ion-electron system (eV)
  ---------------------------------------------------
  alpha Z        PSCENC =        30.58334069
  Ewald energy   TEWEN  =      -197.90100875
  -1/2 Hartree   DENC   =        -2.50452612
  -exchange  EXHF       =         0.00000000
  -V(xc)+E(xc)   XCENC  =       -66.68582567
  PAW double counting   =       148.27821850      -73.99089003
  entropy T*S    EENTRO =        -0.00110812
  eigenvalues    EBANDS =        19.14663694
  atomic energy  EATOM  =       130.64621481
  ---------------------------------------------------
  free energy    TOTEN  =       -12.42894775 eV

  energy without entropy =      -12.42783963  energy(sigma->0) =      -12.42857838


--------------------------------------------------------------------------------------------------------




----------------------------------------- Iteration    1(   5)  ---------------------------------------


     EDDAV:  cpu time    0.08: real time    0.08
       DOS:  cpu time    0.00: real time    0.00
    CHARGE:  cpu time    0.03: real time    0.03
    MIXING:  cpu time    0.00: real time    0.00
    --------------------------------------------
      LOOP:  cpu time    0.12: real time    1.08

 eigenvalue-minimisations  :    78
 total energy-change (2. order) :-0.5964552E-07  (-0.5951679E-07)
 number of electron       5.0000001 magnetization 
 augmentation part        0.3599887 magnetization 

 Broyden mixing:
  rms(total) = 0.30579E+00    rms(broyden)= 0.30579E+00
  rms(prec ) = 0.13214E+01
  weight for this iteration     100.00

 Free energy of the ion-electron system (eV)
  ---------------------------------------------------
  alpha Z        PSCENC =        30.58334069
  Ewald energy   TEWEN  =      -197.90100875
  -1/2 Hartree   DENC   =        -2.50452612
  -exchange  EXHF       =         0.00000000
  -V(xc)+E(xc)   XCENC  =       -66.68582567
  PAW double counting   =       148.27821850      -73.99089003
  entropy T*S    EENTRO =        -0.00110812
  eigenvalues    EBANDS =        19.14663688
  atomic energy  EATOM  =       130.64621481
  ---------------------------------------------------
  free energy    TOTEN  =       -12.42894781 eV

  energy without entropy =      -12.42783969  energy(sigma->0) =      -12.42857844


--------------------------------------------------------------------------------------------------------




----------------------------------------- Iteration    1(   6)  ---------------------------------------


    POTLOK:  cpu time    0.06: real time    0.14
    SETDIJ:  cpu time    0.02: real time    0.03
     EDDAV:  cpu time    0.08: real time    0.08
       DOS:  cpu time    0.00: real time    0.00
    CHARGE:  cpu time    0.04: real time    0.46
    MIXING:  cpu time    0.00: real time    0.00
    --------------------------------------------
      LOOP:  cpu time    0.21: real time    0.73

 eigenvalue-minimisations  :    72
 total energy-change (2. order) : 0.3080492E+00  (-0.1875034E-01)
 number of electron       5.0000001 magnetization 
 augmentation part        0.3776109 magnetization 

 Broyden mixing:
  rms(total) = 0.16934E+00    rms(broyden)= 0.16934E+00
  rms(prec ) = 0.73053E+00
  weight for this iteration     100.00

 eigenvalues of (default mixing * dielectric matrix)
  average eigenvalue GAMMA=   2.2381
  2.2381

 Free energy of the ion-electron system (eV)
  ---------------------------------------------------
  alpha Z        PSCENC =        30.58334069
  Ewald energy   TEWEN  =      -197.90100875
  -1/2 Hartree   DENC   =        -1.48206174
  -exchange  EXHF       =         0.00000000
  -V(xc)+E(xc)   XCENC  =       -66.40389631
  PAW double counting   =       163.07852249      -89.14364948
  entropy T*S    EENTRO =        -0.00105554
  eigenvalues    EBANDS =        18.50269523
  atomic energy  EATOM  =       130.64621481
  ---------------------------------------------------
  free energy    TOTEN  =       -12.12089859 eV

  energy without entropy =      -12.11984305  energy(sigma->0) =      -12.12054674


--------------------------------------------------------------------------------------------------------




----------------------------------------- Iteration    1(   7)  ---------------------------------------


    POTLOK:  cpu time    0.07: real time    0.11
    SETDIJ:  cpu time    0.05: real time    0.08
     EDDAV:  cpu time    0.08: real time    0.08
       DOS:  cpu time    0.00: real time    0.00
    CHARGE:  cpu time    0.04: real time    0.04
    MIXING:  cpu time    0.00: real time    0.00
    --------------------------------------------
      LOOP:  cpu time    0.25: real time    0.36

 eigenvalue-minimisations  :    72
 total energy-change (2. order) : 0.1449670E+00  (-0.3798083E-01)
 number of electron       5.0000001 magnetization 
 augmentation part        0.4040667 magnetization 

 Broyden mixing:
  rms(total) = 0.19810E-01    rms(broyden)= 0.19799E-01
  rms(prec ) = 0.65793E-01
  weight for this iteration     100.00

 eigenvalues of (default mixing * dielectric matrix)
  average eigenvalue GAMMA=   1.3776
  2.2637  0.4915

 Free energy of the ion-electron system (eV)
  ---------------------------------------------------
  alpha Z        PSCENC =        30.58334069
  Ewald energy   TEWEN  =      -197.90100875
  -1/2 Hartree   DENC   =        -0.59444775
  -exchange  EXHF       =         0.00000000
  -V(xc)+E(xc)   XCENC  =       -66.00833719
  PAW double counting   =       187.45953899     -113.93467810
  entropy T*S    EENTRO =        -0.00096682
  eigenvalues    EBANDS =        17.77441252
  atomic energy  EATOM  =       130.64621481
  ---------------------------------------------------
  free energy    TOTEN  =       -11.97593160 eV

  energy without entropy =      -11.97496477  energy(sigma->0) =      -11.97560932


--------------------------------------------------------------------------------------------------------




----------------------------------------- Iteration    1(   8)  ---------------------------------------


    POTLOK:  cpu time    0.07: real time    0.07
    SETDIJ:  cpu time    0.03: real time    0.03
     EDDAV:  cpu time    0.10: real time    0.10
       DOS:  cpu time    0.00: real time    0.00
    CHARGE:  cpu time    0.03: real time    0.03
    MIXING:  cpu time    0.00: real time    0.00
    --------------------------------------------
      LOOP:  cpu time    0.23: real time    0.29

 eigenvalue-minimisations  :    84
 total energy-change (2. order) :-0.5555032E-03  (-0.8908196E-04)
 number of electron       5.0000001 magnetization 
 augmentation part        0.4045808 magnetization 

 Broyden mixing:
  rms(total) = 0.24126E-01    rms(broyden)= 0.24125E-01
  rms(prec ) = 0.84472E-01
  weight for this iteration     100.00

 eigenvalues of (default mixing * dielectric matrix)
  average eigenvalue GAMMA=   1.9192
  1.1656  2.6603  1.9318

 Free energy of the ion-electron system (eV)
  ---------------------------------------------------
  alpha Z        PSCENC =        30.58334069
  Ewald energy   TEWEN  =      -197.90100875
  -1/2 Hartree   DENC   =        -0.57535974
  -exchange  EXHF       =         0.00000000
  -V(xc)+E(xc)   XCENC  =       -65.99804102
  PAW double counting   =       186.81478535     -113.28871749
  entropy T*S    EENTRO =        -0.00099071
  eigenvalues    EBANDS =        17.74328976
  atomic energy  EATOM  =       130.64621481
  ---------------------------------------------------
  free energy    TOTEN  =       -11.97648710 eV

  energy without entropy =      -11.97549639  energy(sigma->0) =      -11.97615686


--------------------------------------------------------------------------------------------------------




----------------------------------------- Iteration    1(   9)  ---------------------------------------


    POTLOK:  cpu time    0.06: real time    0.08
    SETDIJ:  cpu time    0.02: real time    0.03
     EDDAV:  cpu time    0.07: real time    0.12
       DOS:  cpu time    0.00: real time    0.00
    CHARGE:  cpu time    0.02: real time    0.02
    MIXING:  cpu time    0.00: real time    0.00
    --------------------------------------------
      LOOP:  cpu time    0.19: real time    0.45

 eigenvalue-minimisations  :    72
 total energy-change (2. order) : 0.1358265E-02  (-0.4433712E-03)
 number of electron       5.0000001 magnetization 
 augmentation part        0.4033226 magnetization 

 Broyden mixing:
  rms(total) = 0.23567E-02    rms(broyden)= 0.23567E-02
  rms(prec ) = 0.66858E-02
  weight for this iteration     100.00

 eigenvalues of (default mixing * dielectric matrix)
  average eigenvalue GAMMA=   1.6188
  2.5705  2.0775  1.0566  0.7706

 Free energy of the ion-electron system (eV)
  ---------------------------------------------------
  alpha Z        PSCENC =        30.58334069
  Ewald energy   TEWEN  =      -197.90100875
  -1/2 Hartree   DENC   =        -0.64666468
  -exchange  EXHF       =         0.00000000
  -V(xc)+E(xc)   XCENC  =       -66.02567076
  PAW double counting   =       193.80248107     -120.32158890
  entropy T*S    EENTRO =        -0.00089090
  eigenvalues    EBANDS =        17.88865859
  atomic energy  EATOM  =       130.64621481
  ---------------------------------------------------
  free energy    TOTEN  =       -11.97512883 eV

  energy without entropy =      -11.97423794  energy(sigma->0) =      -11.97483187


--------------------------------------------------------------------------------------------------------




----------------------------------------- Iteration    1(  10)  ---------------------------------------


    POTLOK:  cpu time    0.06: real time    0.06
    SETDIJ:  cpu time    0.02: real time    0.06
     EDDAV:  cpu time    0.07: real time    0.17
       DOS:  cpu time    0.00: real time    0.00
    --------------------------------------------
      LOOP:  cpu time    0.15: real time    0.35

 eigenvalue-minimisations  :    42
 total energy-change (2. order) : 0.1853825E-04  (-0.1471888E-05)
 number of electron       5.0000001 magnetization 
 augmentation part        0.4033226 magnetization 

 Free energy of the ion-electron system (eV)
  ---------------------------------------------------
  alpha Z        PSCENC =        30.58334069
  Ewald energy   TEWEN  =      -197.90100875
  -1/2 Hartree   DENC   =        -0.64856544
  -exchange  EXHF       =         0.00000000
  -V(xc)+E(xc)   XCENC  =       -66.02801504
  PAW double counting   =       193.43965499     -119.95274578
  entropy T*S    EENTRO =        -0.00087161
  eigenvalues    EBANDS =        17.88688582
  atomic energy  EATOM  =       130.64621481
  ---------------------------------------------------
  free energy    TOTEN  =       -11.97511030 eV

  energy without entropy =      -11.97423869  energy(sigma->0) =      -11.97481976


--------------------------------------------------------------------------------------------------------




 average (electrostatic) potential at core
  the test charge radii are     1.2538
  (the norm of the test charge is              1.0000)
       1 -34.9882
 
 
 
 E-fermi :   5.2394     XC(G=0): -12.3597     alpha+bet :-13.5035


 k-point   1 :       0.1250    0.1250    0.1250
  band No.  band energies     occupation 
      1       1.1374      2.00000
      2       4.7239      2.00000
      3       4.7239      2.00000
      4       9.7813      0.00000
      5       9.7813      0.00000
      6      11.0513      0.00000

 k-point   2 :       0.3750    0.1250    0.1250
  band No.  band energies     occupation 
      1       2.6694      2.00000
      2       4.0738      2.00000
      3       5.9709      0.00000
      4      10.1058      0.00000
      5      10.6742      0.00000
      6      15.0568      0.00000

 k-point   3 :      -0.1250    0.1250    0.1250
  band No.  band energies     occupation 
      1      -0.8939      2.00000
      2       6.3582      0.00000
      3       6.3582      0.00000
      4       7.1048      0.00000
      5       7.7930      0.00000
      6      10.3839      0.00000

 k-point   4 :      -0.3750    0.3750    0.1250
  band No.  band energies     occupation 
      1       1.8300      2.00000
      2       5.1271      2.00669
      3       5.2101      1.82665
      4       8.4359      0.00000
      5      10.9613      0.00000
      6      11.5160      0.00000

 k-point   5 :      -0.3750   -0.3750    0.1250
  band No.  band energies     occupation 
      1       4.0143      2.00000
      2       4.0143      2.00000
      3       4.2258      2.00000
      4      10.1465      0.00000
      5      10.1465      0.00000
      6      15.1018      0.00000

 k-point   6 :      -0.3750    0.3750    0.3750
  band No.  band energies     occupation 
      1       2.6789      2.00000
      2       2.7412      2.00000
      3       9.2197      0.00000
      4       9.2197      0.00000
      5      11.2423      0.00000
      6      11.4813      0.00000


--------------------------------------------------------------------------------------------------------


 soft charge-density along one line, spin component           1
         0         1         2         3         4         5         6         7         8         9
 total charge-density along one line
 
 pseudopotential strength for first ion, spin component:           1
 -6.580   0.000   0.003   0.000   0.002   0.090   0.000   0.000
  0.000  -6.578   0.000   0.003   0.000   0.000   0.090   0.000
  0.003   0.000  -6.577   0.000  -0.001   0.000   0.000   0.090
  0.000   0.003   0.000  -6.580   0.000   0.000   0.000   0.000
  0.002   0.000  -0.001   0.000  -6.576   0.000   0.000   0.000
  0.090   0.000   0.000   0.000   0.000   0.071   0.000   0.000
  0.000   0.090   0.000   0.000   0.000   0.000   0.071   0.000
  0.000   0.000   0.090   0.000   0.000   0.000   0.000   0.071
  0.000   0.000   0.000   0.090   0.000   0.000   0.000   0.000
  0.000   0.000   0.000   0.000   0.090   0.000   0.000   0.000
  0.000   0.000   0.000   0.000   0.000   0.000   0.000   0.000
  0.000   0.000   0.000   0.000   0.000   0.000   0.000   0.000
  0.000   0.000   0.000   0.000   0.000   0.000   0.000   0.000
  0.000   0.000   0.000   0.000   0.000   0.000   0.000   0.000
  0.000   0.000   0.000   0.000   0.000   0.000   0.000   0.000
  0.000   0.000   0.000   0.000   0.000   0.000   0.000   0.000
  0.000   0.000   0.000   0.000   0.000   0.000   0.000   0.000
  0.000   0.000   0.000   0.000   0.000   0.000   0.000   0.000
 total augmentation occupancy for first ion, spin component:           1
  0.652   0.000   0.079   0.000   0.046  -0.529   0.000  -0.026   0.000  -0.015   0.000   0.000   0.000   0.000   0.000   0.000
  0.000   0.717   0.000   0.092   0.000   0.000  -0.551   0.000  -0.030   0.000   0.000   0.000   0.000   0.000   0.000   0.000
  0.079   0.000   0.733   0.000  -0.028  -0.026   0.000  -0.556   0.000   0.009   0.000   0.000   0.000   0.000   0.000   0.000
  0.000   0.092   0.000   0.652   0.000   0.000  -0.030   0.000  -0.529   0.000   0.000   0.000   0.000   0.000   0.000   0.000
  0.046   0.000  -0.028   0.000   0.766  -0.015   0.000   0.009   0.000  -0.567   0.000   0.000   0.000   0.000   0.000   0.000
 -0.529   0.000  -0.026   0.000  -0.015   0.473   0.000  -0.009   0.000  -0.005   0.000   0.000   0.000   0.000   0.000   0.000
  0.000  -0.551   0.000  -0.030   0.000   0.000   0.466   0.000  -0.010   0.000   0.000   0.000   0.000   0.000   0.000   0.000
 -0.026   0.000  -0.556   0.000   0.009  -0.009   0.000   0.464   0.000   0.003   0.000   0.000   0.000   0.000   0.000   0.000
  0.000  -0.030   0.000  -0.529   0.000   0.000  -0.010   0.000   0.473   0.000   0.000   0.000   0.000   0.000   0.000   0.000
 -0.015   0.000   0.009   0.000  -0.567  -0.005   0.000   0.003   0.000   0.461   0.000   0.000   0.000   0.000   0.000   0.000
  0.000   0.000   0.000   0.000   0.000   0.000   0.000   0.000   0.000   0.000   1.436  -0.275   0.000   0.000   0.000   0.000
  0.000   0.000   0.000   0.000   0.000   0.000   0.000   0.000   0.000   0.000  -0.275   0.058   0.000   0.000   0.000   0.000
  0.000   0.000   0.000   0.000   0.000   0.000   0.000   0.000   0.000   0.000   0.000   0.000   0.268   0.000   0.000   0.011
  0.000   0.000   0.000   0.000   0.000   0.000   0.000   0.000   0.000   0.000   0.000   0.000   0.000   0.268   0.000   0.000
  0.000   0.000   0.000   0.000   0.000   0.000   0.000   0.000   0.000   0.000   0.000   0.000   0.000   0.000   0.268   0.000
  0.000   0.000   0.000   0.000   0.000   0.000   0.000   0.000   0.000   0.000   0.000   0.000   0.011   0.000   0.000   0.000
  0.000   0.000   0.000   0.000   0.000   0.000   0.000   0.000   0.000   0.000   0.000   0.000   0.000   0.011   0.000   0.000
  0.000   0.000   0.000   0.000   0.000   0.000   0.000   0.000   0.000   0.000   0.000   0.000   0.000   0.000   0.011   0.000


------------------------ aborting loop because EDIFF is reached ----------------------------------------


    CHARGE:  cpu time    0.03: real time    0.03
    FORLOC:  cpu time    0.00: real time    0.00
    FORNL :  cpu time    0.11: real time    0.11
    STRESS:  cpu time    0.21: real time    0.44
    FORCOR:  cpu time    0.08: real time    0.35
    FORHAR:  cpu time    0.03: real time    0.62
    MIXING:  cpu time    0.00: real time    0.00

  FORCE on cell =-STRESS in cart. coord.  units (eV):
  Direction    XX          YY          ZZ          XY          YZ          ZX
  --------------------------------------------------------------------------------------
  Alpha Z    30.58334    30.58334    30.58334
  Ewald     -65.96700   -65.96700   -65.96700     0.00000     0.00000     0.00000
  Hartree     0.21587     0.21587     0.21587     0.00000     0.00000     0.00000
  E(xc)     -22.51248   -22.51248   -22.51248     0.00000     0.00000     0.00000
  Local       3.98430     3.98430     3.98430     0.00000     0.00000     0.00000
  n-local   -10.70651    -8.49563    -7.03723    -0.11391    -2.07188    -2.03840
  augment     2.91379     2.91379     2.91378     0.00000     0.00000     0.00000
  Kinetic    57.81895    61.59590    57.28207     2.71001    -0.14119    -0.51414
  Fock        0.00000     0.00000     0.00000     0.00000     0.00000     0.00000
  -------------------------------------------------------------------------------------
  Total      -0.62967    -0.62967    -0.62967     0.00000     0.00000     0.00000
  in kB     -55.63775   -55.63775   -55.63775     0.00000     0.00000     0.00000
  external pressure =      -55.64 kB  Pullay stress =        0.00 kB


 VOLUME and BASIS-vectors are now :
 -----------------------------------------------------------------------------
  energy-cutoff  :      350.00
  volume of cell :       18.13
      direct lattice vectors                 reciprocal lattice vectors
     2.866544087  0.000000000  0.000000000     0.348852126  0.123337852  0.213627426
    -0.955514696  2.702603683  0.000000000     0.000000000  0.370013556  0.213627426
    -0.955514696 -1.351301841  2.340523446     0.000000000  0.000000000  0.427254853

  length of vectors
     2.866544087  2.866544087  2.866544087     0.427254853  0.427254853  0.427254853


 FORCES acting on ions
    electron-ion (+dipol)            ewald-force                    non-local-force                 convergence-correction
 -----------------------------------------------------------------------------------------------
   0.150E-14 0.107E-14 0.317E-14   -.279E-15 -.214E-15 0.640E-15   0.331E-23 0.000E+00 0.000E+00   0.310E-15 0.175E-15 0.715E-15
 -----------------------------------------------------------------------------------------------
   0.150E-14 0.107E-14 0.317E-14   -.279E-15 -.214E-15 0.640E-15   0.331E-23 0.000E+00 0.000E+00   0.310E-15 0.175E-15 0.715E-15
 
 
 POSITION                                       TOTAL-FORCE (eV/Angst)
 -----------------------------------------------------------------------------------
      0.00000      0.00000      0.00000         0.000000      0.000000      0.000000
 -----------------------------------------------------------------------------------
    total drift:                                0.000000      0.000000      0.000000


--------------------------------------------------------------------------------------------------------



  FREE ENERGIE OF THE ION-ELECTRON SYSTEM (eV)
  ---------------------------------------------------
  free  energy   TOTEN  =       -11.975110 eV

  energy  without entropy=      -11.974239  energy(sigma->0) =      -11.974820
 


--------------------------------------------------------------------------------------------------------


    POTLOK:  cpu time    0.08: real time    0.11


--------------------------------------------------------------------------------------------------------


 writing wavefunctions
     LOOP+:  cpu time    2.29: real time    8.39
    4ORBIT:  cpu time    0.00: real time    0.00

 total amount of memory used by VASP on root node    34655. kBytes
========================================================================

   base      :      30000. kBytes
   nonl-proj :        238. kBytes
   fftplans  :       1676. kBytes
   grid      :       2560. kBytes
   one-center:         15. kBytes
   wavefun   :        166. kBytes
 
  
  
 General timing and accounting informations for this job:
 ========================================================
  
                  Total CPU time used (sec):        2.622
                            User time (sec):        2.536
                          System time (sec):        0.086
                         Elapsed time (sec):       10.524
  
                   Maximum memory used (kb):           0.
                   Average memory used (kb):           0.
  
                          Minor page faults:         7280
                          Major page faults:            3
                 Voluntary context switches:          969
