<?xml version="1.0" encoding="ISO-8859-1"?>
<modeling>
 <generator>
  <i name="program" type="string">vasp </i>
  <i name="version" type="string">5.2.12  </i>
  <i name="subversion" type="string">11Nov11 complex                                                      parallel </i>
  <i name="platform" type="string">LinuxIFC </i>
  <i name="date" type="string">2012 10 14 </i>
  <i name="time" type="string">15:40:34 </i>
 </generator>
 <incar>
  <i type="string" name="PREC">accurate</i>
  <i name="ENCUT">    350.00000000</i>
  <i type="logical" name="LREAL"> F  </i>
  <i type="int" name="ISMEAR">     1</i>
  <i name="SIGMA">      0.05000000</i>
 </incar>
 <kpoints>
  <generation param="Monkhorst-Pack">
   <v type="int" name="divisions">       4        4        4 </v>
   <v name="usershift">      0.00000000       0.00000000       0.00000000 </v>
   <v name="genvec1">      0.25000000       0.00000000       0.00000000 </v>
   <v name="genvec2">      0.00000000       0.25000000       0.00000000 </v>
   <v name="genvec3">      0.00000000       0.00000000       0.25000000 </v>
   <v name="shift">      0.50000000       0.50000000       0.50000000 </v>
  </generation>
  <varray name="kpointlist" >
   <v>       0.12500000       0.12500000       0.12500000 </v>
   <v>       0.37500000       0.12500000       0.12500000 </v>
   <v>      -0.12500000       0.12500000       0.12500000 </v>
   <v>      -0.37500000       0.37500000       0.12500000 </v>
   <v>      -0.37500000      -0.37500000       0.12500000 </v>
   <v>      -0.37500000       0.37500000       0.37500000 </v>
  </varray>
  <varray name="weights" >
   <v>       0.12500000 </v>
   <v>       0.18750000 </v>
   <v>       0.09375000 </v>
   <v>       0.37500000 </v>
   <v>       0.12500000 </v>
   <v>       0.09375000 </v>
  </varray>
 </kpoints>
 <parameters>
  <separator name="general" >
   <i type="string" name="SYSTEM">unknown system</i>
   <i type="logical" name="LCOMPAT"> F  </i>
  </separator>
  <separator name="electronic" >
   <i type="string" name="PREC">accura</i>
   <i name="ENMAX">    350.00000000</i>
   <i name="ENAUG">    332.07500000</i>
   <i name="EDIFF">      0.00010000</i>
   <i type="int" name="IALGO">    38</i>
   <i type="int" name="IWAVPR">    10</i>
   <i type="int" name="NBANDS">     6</i>
   <i name="NELECT">      5.00000000</i>
   <i type="int" name="TURBO">     0</i>
   <i type="int" name="IRESTART">     0</i>
   <i type="int" name="NREBOOT">     0</i>
   <i type="int" name="NMIN">     0</i>
   <i name="EREF">      0.00000000</i>
   <separator name="electronic smearing" >
    <i type="int" name="ISMEAR">     1</i>
    <i name="SIGMA">      0.05000000</i>
    <i name="KSPACING">      0.50000000</i>
    <i type="logical" name="KGAMMA"> T  </i>
   </separator>
   <separator name="electronic projectors" >
    <i type="logical" name="LREAL"> F  </i>
    <v name="ROPT">      0.00000000</v>
    <i type="int" name="LMAXPAW">  -100</i>
    <i type="int" name="LMAXMIX">     2</i>
    <i type="logical" name="NLSPLINE"> F  </i>
   </separator>
   <separator name="electronic startup" >
    <i type="int" name="ISTART">     0</i>
    <i type="int" name="ICHARG">     2</i>
    <i type="int" name="INIWAV">     1</i>
   </separator>
   <separator name="electronic spin" >
    <i type="int" name="ISPIN">     1</i>
    <i type="logical" name="LNONCOLLINEAR"> F  </i>
    <v name="MAGMOM">      1.00000000</v>
    <i name="NUPDOWN">     -1.00000000</i>
    <i type="logical" name="LSORBIT"> F  </i>
    <v name="SAXIS">      0.00000000      0.00000000      1.00000000</v>
    <i type="logical" name="LSPIRAL"> F  </i>
    <v name="QSPIRAL">      0.00000000      0.00000000      0.00000000</v>
    <i type="logical" name="LZEROZ"> F  </i>
   </separator>
   <separator name="electronic exchange-correlation" >
    <i type="logical" name="LASPH"> F  </i>
    <i type="logical" name="LMETAGGA"> F  </i>
   </separator>
   <separator name="electronic convergence" >
    <i type="int" name="NELM">    60</i>
    <i type="int" name="NELMDL">    -5</i>
    <i type="int" name="NELMIN">     2</i>
    <i name="ENINI">    350.00000000</i>
    <separator name="electronic convergence detail" >
     <i type="logical" name="LDIAG"> T  </i>
     <i type="logical" name="LSUBROT"> T  </i>
     <i name="WEIMIN">      0.00000000</i>
     <i name="EBREAK">      0.00000417</i>
     <i name="DEPER">      0.30000000</i>
     <i type="int" name="NRMM">     4</i>
     <i name="TIME">      0.40000000</i>
    </separator>
   </separator>
   <separator name="electronic mixer" >
    <i name="AMIX">      0.40000000</i>
    <i name="BMIX">      1.00000000</i>
    <i name="AMIN">      0.10000000</i>
    <i name="AMIX_MAG">      1.60000000</i>
    <i name="BMIX_MAG">      1.00000000</i>
    <separator name="electronic mixer details" >
     <i type="int" name="IMIX">     4</i>
     <i type="int" name="MAXMIX">   -45</i>
     <i name="WC">    100.00000000</i>
     <i type="int" name="INIMIX">     1</i>
     <i type="int" name="MIXPRE">     1</i>
     <i type="int" name="MREMOVE">     5</i>
    </separator>
   </separator>
   <separator name="electronic dipolcorrection" >
    <i type="logical" name="LDIPOL"> F  </i>
    <i type="logical" name="LMONO"> F  </i>
    <i type="int" name="IDIPOL">     0</i>
    <i name="EPSILON">      1.00000000</i>
    <v name="DIPOL">   -100.00000000   -100.00000000   -100.00000000</v>
    <i name="EFIELD">      0.00000000</i>
   </separator>
  </separator>
  <separator name="grids" >
   <i type="int" name="NGX">    18</i>
   <i type="int" name="NGY">    18</i>
   <i type="int" name="NGZ">    18</i>
   <i type="int" name="NGXF">    36</i>
   <i type="int" name="NGYF">    36</i>
   <i type="int" name="NGZF">    36</i>
   <i type="logical" name="ADDGRID"> F  </i>
  </separator>
  <separator name="ionic" >
   <i type="int" name="NSW">     0</i>
   <i type="int" name="IBRION">    -1</i>
   <i type="int" name="ISIF">     2</i>
   <i name="PSTRESS">      0.00000000</i>
   <i name="EDIFFG">      0.00100000</i>
   <i type="int" name="NFREE">     0</i>
   <i name="POTIM">      0.50000000</i>
   <i name="SMASS">     -3.00000000</i>
   <i name="SCALEE">      1.00000000</i>
  </separator>
  <separator name="ionic md" >
   <i name="TEBEG">      0.00010000</i>
   <i name="TEEND">      0.00010000</i>
   <i type="int" name="NBLOCK">     1</i>
   <i type="int" name="KBLOCK">     1</i>
   <i type="int" name="NPACO">   256</i>
   <i name="APACO">     16.00000000</i>
  </separator>
  <separator name="symmetry" >
   <i type="int" name="ISYM">     2</i>
   <i name="SYMPREC">      0.00001000</i>
  </separator>
  <separator name="dos" >
   <i type="logical" name="LORBIT"> F  </i>
   <v name="RWIGS">     -1.00000000</v>
   <i type="int" name="NEDOS">   301</i>
   <i name="EMIN">     10.00000000</i>
   <i name="EMAX">    -10.00000000</i>
   <i name="EFERMI">      0.00000000</i>
  </separator>
  <separator name="writing" >
   <i type="int" name="NWRITE">     2</i>
   <i type="logical" name="LWAVE"> T  </i>
   <i type="logical" name="LCHARG"> T  </i>
   <i type="logical" name="LPARD"> F  </i>
   <i type="logical" name="LVTOT"> F  </i>
   <i type="logical" name="LVHAR"> F  </i>
   <i type="logical" name="LELF"> F  </i>
   <i type="logical" name="LOPTICS"> F  </i>
   <v name="STM">      0.00000000      0.00000000      0.00000000      0.00000000      0.00000000      0.00000000      0.00000000</v>
  </separator>
  <separator name="performance" >
   <i type="int" name="NPAR">     1</i>
   <i type="int" name="NSIM">     4</i>
   <i type="int" name="NBLK">    -1</i>
   <i type="logical" name="LPLANE"> T  </i>
   <i type="logical" name="LSCALAPACK"> F  </i>
   <i type="logical" name="LSCAAWARE"> F  </i>
   <i type="logical" name="LSCALU"> F  </i>
   <i type="logical" name="LASYNC"> F  </i>
   <i type="logical" name="LORBITALREAL"> F  </i>
  </separator>
  <separator name="miscellaneous" >
   <i type="int" name="IDIOT">     3</i>
   <i type="logical" name="LMUSIC"> F  </i>
   <v name="POMASS">    180.94800000</v>
   <v name="DARWINR">      0.00000000</v>
   <v name="DARWINV">      1.00000000</v>
   <i type="logical" name="LCORR"> T  </i>
  </separator>
  <i type="logical" name="GGA_COMPAT"> T  </i>
  <i type="logical" name="LBERRY"> F  </i>
  <i type="int" name="ICORELEVEL">     0</i>
  <i type="logical" name="LDAU"> F  </i>
  <i type="int" name="I_CONSTRAINED_M">     0</i>
  <separator name="electronic exchange-correlation" >
   <i type="string" name="GGA">--</i>
   <i type="int" name="VOSKOWN">     0</i>
   <i type="logical" name="LHFCALC"> F  </i>
   <i type="string" name="PRECFOCK"></i>
   <i type="logical" name="LHFONE"> F  </i>
   <i type="logical" name="LRHFCALC"> F  </i>
   <i type="logical" name="LTHOMAS"> F  </i>
   <i type="logical" name="LMODELHF"> F  </i>
   <i name="ENCUT4O">     -1.00000000</i>
   <i type="int" name="EXXOEP">     0</i>
   <i type="int" name="FOURORBIT">     0</i>
   <i name="AEXX">      0.00000000</i>
   <i name="HFALPHA">      0.00000000</i>
   <i name="ALDAX">      1.00000000</i>
   <i name="AGGAX">      1.00000000</i>
   <i name="ALDAC">      1.00000000</i>
   <i name="AGGAC">      1.00000000</i>
   <i type="int" name="NKREDX">     1</i>
   <i type="int" name="NKREDY">     1</i>
   <i type="int" name="NKREDZ">     1</i>
   <i type="logical" name="SHIFTRED"> F  </i>
   <i type="logical" name="ODDONLY"> F  </i>
   <i type="logical" name="EVENONLY"> F  </i>
   <i type="int" name="LMAXFOCK">     0</i>
   <i type="int" name="NMAXFOCKAE">     0</i>
   <i type="logical" name="LFOCKAEDFT"> F  </i>
   <i name="HFSCREEN">      0.00000000</i>
   <i name="HFSCREENC">      0.00000000</i>
  </separator>
  <separator name="vdW DFT" >
   <i type="logical" name="LUSE_VDW"> F  </i>
   <i name="Zab_VDW">     -0.84910000</i>
   <i name="PARAM1">      0.12340000</i>
   <i name="PARAM2">      1.00000000</i>
   <i name="PARAM3">      0.00000000</i>
  </separator>
  <separator name="model GW" >
   <i type="int" name="MODEL_GW">     0</i>
   <i name="MODEL_EPS0">     10.87940730</i>
   <i name="MODEL_ALPHA">      1.00000000</i>
  </separator>
  <separator name="linear response parameters" >
   <i type="logical" name="LEPSILON"> F  </i>
   <i type="logical" name="LRPA"> F  </i>
   <i type="logical" name="LNABLA"> F  </i>
   <i type="logical" name="LVEL"> F  </i>
   <i type="int" name="KINTER">     0</i>
   <i name="CSHIFT">      0.10000000</i>
   <i name="OMEGAMAX">     -1.00000000</i>
  </separator>
  <separator name="orbital magnetization" >
   <i type="logical" name="NUCIND"> F  </i>
   <v name="MAGPOS">      0.00000000      0.00000000      0.00000000</v>
   <i type="logical" name="LNICSALL"> T  </i>
   <i type="logical" name="ORBITALMAG"> F  </i>
   <i type="logical" name="LMAGBLOCH"> F  </i>
   <i type="logical" name="LCHIMAG"> F  </i>
   <i type="logical" name="LGAUGE"> T  </i>
   <i type="int" name="MAGATOM">     0</i>
   <v name="MAGDIPOL">      0.00000000      0.00000000      0.00000000</v>
   <v name="AVECCONST">      0.00000000      0.00000000      0.00000000</v>
  </separator>
  <separator name="response functions" >
   <i type="logical" name="LADDER"> F  </i>
   <i type="logical" name="LHARTREE"> T  </i>
   <i type="int" name="IBSE">     0</i>
   <i type="logical" name="LTCTE"> F  </i>
   <i type="logical" name="LTETE"> F  </i>
   <i type="logical" name="LFXCEPS"> F  </i>
   <i type="logical" name="L2ORDER"> F  </i>
   <i type="logical" name="LUSEW"> F  </i>
   <i name="ENCUTGW">     -2.00000000</i>
   <i name="ENCUTGWSOFT">     -2.00000000</i>
   <i name="ENCUTLF">     -1.00000000</i>
   <i type="int" name="LMAXMP2">    -1</i>
   <i name="SCISSOR">      0.00000000</i>
   <i type="int" name="NOMEGA">     0</i>
   <i type="int" name="NOMEGAR">     0</i>
   <i type="int" name="NBANDSGW">    -1</i>
   <i type="int" name="NBANDSO">    -1</i>
   <i type="int" name="NBANDSV">    -1</i>
   <i name="OPTEMAX">      0.00000000</i>
   <i type="int" name="NELM">     1</i>
   <i type="int" name="DIM">     3</i>
   <i type="int" name="ANTIRES">     0</i>
   <i name="OMEGAMAX">    -30.00000000</i>
   <i name="OMEGATL">   -200.00000000</i>
   <i type="int" name="OMEGAGRID">     0</i>
   <i name="CSHIFT">     -0.10000000</i>
   <i type="logical" name="SELFENERGY"> F  </i>
   <i type="logical" name="LSPECTRAL"> F  </i>
   <i type="logical" name="ODDONLYGW"> F  </i>
   <i type="logical" name="EVENONLYGW"> F  </i>
   <i type="int" name="NKREDLFX">     1</i>
   <i type="int" name="NKREDLFY">     1</i>
   <i type="int" name="NKREDLFZ">     1</i>
   <i type="int" name="MAXMEM">  1800</i>
   <i type="int" name="TELESCOPE">     0</i>
  </separator>
 </parameters>
 <atominfo>
  <atoms>       1 </atoms>
  <types>       1 </types>
  <array name="atoms" >
   <dimension dim="1">ion</dimension>
   <field type="string">element</field>
   <field type="int">atomtype</field>
   <set>
    <rc><c>Ta</c><c>   1</c></rc>
   </set>
  </array>
  <array name="atomtypes" >
   <dimension dim="1">type</dimension>
   <field type="int">atomspertype</field>
   <field type="string">element</field>
   <field>mass</field>
   <field>valence</field>
   <field type="string">pseudopotential</field>
   <set>
    <rc><c>   1</c><c>Ta</c><c>    180.94800000</c><c>      5.00000000</c><c>  PAW_PBE Ta 17Jan2003                  </c></rc>
   </set>
  </array>
 </atominfo>
 <structure name="initialpos" >
  <crystal>
   <varray name="basis" >
    <v>       2.86654409       0.00000000       0.00000000 </v>
    <v>      -0.95551470       2.70260368       0.00000000 </v>
    <v>      -0.95551470      -1.35130184       2.34052345 </v>
   </varray>
   <i name="volume">     18.13234550 </i>
   <varray name="rec_basis" >
    <v>       0.34885213       0.12333785       0.21362743 </v>
    <v>       0.00000000       0.37001356       0.21362743 </v>
    <v>       0.00000000       0.00000000       0.42725485 </v>
   </varray>
  </crystal>
  <varray name="positions" >
   <v>       0.00000000       0.00000000       0.00000000 </v>
  </varray>
 </structure>
 <calculation>
  <scstep>
   <time name="dav">    0.09    0.29</time>
   <time name="total">    0.18    0.44</time>
   <energy>
    <i name="alphaZ">     30.58334069 </i>
    <i name="ewald">   -197.90100875 </i>
    <i name="hartreedc">     -2.50452612 </i>
    <i name="XCdc">    -66.68582567 </i>
    <i name="pawpsdc">    148.27821850 </i>
    <i name="pawaedc">    -73.99089003 </i>
    <i name="eentropy">     -0.00522426 </i>
    <i name="bandstr">     28.59904401 </i>
    <i name="atom">    130.64621481 </i>
    <i name="e_fr_energy">     -2.98065682 </i>
    <i name="e_wo_entrp">     -2.97543256 </i>
    <i name="e_0_energy">     -2.97891540 </i>
   </energy>
  </scstep>
  <scstep>
   <time name="dav">    0.12    0.12</time>
   <time name="total">    0.12    0.13</time>
   <energy>
    <i name="e_fr_energy">    -12.38196248 </i>
    <i name="e_wo_entrp">    -12.38085436 </i>
    <i name="e_0_energy">    -12.38159310 </i>
   </energy>
  </scstep>
  <scstep>
   <time name="dav">    0.07    0.19</time>
   <time name="total">    0.07    0.21</time>
   <energy>
    <i name="e_fr_energy">    -12.42886643 </i>
    <i name="e_wo_entrp">    -12.42775831 </i>
    <i name="e_0_energy">    -12.42849705 </i>
   </energy>
  </scstep>
  <scstep>
   <time name="dav">    0.09    0.28</time>
   <time name="total">    0.09    0.40</time>
   <energy>
    <i name="e_fr_energy">    -12.42894775 </i>
    <i name="e_wo_entrp">    -12.42783963 </i>
    <i name="e_0_energy">    -12.42857838 </i>
   </energy>
  </scstep>
  <scstep>
   <time name="dav">    0.08    0.08</time>
   <time name="total">    0.12    1.08</time>
   <energy>
    <i name="e_fr_energy">    -12.42894781 </i>
    <i name="e_wo_entrp">    -12.42783969 </i>
    <i name="e_0_energy">    -12.42857844 </i>
   </energy>
  </scstep>
  <scstep>
   <time name="dav">    0.08    0.08</time>
   <time name="total">    0.21    0.73</time>
   <energy>
    <i name="e_fr_energy">    -12.12089859 </i>
    <i name="e_wo_entrp">    -12.11984305 </i>
    <i name="e_0_energy">    -12.12054674 </i>
   </energy>
  </scstep>
  <scstep>
   <time name="dav">    0.08    0.08</time>
   <time name="total">    0.25    0.36</time>
   <energy>
    <i name="e_fr_energy">    -11.97593160 </i>
    <i name="e_wo_entrp">    -11.97496477 </i>
    <i name="e_0_energy">    -11.97560932 </i>
   </energy>
  </scstep>
  <scstep>
   <time name="dav">    0.10    0.10</time>
   <time name="total">    0.23    0.29</time>
   <energy>
    <i name="e_fr_energy">    -11.97648710 </i>
    <i name="e_wo_entrp">    -11.97549639 </i>
    <i name="e_0_energy">    -11.97615686 </i>
   </energy>
  </scstep>
  <scstep>
   <time name="dav">    0.07    0.12</time>
   <time name="total">    0.19    0.45</time>
   <energy>
    <i name="e_fr_energy">    -11.97512883 </i>
    <i name="e_wo_entrp">    -11.97423794 </i>
    <i name="e_0_energy">    -11.97483187 </i>
   </energy>
  </scstep>
  <scstep>
   <time name="dav">    0.07    0.17</time>
   <time name="total">    0.15    0.35</time>
   <energy>
    <i name="alphaZ">     30.58334069 </i>
    <i name="ewald">   -197.90100875 </i>
    <i name="hartreedc">     -0.64856544 </i>
    <i name="XCdc">    -66.02801504 </i>
    <i name="pawpsdc">    193.43965499 </i>
    <i name="pawaedc">   -119.95274578 </i>
    <i name="eentropy">     -0.00087161 </i>
    <i name="bandstr">     17.88688582 </i>
    <i name="atom">    130.64621481 </i>
    <i name="e_fr_energy">    -11.97511030 </i>
    <i name="e_wo_entrp">    -11.97423869 </i>
    <i name="e_0_energy">    -11.97481976 </i>
   </energy>
  </scstep>
  <parameters_embedded>
   <separator name="dft+d2" >
    <i type="logical" name="LVDW"> F  </i>
   </separator>
  </parameters_embedded>
  <structure>
   <crystal>
    <varray name="basis" >
     <v>       2.86654409       0.00000000       0.00000000 </v>
     <v>      -0.95551470       2.70260368       0.00000000 </v>
     <v>      -0.95551470      -1.35130184       2.34052345 </v>
    </varray>
    <i name="volume">     18.13234550 </i>
    <varray name="rec_basis" >
     <v>       0.34885213       0.12333785       0.21362743 </v>
     <v>       0.00000000       0.37001356       0.21362743 </v>
     <v>       0.00000000       0.00000000       0.42725485 </v>
    </varray>
   </crystal>
   <varray name="positions" >
    <v>       0.00000000       0.00000000       0.00000000 </v>
   </varray>
  </structure>
  <varray name="forces" >
   <v>       0.00000000       0.00000000       0.00000000 </v>
  </varray>
  <varray name="stress" >
   <v>     -55.63775180       0.00000000       0.00000000 </v>
   <v>       0.00000000     -55.63775180       0.00000000 </v>
   <v>       0.00000000       0.00000000     -55.63775180 </v>
  </varray>
  <energy>
   <i name="e_fr_energy">    -11.97511030 </i>
   <i name="e_wo_entrp">    -11.97481976 </i>
   <i name="e_0_energy">     -0.00087161 </i>
  </energy>
  <time name="totalsc">    2.29    8.39</time>
  <eigenvalues>
   <array>
    <dimension dim="1">band</dimension>
    <dimension dim="2">kpoint</dimension>
    <dimension dim="3">spin</dimension>
    <field>eigene</field>
    <field>occ</field>
    <set>
     <set comment="spin 1">
      <set comment="kpoint 1">
       <r>    1.1374    1.0000 </r>
       <r>    4.7239    1.0000 </r>
       <r>    4.7239    1.0000 </r>
       <r>    9.7813    0.0000 </r>
       <r>    9.7813    0.0000 </r>
       <r>   11.0513    0.0000 </r>
      </set>
      <set comment="kpoint 2">
       <r>    2.6694    1.0000 </r>
       <r>    4.0738    1.0000 </r>
       <r>    5.9709    0.0000 </r>
       <r>   10.1058    0.0000 </r>
       <r>   10.6742    0.0000 </r>
       <r>   15.0568    0.0000 </r>
      </set>
      <set comment="kpoint 3">
       <r>   -0.8939    1.0000 </r>
       <r>    6.3582    0.0000 </r>
       <r>    6.3582    0.0000 </r>
       <r>    7.1048    0.0000 </r>
       <r>    7.7930    0.0000 </r>
       <r>   10.3839    0.0000 </r>
      </set>
      <set comment="kpoint 4">
       <r>    1.8300    1.0000 </r>
       <r>    5.1271    1.0033 </r>
       <r>    5.2101    0.9133 </r>
       <r>    8.4359    0.0000 </r>
       <r>   10.9613    0.0000 </r>
       <r>   11.5160    0.0000 </r>
      </set>
      <set comment="kpoint 5">
       <r>    4.0143    1.0000 </r>
       <r>    4.0143    1.0000 </r>
       <r>    4.2258    1.0000 </r>
       <r>   10.1465    0.0000 </r>
       <r>   10.1465    0.0000 </r>
       <r>   15.1018    0.0000 </r>
      </set>
      <set comment="kpoint 6">
       <r>    2.6789    1.0000 </r>
       <r>    2.7412    1.0000 </r>
       <r>    9.2197    0.0000 </r>
       <r>    9.2197    0.0000 </r>
       <r>   11.2423    0.0000 </r>
       <r>   11.4813    0.0000 </r>
      </set>
     </set>
    </set>
   </array>
  </eigenvalues>
  <separator name="orbital magnetization" >
   <v name="MAGDIPOLOUT">      0.00000000      0.00000000      0.00000000</v>
  </separator>
  <dos>
   <i name="efermi">      5.23938410 </i>
   <total>
    <array>
     <dimension dim="1">gridpoints</dimension>
     <dimension dim="2">spin</dimension>
     <field>energy</field>
     <field>total</field>
     <field>integrated</field>
     <set>
      <set comment="spin 1">
       <r>    -1.6937     0.0000     0.0000 </r>
       <r>    -1.6351     0.0000     0.0000 </r>
       <r>    -1.5764     0.0000     0.0000 </r>
       <r>    -1.5178     0.0000     0.0000 </r>
       <r>    -1.4591     0.0000     0.0000 </r>
       <r>    -1.4005     0.0000     0.0000 </r>
       <r>    -1.3418     0.0000     0.0000 </r>
       <r>    -1.2832     0.0000     0.0000 </r>
       <r>    -1.2245     0.0000     0.0000 </r>
       <r>    -1.1658     0.0000     0.0000 </r>
       <r>    -1.1072     0.0000     0.0000 </r>
       <r>    -1.0485    -0.0002     0.0000 </r>
       <r>    -0.9899    -0.0327    -0.0019 </r>
       <r>    -0.9312     0.1126     0.0047 </r>
       <r>    -0.8726     2.5645     0.1551 </r>
       <r>    -0.8139     0.6264     0.1918 </r>
       <r>    -0.7553    -0.0728     0.1876 </r>
       <r>    -0.6966    -0.0010     0.1875 </r>
       <r>    -0.6380     0.0000     0.1875 </r>
       <r>    -0.5793     0.0000     0.1875 </r>
       <r>    -0.5207     0.0000     0.1875 </r>
       <r>    -0.4620     0.0000     0.1875 </r>
       <r>    -0.4034     0.0000     0.1875 </r>
       <r>    -0.3447     0.0000     0.1875 </r>
       <r>    -0.2861     0.0000     0.1875 </r>
       <r>    -0.2274     0.0000     0.1875 </r>
       <r>    -0.1688     0.0000     0.1875 </r>
       <r>    -0.1101     0.0000     0.1875 </r>
       <r>    -0.0515     0.0000     0.1875 </r>
       <r>     0.0072     0.0000     0.1875 </r>
       <r>     0.0658     0.0000     0.1875 </r>
       <r>     0.1245     0.0000     0.1875 </r>
       <r>     0.1831     0.0000     0.1875 </r>
       <r>     0.2418     0.0000     0.1875 </r>
       <r>     0.3004     0.0000     0.1875 </r>
       <r>     0.3591     0.0000     0.1875 </r>
       <r>     0.4177     0.0000     0.1875 </r>
       <r>     0.4764     0.0000     0.1875 </r>
       <r>     0.5350     0.0000     0.1875 </r>
       <r>     0.5937     0.0000     0.1875 </r>
       <r>     0.6523     0.0000     0.1875 </r>
       <r>     0.7110     0.0000     0.1875 </r>
       <r>     0.7696     0.0000     0.1875 </r>
       <r>     0.8283     0.0000     0.1875 </r>
       <r>     0.8869     0.0000     0.1875 </r>
       <r>     0.9456     0.0000     0.1875 </r>
       <r>     1.0042    -0.0023     0.1874 </r>
       <r>     1.0629    -0.1176     0.1805 </r>
       <r>     1.1215     1.1709     0.2491 </r>
       <r>     1.1802     3.2250     0.4383 </r>
       <r>     1.2388     0.0174     0.4393 </r>
       <r>     1.2975    -0.0308     0.4375 </r>
       <r>     1.3562    -0.0001     0.4375 </r>
       <r>     1.4148     0.0000     0.4375 </r>
       <r>     1.4735     0.0000     0.4375 </r>
       <r>     1.5321     0.0000     0.4375 </r>
       <r>     1.5908     0.0000     0.4375 </r>
       <r>     1.6494     0.0000     0.4375 </r>
       <r>     1.7081    -0.0193     0.4364 </r>
       <r>     1.7667    -0.4309     0.4111 </r>
       <r>     1.8254     5.8409     0.7537 </r>
       <r>     1.8840     7.8003     1.2112 </r>
       <r>     1.9427    -0.3620     1.1899 </r>
       <r>     2.0013    -0.0415     1.1875 </r>
       <r>     2.0600    -0.0001     1.1875 </r>
       <r>     2.1186     0.0000     1.1875 </r>
       <r>     2.1773     0.0000     1.1875 </r>
       <r>     2.2359     0.0000     1.1875 </r>
       <r>     2.2946     0.0000     1.1875 </r>
       <r>     2.3532     0.0000     1.1875 </r>
       <r>     2.4119     0.0000     1.1875 </r>
       <r>     2.4705     0.0000     1.1875 </r>
       <r>     2.5292    -0.0020     1.1874 </r>
       <r>     2.5878    -0.1800     1.1768 </r>
       <r>     2.6465     1.3192     1.2542 </r>
       <r>     2.7051     7.9627     1.7212 </r>
       <r>     2.7638     3.3171     1.9158 </r>
       <r>     2.8224     0.4415     1.9417 </r>
       <r>     2.8811    -0.0701     1.9376 </r>
       <r>     2.9397    -0.0009     1.9375 </r>
       <r>     2.9984     0.0000     1.9375 </r>
       <r>     3.0570     0.0000     1.9375 </r>
       <r>     3.1157     0.0000     1.9375 </r>
       <r>     3.1743     0.0000     1.9375 </r>
       <r>     3.2330     0.0000     1.9375 </r>
       <r>     3.2916     0.0000     1.9375 </r>
       <r>     3.3503     0.0000     1.9375 </r>
       <r>     3.4089     0.0000     1.9375 </r>
       <r>     3.4676     0.0000     1.9375 </r>
       <r>     3.5262     0.0000     1.9375 </r>
       <r>     3.5849     0.0000     1.9375 </r>
       <r>     3.6435     0.0000     1.9375 </r>
       <r>     3.7022     0.0000     1.9375 </r>
       <r>     3.7608     0.0000     1.9375 </r>
       <r>     3.8195     0.0000     1.9375 </r>
       <r>     3.8782    -0.0034     1.9373 </r>
       <r>     3.9368    -0.2151     1.9247 </r>
       <r>     3.9955     1.8044     2.0305 </r>
       <r>     4.0541     8.0797     2.5044 </r>
       <r>     4.1128     5.2149     2.8103 </r>
       <r>     4.1714    -0.0384     2.8080 </r>
       <r>     4.2301     2.5109     2.9553 </r>
       <r>     4.2887     1.9788     3.0713 </r>
       <r>     4.3474    -0.1438     3.0629 </r>
       <r>     4.4060    -0.0067     3.0625 </r>
       <r>     4.4647     0.0000     3.0625 </r>
       <r>     4.5233     0.0000     3.0625 </r>
       <r>     4.5820    -0.0019     3.0624 </r>
       <r>     4.6406    -0.1688     3.0525 </r>
       <r>     4.6993     1.3080     3.1292 </r>
       <r>     4.7579     6.9824     3.5387 </r>
       <r>     4.8166     0.5118     3.5688 </r>
       <r>     4.8752    -0.1059     3.5625 </r>
       <r>     4.9339    -0.0007     3.5625 </r>
       <r>     4.9925    -0.0060     3.5621 </r>
       <r>     5.0512    -0.3372     3.5424 </r>
       <r>     5.1098     3.1320     3.7261 </r>
       <r>     5.1685     9.9825     4.3116 </r>
       <r>     5.2271     9.9679     4.8962 </r>
       <r>     5.2858     3.1822     5.0828 </r>
       <r>     5.3444    -0.3403     5.0629 </r>
       <r>     5.4031    -0.0062     5.0625 </r>
       <r>     5.4617     0.0000     5.0625 </r>
       <r>     5.5204     0.0000     5.0625 </r>
       <r>     5.5790     0.0000     5.0625 </r>
       <r>     5.6377     0.0000     5.0625 </r>
       <r>     5.6963     0.0000     5.0625 </r>
       <r>     5.7550     0.0000     5.0625 </r>
       <r>     5.8136    -0.0003     5.0625 </r>
       <r>     5.8723    -0.0557     5.0592 </r>
       <r>     5.9309     0.1215     5.0663 </r>
       <r>     5.9896     5.0075     5.3600 </r>
       <r>     6.0482     1.4838     5.4471 </r>
       <r>     6.1069    -0.1605     5.4377 </r>
       <r>     6.1655    -0.0026     5.4375 </r>
       <r>     6.2242    -0.0032     5.4373 </r>
       <r>     6.2828    -0.1714     5.4273 </r>
       <r>     6.3415     1.6680     5.5251 </r>
       <r>     6.4001     4.8953     5.8122 </r>
       <r>     6.4588     0.0543     5.8154 </r>
       <r>     6.5175    -0.0491     5.8125 </r>
       <r>     6.5761    -0.0002     5.8125 </r>
       <r>     6.6348     0.0000     5.8125 </r>
       <r>     6.6934     0.0000     5.8125 </r>
       <r>     6.7521     0.0000     5.8125 </r>
       <r>     6.8107     0.0000     5.8125 </r>
       <r>     6.8694     0.0000     5.8125 </r>
       <r>     6.9280     0.0000     5.8125 </r>
       <r>     6.9867    -0.0067     5.8121 </r>
       <r>     7.0453    -0.1060     5.8059 </r>
       <r>     7.1040     1.6680     5.9037 </r>
       <r>     7.1626     1.7525     6.0065 </r>
       <r>     7.2213    -0.1032     6.0004 </r>
       <r>     7.2799    -0.0076     6.0000 </r>
       <r>     7.3386     0.0000     6.0000 </r>
       <r>     7.3972     0.0000     6.0000 </r>
       <r>     7.4559     0.0000     6.0000 </r>
       <r>     7.5145     0.0000     6.0000 </r>
       <r>     7.5732     0.0000     6.0000 </r>
       <r>     7.6318    -0.0001     6.0000 </r>
       <r>     7.6905    -0.0216     5.9987 </r>
       <r>     7.7491    -0.0013     5.9987 </r>
       <r>     7.8078     2.3849     6.1385 </r>
       <r>     7.8664     0.9276     6.1929 </r>
       <r>     7.9251    -0.0908     6.1876 </r>
       <r>     7.9837    -0.0019     6.1875 </r>
       <r>     8.0424     0.0000     6.1875 </r>
       <r>     8.1010     0.0000     6.1875 </r>
       <r>     8.1597     0.0000     6.1875 </r>
       <r>     8.2183     0.0000     6.1875 </r>
       <r>     8.2770    -0.0004     6.1875 </r>
       <r>     8.3356    -0.1004     6.1816 </r>
       <r>     8.3943     0.1310     6.1893 </r>
       <r>     8.4529     9.8326     6.7660 </r>
       <r>     8.5116     3.2698     6.9577 </r>
       <r>     8.5702    -0.3390     6.9379 </r>
       <r>     8.6289    -0.0061     6.9375 </r>
       <r>     8.6875     0.0000     6.9375 </r>
       <r>     8.7462     0.0000     6.9375 </r>
       <r>     8.8048     0.0000     6.9375 </r>
       <r>     8.8635     0.0000     6.9375 </r>
       <r>     8.9221     0.0000     6.9375 </r>
       <r>     8.9808     0.0000     6.9375 </r>
       <r>     9.0395     0.0000     6.9375 </r>
       <r>     9.0981    -0.0099     6.9369 </r>
       <r>     9.1568    -0.2156     6.9243 </r>
       <r>     9.2154     2.9543     7.0975 </r>
       <r>     9.2741     3.8690     7.3245 </r>
       <r>     9.3327    -0.1838     7.3137 </r>
       <r>     9.3914    -0.0202     7.3125 </r>
       <r>     9.4500     0.0000     7.3125 </r>
       <r>     9.5087     0.0000     7.3125 </r>
       <r>     9.5673     0.0000     7.3125 </r>
       <r>     9.6260    -0.0004     7.3125 </r>
       <r>     9.6846    -0.0837     7.3076 </r>
       <r>     9.7433     0.2623     7.3230 </r>
       <r>     9.8019     6.8009     7.7218 </r>
       <r>     9.8606     1.7481     7.8244 </r>
       <r>     9.9192    -0.1993     7.8127 </r>
       <r>     9.9779    -0.0086     7.8122 </r>
       <r>    10.0365    -0.2346     7.7984 </r>
       <r>    10.0952     2.0787     7.9203 </r>
       <r>    10.1538     9.9919     8.5064 </r>
       <r>    10.2125     3.4129     8.7065 </r>
       <r>    10.2711    -0.3244     8.6875 </r>
       <r>    10.3298    -0.1013     8.6816 </r>
       <r>    10.3884     1.9447     8.7956 </r>
       <r>    10.4471     1.4661     8.8816 </r>
       <r>    10.5057    -0.1078     8.8753 </r>
       <r>    10.5644    -0.0305     8.8735 </r>
       <r>    10.6230    -0.1496     8.8647 </r>
       <r>    10.6817     4.1697     9.1093 </r>
       <r>    10.7403     2.6180     9.2628 </r>
       <r>    10.7990    -0.2113     9.2504 </r>
       <r>    10.8576    -0.0873     9.2453 </r>
       <r>    10.9163    -0.0690     9.2413 </r>
       <r>    10.9749     9.2603     9.7844 </r>
       <r>    11.0336     4.9966    10.0774 </r>
       <r>    11.0922     2.9274    10.2491 </r>
       <r>    11.1509     0.0071    10.2495 </r>
       <r>    11.2095     0.1892    10.2606 </r>
       <r>    11.2682     2.6308    10.4149 </r>
       <r>    11.3268     0.4450    10.4410 </r>
       <r>    11.3855    -0.1019    10.4351 </r>
       <r>    11.4441    -0.2636    10.4196 </r>
       <r>    11.5028     6.6063    10.8071 </r>
       <r>    11.5615     9.9231    11.3891 </r>
       <r>    11.6201    -0.1613    11.3796 </r>
       <r>    11.6788    -0.0783    11.3750 </r>
       <r>    11.7374    -0.0003    11.3750 </r>
       <r>    11.7961     0.0000    11.3750 </r>
       <r>    11.8547     0.0000    11.3750 </r>
       <r>    11.9134     0.0000    11.3750 </r>
       <r>    11.9720     0.0000    11.3750 </r>
       <r>    12.0307     0.0000    11.3750 </r>
       <r>    12.0893     0.0000    11.3750 </r>
       <r>    12.1480     0.0000    11.3750 </r>
       <r>    12.2066     0.0000    11.3750 </r>
       <r>    12.2653     0.0000    11.3750 </r>
       <r>    12.3239     0.0000    11.3750 </r>
       <r>    12.3826     0.0000    11.3750 </r>
       <r>    12.4412     0.0000    11.3750 </r>
       <r>    12.4999     0.0000    11.3750 </r>
       <r>    12.5585     0.0000    11.3750 </r>
       <r>    12.6172     0.0000    11.3750 </r>
       <r>    12.6758     0.0000    11.3750 </r>
       <r>    12.7345     0.0000    11.3750 </r>
       <r>    12.7931     0.0000    11.3750 </r>
       <r>    12.8518     0.0000    11.3750 </r>
       <r>    12.9104     0.0000    11.3750 </r>
       <r>    12.9691     0.0000    11.3750 </r>
       <r>    13.0277     0.0000    11.3750 </r>
       <r>    13.0864     0.0000    11.3750 </r>
       <r>    13.1450     0.0000    11.3750 </r>
       <r>    13.2037     0.0000    11.3750 </r>
       <r>    13.2623     0.0000    11.3750 </r>
       <r>    13.3210     0.0000    11.3750 </r>
       <r>    13.3796     0.0000    11.3750 </r>
       <r>    13.4383     0.0000    11.3750 </r>
       <r>    13.4969     0.0000    11.3750 </r>
       <r>    13.5556     0.0000    11.3750 </r>
       <r>    13.6142     0.0000    11.3750 </r>
       <r>    13.6729     0.0000    11.3750 </r>
       <r>    13.7315     0.0000    11.3750 </r>
       <r>    13.7902     0.0000    11.3750 </r>
       <r>    13.8488     0.0000    11.3750 </r>
       <r>    13.9075     0.0000    11.3750 </r>
       <r>    13.9661     0.0000    11.3750 </r>
       <r>    14.0248     0.0000    11.3750 </r>
       <r>    14.0835     0.0000    11.3750 </r>
       <r>    14.1421     0.0000    11.3750 </r>
       <r>    14.2008     0.0000    11.3750 </r>
       <r>    14.2594     0.0000    11.3750 </r>
       <r>    14.3181     0.0000    11.3750 </r>
       <r>    14.3767     0.0000    11.3750 </r>
       <r>    14.4354     0.0000    11.3750 </r>
       <r>    14.4940     0.0000    11.3750 </r>
       <r>    14.5527     0.0000    11.3750 </r>
       <r>    14.6113     0.0000    11.3750 </r>
       <r>    14.6700     0.0000    11.3750 </r>
       <r>    14.7286     0.0000    11.3750 </r>
       <r>    14.7873     0.0000    11.3750 </r>
       <r>    14.8459     0.0000    11.3750 </r>
       <r>    14.9046    -0.0005    11.3750 </r>
       <r>    14.9632    -0.0764    11.3705 </r>
       <r>    15.0219     0.2371    11.3844 </r>
       <r>    15.0805     6.0461    11.7390 </r>
       <r>    15.1392     4.4773    12.0016 </r>
       <r>    15.1978     0.0180    12.0027 </r>
       <r>    15.2565    -0.0452    12.0000 </r>
       <r>    15.3151    -0.0002    12.0000 </r>
       <r>    15.3738     0.0000    12.0000 </r>
       <r>    15.4324     0.0000    12.0000 </r>
       <r>    15.4911     0.0000    12.0000 </r>
       <r>    15.5497     0.0000    12.0000 </r>
       <r>    15.6084     0.0000    12.0000 </r>
       <r>    15.6670     0.0000    12.0000 </r>
       <r>    15.7257     0.0000    12.0000 </r>
       <r>    15.7843     0.0000    12.0000 </r>
       <r>    15.8430     0.0000    12.0000 </r>
       <r>    15.9016     0.0000    12.0000 </r>
      </set>
     </set>
    </array>
   </total>
  </dos>
 </calculation>
 <structure name="finalpos" >
  <crystal>
   <varray name="basis" >
    <v>       2.86654409       0.00000000       0.00000000 </v>
    <v>      -0.95551470       2.70260368       0.00000000 </v>
    <v>      -0.95551470      -1.35130184       2.34052345 </v>
   </varray>
   <i name="volume">     18.13234550 </i>
   <varray name="rec_basis" >
    <v>       0.34885213       0.12333785       0.21362743 </v>
    <v>       0.00000000       0.37001356       0.21362743 </v>
    <v>       0.00000000       0.00000000       0.42725485 </v>
   </varray>
  </crystal>
  <varray name="positions" >
   <v>       0.00000000       0.00000000       0.00000000 </v>
  </varray>
 </structure>
</modeling>
