<?xml version="1.0" encoding="ISO-8859-1"?>
<modeling>
 <generator>
  <i name="program" type="string">vasp </i>
  <i name="version" type="string">5.2.12  </i>
  <i name="subversion" type="string">11Nov11 complex                                                      parallel </i>
  <i name="platform" type="string">LinuxIFC </i>
  <i name="date" type="string">2012 10 17 </i>
  <i name="time" type="string">10:14:48 </i>
 </generator>
 <incar>
  <i type="int" name="ISTART">     0</i>
  <i type="string" name="PREC">accurate</i>
  <i type="int" name="ISPIN">     2</i>
  <i name="ENCUT">    350.00000000</i>
  <i type="int" name="NBANDS">     6</i>
  <v name="MAGMOM">      6.00000000</v>
  <i type="logical" name="LREAL"> F  </i>
  <i type="int" name="ISMEAR">     1</i>
  <i name="SIGMA">      0.05000000</i>
  <i type="logical" name="LORBIT"> F  </i>
 </incar>
 <kpoints>
  <generation param="Monkhorst-Pack">
   <v type="int" name="divisions">       4        4        4 </v>
   <v name="usershift">      0.00000000       0.00000000       0.00000000 </v>
   <v name="genvec1">      0.25000000       0.00000000       0.00000000 </v>
   <v name="genvec2">      0.00000000       0.25000000       0.00000000 </v>
   <v name="genvec3">      0.00000000       0.00000000       0.25000000 </v>
   <v name="shift">      0.50000000       0.50000000       0.50000000 </v>
  </generation>
  <varray name="kpointlist" >
   <v>       0.12500000       0.12500000       0.12500000 </v>
   <v>       0.37500000       0.12500000       0.12500000 </v>
   <v>      -0.12500000       0.12500000       0.12500000 </v>
   <v>      -0.37500000       0.37500000       0.12500000 </v>
   <v>      -0.37500000      -0.37500000       0.12500000 </v>
   <v>      -0.37500000       0.37500000       0.37500000 </v>
  </varray>
  <varray name="weights" >
   <v>       0.12500000 </v>
   <v>       0.18750000 </v>
   <v>       0.09375000 </v>
   <v>       0.37500000 </v>
   <v>       0.12500000 </v>
   <v>       0.09375000 </v>
  </varray>
 </kpoints>
 <parameters>
  <separator name="general" >
   <i type="string" name="SYSTEM">unknown system</i>
   <i type="logical" name="LCOMPAT"> F  </i>
  </separator>
  <separator name="electronic" >
   <i type="string" name="PREC">accura</i>
   <i name="ENMAX">    350.00000000</i>
   <i name="ENAUG">    332.07500000</i>
   <i name="EDIFF">      0.00010000</i>
   <i type="int" name="IALGO">    38</i>
   <i type="int" name="IWAVPR">    10</i>
   <i type="int" name="NBANDS">     6</i>
   <i name="NELECT">      5.00000000</i>
   <i type="int" name="TURBO">     0</i>
   <i type="int" name="IRESTART">     0</i>
   <i type="int" name="NREBOOT">     0</i>
   <i type="int" name="NMIN">     0</i>
   <i name="EREF">      0.00000000</i>
   <separator name="electronic smearing" >
    <i type="int" name="ISMEAR">     1</i>
    <i name="SIGMA">      0.05000000</i>
    <i name="KSPACING">      0.50000000</i>
    <i type="logical" name="KGAMMA"> T  </i>
   </separator>
   <separator name="electronic projectors" >
    <i type="logical" name="LREAL"> F  </i>
    <v name="ROPT">      0.00000000</v>
    <i type="int" name="LMAXPAW">  -100</i>
    <i type="int" name="LMAXMIX">     2</i>
    <i type="logical" name="NLSPLINE"> F  </i>
   </separator>
   <separator name="electronic startup" >
    <i type="int" name="ISTART">     0</i>
    <i type="int" name="ICHARG">     2</i>
    <i type="int" name="INIWAV">     1</i>
   </separator>
   <separator name="electronic spin" >
    <i type="int" name="ISPIN">     2</i>
    <i type="logical" name="LNONCOLLINEAR"> F  </i>
    <v name="MAGMOM">      6.00000000</v>
    <i name="NUPDOWN">     -1.00000000</i>
    <i type="logical" name="LSORBIT"> F  </i>
    <v name="SAXIS">      0.00000000      0.00000000      1.00000000</v>
    <i type="logical" name="LSPIRAL"> F  </i>
    <v name="QSPIRAL">      0.00000000      0.00000000      0.00000000</v>
    <i type="logical" name="LZEROZ"> F  </i>
   </separator>
   <separator name="electronic exchange-correlation" >
    <i type="logical" name="LASPH"> F  </i>
    <i type="logical" name="LMETAGGA"> F  </i>
   </separator>
   <separator name="electronic convergence" >
    <i type="int" name="NELM">    60</i>
    <i type="int" name="NELMDL">    -5</i>
    <i type="int" name="NELMIN">     2</i>
    <i name="ENINI">    350.00000000</i>
    <separator name="electronic convergence detail" >
     <i type="logical" name="LDIAG"> T  </i>
     <i type="logical" name="LSUBROT"> T  </i>
     <i name="WEIMIN">      0.00000000</i>
     <i name="EBREAK">      0.00000417</i>
     <i name="DEPER">      0.30000000</i>
     <i type="int" name="NRMM">     4</i>
     <i name="TIME">      0.40000000</i>
    </separator>
   </separator>
   <separator name="electronic mixer" >
    <i name="AMIX">      0.40000000</i>
    <i name="BMIX">      1.00000000</i>
    <i name="AMIN">      0.10000000</i>
    <i name="AMIX_MAG">      1.60000000</i>
    <i name="BMIX_MAG">      1.00000000</i>
    <separator name="electronic mixer details" >
     <i type="int" name="IMIX">     4</i>
     <i type="int" name="MAXMIX">   -45</i>
     <i name="WC">    100.00000000</i>
     <i type="int" name="INIMIX">     1</i>
     <i type="int" name="MIXPRE">     1</i>
     <i type="int" name="MREMOVE">     5</i>
    </separator>
   </separator>
   <separator name="electronic dipolcorrection" >
    <i type="logical" name="LDIPOL"> F  </i>
    <i type="logical" name="LMONO"> F  </i>
    <i type="int" name="IDIPOL">     0</i>
    <i name="EPSILON">      1.00000000</i>
    <v name="DIPOL">   -100.00000000   -100.00000000   -100.00000000</v>
    <i name="EFIELD">      0.00000000</i>
   </separator>
  </separator>
  <separator name="grids" >
   <i type="int" name="NGX">    18</i>
   <i type="int" name="NGY">    18</i>
   <i type="int" name="NGZ">    18</i>
   <i type="int" name="NGXF">    36</i>
   <i type="int" name="NGYF">    36</i>
   <i type="int" name="NGZF">    36</i>
   <i type="logical" name="ADDGRID"> F  </i>
  </separator>
  <separator name="ionic" >
   <i type="int" name="NSW">     0</i>
   <i type="int" name="IBRION">    -1</i>
   <i type="int" name="ISIF">     2</i>
   <i name="PSTRESS">      0.00000000</i>
   <i name="EDIFFG">      0.00100000</i>
   <i type="int" name="NFREE">     0</i>
   <i name="POTIM">      0.50000000</i>
   <i name="SMASS">     -3.00000000</i>
   <i name="SCALEE">      1.00000000</i>
  </separator>
  <separator name="ionic md" >
   <i name="TEBEG">      0.00010000</i>
   <i name="TEEND">      0.00010000</i>
   <i type="int" name="NBLOCK">     1</i>
   <i type="int" name="KBLOCK">     1</i>
   <i type="int" name="NPACO">   256</i>
   <i name="APACO">     16.00000000</i>
  </separator>
  <separator name="symmetry" >
   <i type="int" name="ISYM">     2</i>
   <i name="SYMPREC">      0.00001000</i>
  </separator>
  <separator name="dos" >
   <i type="logical" name="LORBIT"> F  </i>
   <v name="RWIGS">     -1.00000000</v>
   <i type="int" name="NEDOS">   301</i>
   <i name="EMIN">     10.00000000</i>
   <i name="EMAX">    -10.00000000</i>
   <i name="EFERMI">      0.00000000</i>
  </separator>
  <separator name="writing" >
   <i type="int" name="NWRITE">     2</i>
   <i type="logical" name="LWAVE"> T  </i>
   <i type="logical" name="LCHARG"> T  </i>
   <i type="logical" name="LPARD"> F  </i>
   <i type="logical" name="LVTOT"> F  </i>
   <i type="logical" name="LVHAR"> F  </i>
   <i type="logical" name="LELF"> F  </i>
   <i type="logical" name="LOPTICS"> F  </i>
   <v name="STM">      0.00000000      0.00000000      0.00000000      0.00000000      0.00000000      0.00000000      0.00000000</v>
  </separator>
  <separator name="performance" >
   <i type="int" name="NPAR">     1</i>
   <i type="int" name="NSIM">     4</i>
   <i type="int" name="NBLK">    -1</i>
   <i type="logical" name="LPLANE"> T  </i>
   <i type="logical" name="LSCALAPACK"> F  </i>
   <i type="logical" name="LSCAAWARE"> F  </i>
   <i type="logical" name="LSCALU"> F  </i>
   <i type="logical" name="LASYNC"> F  </i>
   <i type="logical" name="LORBITALREAL"> F  </i>
  </separator>
  <separator name="miscellaneous" >
   <i type="int" name="IDIOT">     3</i>
   <i type="logical" name="LMUSIC"> F  </i>
   <v name="POMASS">    180.94800000</v>
   <v name="DARWINR">      0.00000000</v>
   <v name="DARWINV">      1.00000000</v>
   <i type="logical" name="LCORR"> T  </i>
  </separator>
  <i type="logical" name="GGA_COMPAT"> T  </i>
  <i type="logical" name="LBERRY"> F  </i>
  <i type="int" name="ICORELEVEL">     0</i>
  <i type="logical" name="LDAU"> F  </i>
  <i type="int" name="I_CONSTRAINED_M">     0</i>
  <separator name="electronic exchange-correlation" >
   <i type="string" name="GGA">--</i>
   <i type="int" name="VOSKOWN">     0</i>
   <i type="logical" name="LHFCALC"> F  </i>
   <i type="string" name="PRECFOCK"></i>
   <i type="logical" name="LHFONE"> F  </i>
   <i type="logical" name="LRHFCALC"> F  </i>
   <i type="logical" name="LTHOMAS"> F  </i>
   <i type="logical" name="LMODELHF"> F  </i>
   <i name="ENCUT4O">     -1.00000000</i>
   <i type="int" name="EXXOEP">     0</i>
   <i type="int" name="FOURORBIT">     0</i>
   <i name="AEXX">      0.00000000</i>
   <i name="HFALPHA">      0.00000000</i>
   <i name="ALDAX">      1.00000000</i>
   <i name="AGGAX">      1.00000000</i>
   <i name="ALDAC">      1.00000000</i>
   <i name="AGGAC">      1.00000000</i>
   <i type="int" name="NKREDX">     1</i>
   <i type="int" name="NKREDY">     1</i>
   <i type="int" name="NKREDZ">     1</i>
   <i type="logical" name="SHIFTRED"> F  </i>
   <i type="logical" name="ODDONLY"> F  </i>
   <i type="logical" name="EVENONLY"> F  </i>
   <i type="int" name="LMAXFOCK">     0</i>
   <i type="int" name="NMAXFOCKAE">     0</i>
   <i type="logical" name="LFOCKAEDFT"> F  </i>
   <i name="HFSCREEN">      0.00000000</i>
   <i name="HFSCREENC">      0.00000000</i>
  </separator>
  <separator name="vdW DFT" >
   <i type="logical" name="LUSE_VDW"> F  </i>
   <i name="Zab_VDW">     -0.84910000</i>
   <i name="PARAM1">      0.12340000</i>
   <i name="PARAM2">      1.00000000</i>
   <i name="PARAM3">      0.00000000</i>
  </separator>
  <separator name="model GW" >
   <i type="int" name="MODEL_GW">     0</i>
   <i name="MODEL_EPS0">     10.87940730</i>
   <i name="MODEL_ALPHA">      1.00000000</i>
  </separator>
  <separator name="linear response parameters" >
   <i type="logical" name="LEPSILON"> F  </i>
   <i type="logical" name="LRPA"> F  </i>
   <i type="logical" name="LNABLA"> F  </i>
   <i type="logical" name="LVEL"> F  </i>
   <i type="int" name="KINTER">     0</i>
   <i name="CSHIFT">      0.10000000</i>
   <i name="OMEGAMAX">     -1.00000000</i>
  </separator>
  <separator name="orbital magnetization" >
   <i type="logical" name="NUCIND"> F  </i>
   <v name="MAGPOS">      0.00000000      0.00000000      0.00000000</v>
   <i type="logical" name="LNICSALL"> T  </i>
   <i type="logical" name="ORBITALMAG"> F  </i>
   <i type="logical" name="LMAGBLOCH"> F  </i>
   <i type="logical" name="LCHIMAG"> F  </i>
   <i type="logical" name="LGAUGE"> T  </i>
   <i type="int" name="MAGATOM">     0</i>
   <v name="MAGDIPOL">      0.00000000      0.00000000      0.00000000</v>
   <v name="AVECCONST">      0.00000000      0.00000000      0.00000000</v>
  </separator>
  <separator name="response functions" >
   <i type="logical" name="LADDER"> F  </i>
   <i type="logical" name="LHARTREE"> T  </i>
   <i type="int" name="IBSE">     0</i>
   <i type="logical" name="LTCTE"> F  </i>
   <i type="logical" name="LTETE"> F  </i>
   <i type="logical" name="LFXCEPS"> F  </i>
   <i type="logical" name="L2ORDER"> F  </i>
   <i type="logical" name="LUSEW"> F  </i>
   <i name="ENCUTGW">     -2.00000000</i>
   <i name="ENCUTGWSOFT">     -2.00000000</i>
   <i name="ENCUTLF">     -1.00000000</i>
   <i type="int" name="LMAXMP2">    -1</i>
   <i name="SCISSOR">      0.00000000</i>
   <i type="int" name="NOMEGA">     0</i>
   <i type="int" name="NOMEGAR">     0</i>
   <i type="int" name="NBANDSGW">    -1</i>
   <i type="int" name="NBANDSO">    -1</i>
   <i type="int" name="NBANDSV">    -1</i>
   <i name="OPTEMAX">      0.00000000</i>
   <i type="int" name="NELM">     1</i>
   <i type="int" name="DIM">     3</i>
   <i type="int" name="ANTIRES">     0</i>
   <i name="OMEGAMAX">    -30.00000000</i>
   <i name="OMEGATL">   -200.00000000</i>
   <i type="int" name="OMEGAGRID">     0</i>
   <i name="CSHIFT">     -0.10000000</i>
   <i type="logical" name="SELFENERGY"> F  </i>
   <i type="logical" name="LSPECTRAL"> F  </i>
   <i type="logical" name="ODDONLYGW"> F  </i>
   <i type="logical" name="EVENONLYGW"> F  </i>
   <i type="int" name="NKREDLFX">     1</i>
   <i type="int" name="NKREDLFY">     1</i>
   <i type="int" name="NKREDLFZ">     1</i>
   <i type="int" name="MAXMEM">  1800</i>
   <i type="int" name="TELESCOPE">     0</i>
  </separator>
 </parameters>
 <atominfo>
  <atoms>       1 </atoms>
  <types>       1 </types>
  <array name="atoms" >
   <dimension dim="1">ion</dimension>
   <field type="string">element</field>
   <field type="int">atomtype</field>
   <set>
    <rc><c>Ta</c><c>   1</c></rc>
   </set>
  </array>
  <array name="atomtypes" >
   <dimension dim="1">type</dimension>
   <field type="int">atomspertype</field>
   <field type="string">element</field>
   <field>mass</field>
   <field>valence</field>
   <field type="string">pseudopotential</field>
   <set>
    <rc><c>   1</c><c>Ta</c><c>    180.94800000</c><c>      5.00000000</c><c>  PAW_PBE Ta 17Jan2003                  </c></rc>
   </set>
  </array>
 </atominfo>
 <structure name="initialpos" >
  <crystal>
   <varray name="basis" >
    <v>       2.86654409       0.00000000       0.00000000 </v>
    <v>      -0.95551470       2.70260368       0.00000000 </v>
    <v>      -0.95551470      -1.35130184       2.34052345 </v>
   </varray>
   <i name="volume">     18.13234550 </i>
   <varray name="rec_basis" >
    <v>       0.34885213       0.12333785       0.21362743 </v>
    <v>       0.00000000       0.37001356       0.21362743 </v>
    <v>       0.00000000       0.00000000       0.42725485 </v>
   </varray>
  </crystal>
  <varray name="positions" >
   <v>       0.00000000       0.00000000       0.00000000 </v>
  </varray>
 </structure>
 <calculation>
  <scstep>
   <time name="dav">    0.14    0.14</time>
   <time name="total">    0.32    0.34</time>
   <energy>
    <i name="alphaZ">     30.58334069 </i>
    <i name="ewald">   -197.90100875 </i>
    <i name="hartreedc">     -2.50452612 </i>
    <i name="XCdc">    -60.69825643 </i>
    <i name="pawpsdc">    143.51874798 </i>
    <i name="pawaedc">    -69.33493833 </i>
    <i name="eentropy">     -0.00193387 </i>
    <i name="bandstr">     36.34749438 </i>
    <i name="atom">    130.64621481 </i>
    <i name="e_fr_energy">     10.65513435 </i>
    <i name="e_wo_entrp">     10.65706822 </i>
    <i name="e_0_energy">     10.65577898 </i>
   </energy>
  </scstep>
  <scstep>
   <time name="dav">    0.22    0.23</time>
   <time name="total">    0.23    0.24</time>
   <energy>
    <i name="e_fr_energy">     -1.00390903 </i>
    <i name="e_wo_entrp">     -1.00380789 </i>
    <i name="e_0_energy">     -1.00387532 </i>
   </energy>
  </scstep>
  <scstep>
   <time name="dav">    0.13    0.13</time>
   <time name="total">    0.14    0.16</time>
   <energy>
    <i name="e_fr_energy">     -1.13102286 </i>
    <i name="e_wo_entrp">     -1.12985606 </i>
    <i name="e_0_energy">     -1.13063393 </i>
   </energy>
  </scstep>
  <scstep>
   <time name="dav">    0.16    0.16</time>
   <time name="total">    0.17    0.18</time>
   <energy>
    <i name="e_fr_energy">     -1.13144476 </i>
    <i name="e_wo_entrp">     -1.13027661 </i>
    <i name="e_0_energy">     -1.13105538 </i>
   </energy>
  </scstep>
  <scstep>
   <time name="dav">    0.13    0.13</time>
   <time name="total">    0.19    0.21</time>
   <energy>
    <i name="e_fr_energy">     -1.13144604 </i>
    <i name="e_wo_entrp">     -1.13027790 </i>
    <i name="e_0_energy">     -1.13105666 </i>
   </energy>
  </scstep>
  <scstep>
   <time name="dav">    0.13    0.13</time>
   <time name="total">    0.37    0.41</time>
   <energy>
    <i name="e_fr_energy">    -11.75602357 </i>
    <i name="e_wo_entrp">    -11.75574523 </i>
    <i name="e_0_energy">    -11.75593079 </i>
   </energy>
  </scstep>
  <scstep>
   <time name="dav">    0.14    0.14</time>
   <time name="total">    0.37    0.40</time>
   <energy>
    <i name="e_fr_energy">    -11.85818387 </i>
    <i name="e_wo_entrp">    -11.85596132 </i>
    <i name="e_0_energy">    -11.85744302 </i>
   </energy>
  </scstep>
  <scstep>
   <time name="dav">    0.14    0.14</time>
   <time name="total">    0.38    0.40</time>
   <energy>
    <i name="e_fr_energy">    -10.13355336 </i>
    <i name="e_wo_entrp">    -10.13190637 </i>
    <i name="e_0_energy">    -10.13300436 </i>
   </energy>
  </scstep>
  <scstep>
   <time name="dav">    0.13    0.13</time>
   <time name="total">    0.38    0.41</time>
   <energy>
    <i name="e_fr_energy">    -11.68930230 </i>
    <i name="e_wo_entrp">    -11.68853346 </i>
    <i name="e_0_energy">    -11.68904602 </i>
   </energy>
  </scstep>
  <scstep>
   <time name="dav">    0.15    0.15</time>
   <time name="total">    0.38    0.40</time>
   <energy>
    <i name="e_fr_energy">    -11.77607834 </i>
    <i name="e_wo_entrp">    -11.77472609 </i>
    <i name="e_0_energy">    -11.77562759 </i>
   </energy>
  </scstep>
  <scstep>
   <time name="dav">    0.14    0.14</time>
   <time name="total">    0.38    0.39</time>
   <energy>
    <i name="e_fr_energy">    -11.80732160 </i>
    <i name="e_wo_entrp">    -11.80597772 </i>
    <i name="e_0_energy">    -11.80687364 </i>
   </energy>
  </scstep>
  <scstep>
   <time name="dav">    0.13    0.13</time>
   <time name="total">    0.37    0.39</time>
   <energy>
    <i name="e_fr_energy">    -11.96922814 </i>
    <i name="e_wo_entrp">    -11.96953180 </i>
    <i name="e_0_energy">    -11.96932936 </i>
   </energy>
  </scstep>
  <scstep>
   <time name="dav">    0.15    0.15</time>
   <time name="total">    0.38    0.39</time>
   <energy>
    <i name="e_fr_energy">    -11.96756223 </i>
    <i name="e_wo_entrp">    -11.96721395 </i>
    <i name="e_0_energy">    -11.96744613 </i>
   </energy>
  </scstep>
  <scstep>
   <time name="dav">    0.14    0.14</time>
   <time name="total">    0.37    0.39</time>
   <energy>
    <i name="e_fr_energy">    -11.97430581 </i>
    <i name="e_wo_entrp">    -11.97334534 </i>
    <i name="e_0_energy">    -11.97398565 </i>
   </energy>
  </scstep>
  <scstep>
   <time name="dav">    0.13    0.13</time>
   <time name="total">    0.36    0.39</time>
   <energy>
    <i name="e_fr_energy">    -11.97579278 </i>
    <i name="e_wo_entrp">    -11.97450840 </i>
    <i name="e_0_energy">    -11.97536466 </i>
   </energy>
  </scstep>
  <scstep>
   <time name="dav">    0.13    0.13</time>
   <time name="total">    0.31    0.33</time>
   <energy>
    <i name="alphaZ">     30.58334069 </i>
    <i name="ewald">   -197.90100875 </i>
    <i name="hartreedc">     -0.64032257 </i>
    <i name="XCdc">    -66.02655532 </i>
    <i name="pawpsdc">    193.92752032 </i>
    <i name="pawaedc">   -120.44491243 </i>
    <i name="eentropy">     -0.00087792 </i>
    <i name="bandstr">     17.88088087 </i>
    <i name="atom">    130.64621481 </i>
    <i name="e_fr_energy">    -11.97572029 </i>
    <i name="e_wo_entrp">    -11.97484237 </i>
    <i name="e_0_energy">    -11.97542765 </i>
   </energy>
  </scstep>
  <parameters_embedded>
   <separator name="dft+d2" >
    <i type="logical" name="LVDW"> F  </i>
   </separator>
  </parameters_embedded>
  <structure>
   <crystal>
    <varray name="basis" >
     <v>       2.86654409       0.00000000       0.00000000 </v>
     <v>      -0.95551470       2.70260368       0.00000000 </v>
     <v>      -0.95551470      -1.35130184       2.34052345 </v>
    </varray>
    <i name="volume">     18.13234550 </i>
    <varray name="rec_basis" >
     <v>       0.34885213       0.12333785       0.21362743 </v>
     <v>       0.00000000       0.37001356       0.21362743 </v>
     <v>       0.00000000       0.00000000       0.42725485 </v>
    </varray>
   </crystal>
   <varray name="positions" >
    <v>       0.00000000       0.00000000       0.00000000 </v>
   </varray>
  </structure>
  <varray name="forces" >
   <v>       0.00000000       0.00000000       0.00000000 </v>
  </varray>
  <varray name="stress" >
   <v>     -54.77105434       0.00000000       0.00000000 </v>
   <v>       0.00000000     -54.77105434       0.00000000 </v>
   <v>       0.00000000       0.00000000     -54.77105434 </v>
  </varray>
  <energy>
   <i name="e_fr_energy">    -11.97572029 </i>
   <i name="e_wo_entrp">    -11.97542765 </i>
   <i name="e_0_energy">     -0.00087792 </i>
  </energy>
  <time name="totalsc">    6.12    6.53</time>
  <eigenvalues>
   <array>
    <dimension dim="1">band</dimension>
    <dimension dim="2">kpoint</dimension>
    <dimension dim="3">spin</dimension>
    <field>eigene</field>
    <field>occ</field>
    <set>
     <set comment="spin 1">
      <set comment="kpoint 1">
       <r>    1.1657    1.0000 </r>
       <r>    4.7244    1.0000 </r>
       <r>    4.7244    1.0000 </r>
       <r>    9.8023    0.0000 </r>
       <r>    9.8023    0.0000 </r>
       <r>   11.0401    0.0000 </r>
      </set>
      <set comment="kpoint 2">
       <r>    2.6856    1.0000 </r>
       <r>    4.0727    1.0000 </r>
       <r>    5.9951    0.0000 </r>
       <r>   10.1207    0.0000 </r>
       <r>   10.6937    0.0000 </r>
       <r>   15.0546    0.0000 </r>
      </set>
      <set comment="kpoint 3">
       <r>   -0.8625    1.0000 </r>
       <r>    6.3459    0.0000 </r>
       <r>    6.3459    0.0000 </r>
       <r>    7.0885    0.0000 </r>
       <r>    7.8290    0.0000 </r>
       <r>   10.4121    0.0000 </r>
      </set>
      <set comment="kpoint 4">
       <r>    1.8548    1.0000 </r>
       <r>    5.1193    1.0001 </r>
       <r>    5.2448    0.8186 </r>
       <r>    8.4463    0.0000 </r>
       <r>   10.9787    0.0000 </r>
       <r>   11.5011    0.0000 </r>
      </set>
      <set comment="kpoint 5">
       <r>    4.0493    1.0000 </r>
       <r>    4.0493    1.0000 </r>
       <r>    4.2263    1.0000 </r>
       <r>   10.1461    0.0000 </r>
       <r>   10.1461    0.0000 </r>
       <r>   15.1058    0.0000 </r>
      </set>
      <set comment="kpoint 6">
       <r>    2.7188    1.0000 </r>
       <r>    2.7806    1.0000 </r>
       <r>    9.2153    0.0000 </r>
       <r>    9.2153    0.0000 </r>
       <r>   11.2278    0.0000 </r>
       <r>   11.4971    0.0000 </r>
      </set>
     </set>
     <set comment="spin 2">
      <set comment="kpoint 1">
       <r>    1.1100    1.0000 </r>
       <r>    4.7201    1.0000 </r>
       <r>    4.7201    1.0000 </r>
       <r>    9.7553    0.0000 </r>
       <r>    9.7553    0.0000 </r>
       <r>   11.0569    0.0000 </r>
      </set>
      <set comment="kpoint 2">
       <r>    2.6520    1.0000 </r>
       <r>    4.0719    1.0000 </r>
       <r>    5.9466    0.0000 </r>
       <r>   10.0854    0.0000 </r>
       <r>   10.6488    0.0000 </r>
       <r>   15.0552    0.0000 </r>
      </set>
      <set comment="kpoint 3">
       <r>   -0.9238    1.0000 </r>
       <r>    6.3657    0.0000 </r>
       <r>    6.3657    0.0000 </r>
       <r>    7.1155    0.0000 </r>
       <r>    7.7542    0.0000 </r>
       <r>   10.3505    0.0000 </r>
      </set>
      <set comment="kpoint 4">
       <r>    1.8051    1.0000 </r>
       <r>    5.1309    1.0005 </r>
       <r>    5.1751    1.0142 </r>
       <r>    8.4215    0.0000 </r>
       <r>   10.9389    0.0000 </r>
       <r>   11.5243    0.0000 </r>
      </set>
      <set comment="kpoint 5">
       <r>    3.9788    1.0000 </r>
       <r>    3.9788    1.0000 </r>
       <r>    4.2226    1.0000 </r>
       <r>   10.1420    0.0000 </r>
       <r>   10.1420    0.0000 </r>
       <r>   15.0946    0.0000 </r>
      </set>
      <set comment="kpoint 6">
       <r>    2.6384    1.0000 </r>
       <r>    2.7016    1.0000 </r>
       <r>    9.2200    0.0000 </r>
       <r>    9.2200    0.0000 </r>
       <r>   11.2503    0.0000 </r>
       <r>   11.4641    0.0000 </r>
      </set>
     </set>
    </set>
   </array>
  </eigenvalues>
  <separator name="orbital magnetization" >
   <v name="MAGDIPOLOUT">      0.00000000      0.00000000      0.00000000</v>
  </separator>
  <dos>
   <i name="efermi">      5.26543283 </i>
   <total>
    <array>
     <dimension dim="1">gridpoints</dimension>
     <dimension dim="2">spin</dimension>
     <field>energy</field>
     <field>total</field>
     <field>integrated</field>
     <set>
      <set comment="spin 1">
       <r>    -1.7253     0.0000     0.0000 </r>
       <r>    -1.6665     0.0000     0.0000 </r>
       <r>    -1.6078     0.0000     0.0000 </r>
       <r>    -1.5490     0.0000     0.0000 </r>
       <r>    -1.4902     0.0000     0.0000 </r>
       <r>    -1.4314     0.0000     0.0000 </r>
       <r>    -1.3727     0.0000     0.0000 </r>
       <r>    -1.3139     0.0000     0.0000 </r>
       <r>    -1.2551     0.0000     0.0000 </r>
       <r>    -1.1963     0.0000     0.0000 </r>
       <r>    -1.1376     0.0000     0.0000 </r>
       <r>    -1.0788     0.0000     0.0000 </r>
       <r>    -1.0200    -0.0001     0.0000 </r>
       <r>    -0.9612    -0.0138    -0.0008 </r>
       <r>    -0.9025     0.0300     0.0010 </r>
       <r>    -0.8437     1.2516     0.0745 </r>
       <r>    -0.7849     0.3676     0.0961 </r>
       <r>    -0.7261    -0.0397     0.0938 </r>
       <r>    -0.6674    -0.0006     0.0938 </r>
       <r>    -0.6086     0.0000     0.0938 </r>
       <r>    -0.5498     0.0000     0.0938 </r>
       <r>    -0.4910     0.0000     0.0938 </r>
       <r>    -0.4323     0.0000     0.0938 </r>
       <r>    -0.3735     0.0000     0.0938 </r>
       <r>    -0.3147     0.0000     0.0938 </r>
       <r>    -0.2559     0.0000     0.0938 </r>
       <r>    -0.1972     0.0000     0.0938 </r>
       <r>    -0.1384     0.0000     0.0938 </r>
       <r>    -0.0796     0.0000     0.0938 </r>
       <r>    -0.0208     0.0000     0.0938 </r>
       <r>     0.0379     0.0000     0.0938 </r>
       <r>     0.0967     0.0000     0.0938 </r>
       <r>     0.1555     0.0000     0.0938 </r>
       <r>     0.2143     0.0000     0.0938 </r>
       <r>     0.2730     0.0000     0.0938 </r>
       <r>     0.3318     0.0000     0.0938 </r>
       <r>     0.3906     0.0000     0.0938 </r>
       <r>     0.4494     0.0000     0.0938 </r>
       <r>     0.5081     0.0000     0.0938 </r>
       <r>     0.5669     0.0000     0.0938 </r>
       <r>     0.6257     0.0000     0.0938 </r>
       <r>     0.6845     0.0000     0.0938 </r>
       <r>     0.7432     0.0000     0.0938 </r>
       <r>     0.8020     0.0000     0.0938 </r>
       <r>     0.8608     0.0000     0.0937 </r>
       <r>     0.9196     0.0000     0.0937 </r>
       <r>     0.9783     0.0000     0.0937 </r>
       <r>     1.0371    -0.0018     0.0936 </r>
       <r>     1.0959    -0.0660     0.0898 </r>
       <r>     1.1547     0.7434     0.1335 </r>
       <r>     1.2134     1.4930     0.2212 </r>
       <r>     1.2722    -0.0309     0.2194 </r>
       <r>     1.3310    -0.0109     0.2188 </r>
       <r>     1.3898     0.0000     0.2188 </r>
       <r>     1.4485     0.0000     0.2188 </r>
       <r>     1.5073     0.0000     0.2188 </r>
       <r>     1.5661     0.0000     0.2187 </r>
       <r>     1.6249     0.0000     0.2187 </r>
       <r>     1.6836     0.0000     0.2187 </r>
       <r>     1.7424    -0.0211     0.2175 </r>
       <r>     1.8012    -0.1774     0.2071 </r>
       <r>     1.8600     3.9411     0.4387 </r>
       <r>     1.9187     2.8612     0.6069 </r>
       <r>     1.9775    -0.2145     0.5943 </r>
       <r>     2.0363    -0.0090     0.5938 </r>
       <r>     2.0951     0.0000     0.5938 </r>
       <r>     2.1538     0.0000     0.5938 </r>
       <r>     2.2126     0.0000     0.5938 </r>
       <r>     2.2714     0.0000     0.5938 </r>
       <r>     2.3302     0.0000     0.5938 </r>
       <r>     2.3889     0.0000     0.5937 </r>
       <r>     2.4477     0.0000     0.5937 </r>
       <r>     2.5065     0.0000     0.5937 </r>
       <r>     2.5653    -0.0056     0.5934 </r>
       <r>     2.6240    -0.1251     0.5861 </r>
       <r>     2.6828     1.6137     0.6809 </r>
       <r>     2.7416     3.1858     0.8682 </r>
       <r>     2.8004     1.4472     0.9532 </r>
       <r>     2.8591     0.3038     0.9711 </r>
       <r>     2.9179    -0.0388     0.9688 </r>
       <r>     2.9767    -0.0006     0.9688 </r>
       <r>     3.0355     0.0000     0.9688 </r>
       <r>     3.0942     0.0000     0.9688 </r>
       <r>     3.1530     0.0000     0.9688 </r>
       <r>     3.2118     0.0000     0.9688 </r>
       <r>     3.2706     0.0000     0.9688 </r>
       <r>     3.3293     0.0000     0.9688 </r>
       <r>     3.3881     0.0000     0.9688 </r>
       <r>     3.4469     0.0000     0.9688 </r>
       <r>     3.5057     0.0000     0.9688 </r>
       <r>     3.5644     0.0000     0.9688 </r>
       <r>     3.6232     0.0000     0.9688 </r>
       <r>     3.6820     0.0000     0.9688 </r>
       <r>     3.7408     0.0000     0.9688 </r>
       <r>     3.7995     0.0000     0.9687 </r>
       <r>     3.8583     0.0000     0.9687 </r>
       <r>     3.9171    -0.0027     0.9686 </r>
       <r>     3.9759    -0.1519     0.9597 </r>
       <r>     4.0346     1.3397     1.0384 </r>
       <r>     4.0934     5.7177     1.3745 </r>
       <r>     4.1522     0.5834     1.4088 </r>
       <r>     4.2110     0.4966     1.4379 </r>
       <r>     4.2698     1.5992     1.5319 </r>
       <r>     4.3285     0.0030     1.5321 </r>
       <r>     4.3873    -0.0147     1.5313 </r>
       <r>     4.4461    -0.0001     1.5313 </r>
       <r>     4.5049     0.0000     1.5312 </r>
       <r>     4.5636    -0.0001     1.5312 </r>
       <r>     4.6224    -0.0297     1.5295 </r>
       <r>     4.6812     0.0095     1.5301 </r>
       <r>     4.7400     3.2086     1.7186 </r>
       <r>     4.7987     1.1853     1.7883 </r>
       <r>     4.8575    -0.1178     1.7814 </r>
       <r>     4.9163    -0.0023     1.7813 </r>
       <r>     4.9751    -0.0011     1.7812 </r>
       <r>     5.0338    -0.1146     1.7744 </r>
       <r>     5.0926     0.8286     1.8231 </r>
       <r>     5.1514     5.1941     2.1284 </r>
       <r>     5.2102     0.8336     2.1774 </r>
       <r>     5.2689     5.1304     2.4790 </r>
       <r>     5.3277     1.0196     2.5389 </r>
       <r>     5.3865    -0.1287     2.5313 </r>
       <r>     5.4453    -0.0015     2.5313 </r>
       <r>     5.5040     0.0000     2.5313 </r>
       <r>     5.5628     0.0000     2.5312 </r>
       <r>     5.6216     0.0000     2.5312 </r>
       <r>     5.6804     0.0000     2.5312 </r>
       <r>     5.7391     0.0000     2.5312 </r>
       <r>     5.7979     0.0000     2.5312 </r>
       <r>     5.8567    -0.0010     2.5312 </r>
       <r>     5.9155    -0.0737     2.5269 </r>
       <r>     5.9742     0.6453     2.5648 </r>
       <r>     6.0330     2.5515     2.7148 </r>
       <r>     6.0918     0.0994     2.7206 </r>
       <r>     6.1506    -0.0312     2.7188 </r>
       <r>     6.2093    -0.0014     2.7187 </r>
       <r>     6.2681    -0.0787     2.7140 </r>
       <r>     6.3269     0.7242     2.7566 </r>
       <r>     6.3857     2.5095     2.9041 </r>
       <r>     6.4444     0.0645     2.9079 </r>
       <r>     6.5032    -0.0280     2.9063 </r>
       <r>     6.5620    -0.0001     2.9063 </r>
       <r>     6.6208     0.0000     2.9063 </r>
       <r>     6.6795     0.0000     2.9062 </r>
       <r>     6.7383     0.0000     2.9062 </r>
       <r>     6.7971     0.0000     2.9062 </r>
       <r>     6.8559     0.0000     2.9062 </r>
       <r>     6.9146     0.0000     2.9062 </r>
       <r>     6.9734    -0.0043     2.9060 </r>
       <r>     7.0322    -0.0495     2.9031 </r>
       <r>     7.0910     0.9181     2.9571 </r>
       <r>     7.1497     0.7873     3.0033 </r>
       <r>     7.2085    -0.0537     3.0002 </r>
       <r>     7.2673    -0.0028     3.0000 </r>
       <r>     7.3261     0.0000     3.0000 </r>
       <r>     7.3848     0.0000     3.0000 </r>
       <r>     7.4436     0.0000     3.0000 </r>
       <r>     7.5024     0.0000     3.0000 </r>
       <r>     7.5612     0.0000     3.0000 </r>
       <r>     7.6199     0.0000     3.0000 </r>
       <r>     7.6787    -0.0001     3.0000 </r>
       <r>     7.7375    -0.0210     2.9988 </r>
       <r>     7.7963     0.1117     3.0053 </r>
       <r>     7.8550     1.3148     3.0826 </r>
       <r>     7.9138     0.2196     3.0955 </r>
       <r>     7.9726    -0.0296     3.0938 </r>
       <r>     8.0314    -0.0003     3.0938 </r>
       <r>     8.0901     0.0000     3.0938 </r>
       <r>     8.1489     0.0000     3.0937 </r>
       <r>     8.2077     0.0000     3.0937 </r>
       <r>     8.2665     0.0000     3.0937 </r>
       <r>     8.3252    -0.0104     3.0931 </r>
       <r>     8.3840    -0.2154     3.0805 </r>
       <r>     8.4428     3.0345     3.2588 </r>
       <r>     8.5016     3.7812     3.4811 </r>
       <r>     8.5603    -0.1910     3.4698 </r>
       <r>     8.6191    -0.0186     3.4688 </r>
       <r>     8.6779     0.0000     3.4688 </r>
       <r>     8.7367     0.0000     3.4688 </r>
       <r>     8.7954     0.0000     3.4688 </r>
       <r>     8.8542     0.0000     3.4688 </r>
       <r>     8.9130     0.0000     3.4688 </r>
       <r>     8.9718     0.0000     3.4687 </r>
       <r>     9.0305     0.0000     3.4687 </r>
       <r>     9.0893    -0.0034     3.4686 </r>
       <r>     9.1481    -0.1038     3.4625 </r>
       <r>     9.2069     1.2535     3.5361 </r>
       <r>     9.2656     2.1261     3.6611 </r>
       <r>     9.3244    -0.0688     3.6570 </r>
       <r>     9.3832    -0.0135     3.6563 </r>
       <r>     9.4420     0.0000     3.6563 </r>
       <r>     9.5007     0.0000     3.6563 </r>
       <r>     9.5595     0.0000     3.6562 </r>
       <r>     9.6183     0.0000     3.6562 </r>
       <r>     9.6771    -0.0048     3.6560 </r>
       <r>     9.7358    -0.1398     3.6477 </r>
       <r>     9.7946     1.7262     3.7492 </r>
       <r>     9.8534     2.7879     3.9131 </r>
       <r>     9.9122    -0.0989     3.9073 </r>
       <r>     9.9709    -0.0173     3.9062 </r>
       <r>    10.0297    -0.0537     3.9031 </r>
       <r>    10.0885     0.1027     3.9091 </r>
       <r>    10.1473     4.9947     4.2027 </r>
       <r>    10.2060     2.6087     4.3560 </r>
       <r>    10.2648    -0.1997     4.3443 </r>
       <r>    10.3236    -0.0337     4.3423 </r>
       <r>    10.3824     0.1563     4.3515 </r>
       <r>    10.4411     1.3220     4.4292 </r>
       <r>    10.4999     0.1674     4.4390 </r>
       <r>    10.5587    -0.0270     4.4374 </r>
       <r>    10.6175    -0.0834     4.4325 </r>
       <r>    10.6762     0.7971     4.4794 </r>
       <r>    10.7350     2.4662     4.6243 </r>
       <r>    10.7938     0.0368     4.6265 </r>
       <r>    10.8526    -0.0319     4.6246 </r>
       <r>    10.9113    -0.2090     4.6123 </r>
       <r>    10.9701     2.4244     4.7548 </r>
       <r>    11.0289     5.0058     5.0490 </r>
       <r>    11.0877     1.3605     5.1290 </r>
       <r>    11.1464    -0.0919     5.1236 </r>
       <r>    11.2052     0.2751     5.1398 </r>
       <r>    11.2640     1.2925     5.2157 </r>
       <r>    11.3228     0.0686     5.2198 </r>
       <r>    11.3815    -0.0333     5.2178 </r>
       <r>    11.4403    -0.2646     5.2023 </r>
       <r>    11.4991     4.1067     5.4436 </r>
       <r>    11.5579     4.4230     5.7036 </r>
       <r>    11.6166    -0.2545     5.6886 </r>
       <r>    11.6754    -0.0194     5.6875 </r>
       <r>    11.7342     0.0000     5.6875 </r>
       <r>    11.7930     0.0000     5.6875 </r>
       <r>    11.8517     0.0000     5.6875 </r>
       <r>    11.9105     0.0000     5.6875 </r>
       <r>    11.9693     0.0000     5.6875 </r>
       <r>    12.0281     0.0000     5.6875 </r>
       <r>    12.0868     0.0000     5.6875 </r>
       <r>    12.1456     0.0000     5.6875 </r>
       <r>    12.2044     0.0000     5.6875 </r>
       <r>    12.2632     0.0000     5.6875 </r>
       <r>    12.3219     0.0000     5.6875 </r>
       <r>    12.3807     0.0000     5.6875 </r>
       <r>    12.4395     0.0000     5.6875 </r>
       <r>    12.4983     0.0000     5.6875 </r>
       <r>    12.5571     0.0000     5.6875 </r>
       <r>    12.6158     0.0000     5.6875 </r>
       <r>    12.6746     0.0000     5.6875 </r>
       <r>    12.7334     0.0000     5.6875 </r>
       <r>    12.7922     0.0000     5.6875 </r>
       <r>    12.8509     0.0000     5.6875 </r>
       <r>    12.9097     0.0000     5.6875 </r>
       <r>    12.9685     0.0000     5.6875 </r>
       <r>    13.0273     0.0000     5.6875 </r>
       <r>    13.0860     0.0000     5.6875 </r>
       <r>    13.1448     0.0000     5.6875 </r>
       <r>    13.2036     0.0000     5.6875 </r>
       <r>    13.2624     0.0000     5.6875 </r>
       <r>    13.3211     0.0000     5.6875 </r>
       <r>    13.3799     0.0000     5.6875 </r>
       <r>    13.4387     0.0000     5.6875 </r>
       <r>    13.4975     0.0000     5.6875 </r>
       <r>    13.5562     0.0000     5.6875 </r>
       <r>    13.6150     0.0000     5.6875 </r>
       <r>    13.6738     0.0000     5.6875 </r>
       <r>    13.7326     0.0000     5.6875 </r>
       <r>    13.7913     0.0000     5.6875 </r>
       <r>    13.8501     0.0000     5.6875 </r>
       <r>    13.9089     0.0000     5.6875 </r>
       <r>    13.9677     0.0000     5.6875 </r>
       <r>    14.0264     0.0000     5.6875 </r>
       <r>    14.0852     0.0000     5.6875 </r>
       <r>    14.1440     0.0000     5.6875 </r>
       <r>    14.2028     0.0000     5.6875 </r>
       <r>    14.2615     0.0000     5.6875 </r>
       <r>    14.3203     0.0000     5.6875 </r>
       <r>    14.3791     0.0000     5.6875 </r>
       <r>    14.4379     0.0000     5.6875 </r>
       <r>    14.4966     0.0000     5.6875 </r>
       <r>    14.5554     0.0000     5.6875 </r>
       <r>    14.6142     0.0000     5.6875 </r>
       <r>    14.6730     0.0000     5.6875 </r>
       <r>    14.7317     0.0000     5.6875 </r>
       <r>    14.7905     0.0000     5.6875 </r>
       <r>    14.8493     0.0000     5.6875 </r>
       <r>    14.9081    -0.0004     5.6875 </r>
       <r>    14.9668    -0.0519     5.6844 </r>
       <r>    15.0256     0.2877     5.7013 </r>
       <r>    15.0844     3.0593     5.8811 </r>
       <r>    15.1432     2.0199     5.9999 </r>
       <r>    15.2019     0.0243     6.0013 </r>
       <r>    15.2607    -0.0219     6.0000 </r>
       <r>    15.3195    -0.0001     6.0000 </r>
       <r>    15.3783     0.0000     6.0000 </r>
       <r>    15.4370     0.0000     6.0000 </r>
       <r>    15.4958     0.0000     6.0000 </r>
       <r>    15.5546     0.0000     6.0000 </r>
       <r>    15.6134     0.0000     6.0000 </r>
       <r>    15.6721     0.0000     6.0000 </r>
       <r>    15.7309     0.0000     6.0000 </r>
       <r>    15.7897     0.0000     6.0000 </r>
       <r>    15.8485     0.0000     6.0000 </r>
       <r>    15.9072     0.0000     6.0000 </r>
      </set>
      <set comment="spin 2">
       <r>    -1.7253     0.0000     0.0000 </r>
       <r>    -1.6665     0.0000     0.0000 </r>
       <r>    -1.6078     0.0000     0.0000 </r>
       <r>    -1.5490     0.0000     0.0000 </r>
       <r>    -1.4902     0.0000     0.0000 </r>
       <r>    -1.4314     0.0000     0.0000 </r>
       <r>    -1.3727     0.0000     0.0000 </r>
       <r>    -1.3139     0.0000     0.0000 </r>
       <r>    -1.2551     0.0000     0.0000 </r>
       <r>    -1.1963     0.0000     0.0000 </r>
       <r>    -1.1376     0.0000     0.0000 </r>
       <r>    -1.0788    -0.0001     0.0000 </r>
       <r>    -1.0200    -0.0161    -0.0010 </r>
       <r>    -0.9612     0.0552     0.0023 </r>
       <r>    -0.9025     1.2812     0.0776 </r>
       <r>    -0.8437     0.3114     0.0959 </r>
       <r>    -0.7849    -0.0361     0.0938 </r>
       <r>    -0.7261    -0.0005     0.0938 </r>
       <r>    -0.6674     0.0000     0.0938 </r>
       <r>    -0.6086     0.0000     0.0938 </r>
       <r>    -0.5498     0.0000     0.0938 </r>
       <r>    -0.4910     0.0000     0.0938 </r>
       <r>    -0.4323     0.0000     0.0938 </r>
       <r>    -0.3735     0.0000     0.0938 </r>
       <r>    -0.3147     0.0000     0.0938 </r>
       <r>    -0.2559     0.0000     0.0938 </r>
       <r>    -0.1972     0.0000     0.0938 </r>
       <r>    -0.1384     0.0000     0.0938 </r>
       <r>    -0.0796     0.0000     0.0938 </r>
       <r>    -0.0208     0.0000     0.0938 </r>
       <r>     0.0379     0.0000     0.0938 </r>
       <r>     0.0967     0.0000     0.0938 </r>
       <r>     0.1555     0.0000     0.0938 </r>
       <r>     0.2143     0.0000     0.0938 </r>
       <r>     0.2730     0.0000     0.0938 </r>
       <r>     0.3318     0.0000     0.0938 </r>
       <r>     0.3906     0.0000     0.0938 </r>
       <r>     0.4494     0.0000     0.0938 </r>
       <r>     0.5081     0.0000     0.0938 </r>
       <r>     0.5669     0.0000     0.0938 </r>
       <r>     0.6257     0.0000     0.0938 </r>
       <r>     0.6845     0.0000     0.0938 </r>
       <r>     0.7432     0.0000     0.0938 </r>
       <r>     0.8020     0.0000     0.0937 </r>
       <r>     0.8608     0.0000     0.0937 </r>
       <r>     0.9196     0.0000     0.0937 </r>
       <r>     0.9783    -0.0013     0.0937 </r>
       <r>     1.0371    -0.0614     0.0901 </r>
       <r>     1.0959     0.6400     0.1277 </r>
       <r>     1.1547     1.5712     0.2200 </r>
       <r>     1.2134    -0.0082     0.2195 </r>
       <r>     1.2722    -0.0135     0.2188 </r>
       <r>     1.3310     0.0000     0.2188 </r>
       <r>     1.3898     0.0000     0.2188 </r>
       <r>     1.4485     0.0000     0.2188 </r>
       <r>     1.5073     0.0000     0.2187 </r>
       <r>     1.5661     0.0000     0.2187 </r>
       <r>     1.6249     0.0000     0.2187 </r>
       <r>     1.6836    -0.0101     0.2182 </r>
       <r>     1.7424    -0.2154     0.2055 </r>
       <r>     1.8012     2.9991     0.3818 </r>
       <r>     1.8600     3.8143     0.6060 </r>
       <r>     1.9187    -0.1885     0.5949 </r>
       <r>     1.9775    -0.0191     0.5938 </r>
       <r>     2.0363     0.0000     0.5938 </r>
       <r>     2.0951     0.0000     0.5938 </r>
       <r>     2.1538     0.0000     0.5938 </r>
       <r>     2.2126     0.0000     0.5938 </r>
       <r>     2.2714     0.0000     0.5938 </r>
       <r>     2.3302     0.0000     0.5938 </r>
       <r>     2.3889     0.0000     0.5937 </r>
       <r>     2.4477     0.0000     0.5937 </r>
       <r>     2.5065    -0.0015     0.5937 </r>
       <r>     2.5653    -0.1004     0.5878 </r>
       <r>     2.6240     0.8058     0.6351 </r>
       <r>     2.6828     4.1933     0.8816 </r>
       <r>     2.7416     1.5247     0.9712 </r>
       <r>     2.8004    -0.0276     0.9696 </r>
       <r>     2.8591    -0.0141     0.9688 </r>
       <r>     2.9179    -0.0001     0.9688 </r>
       <r>     2.9767     0.0000     0.9688 </r>
       <r>     3.0355     0.0000     0.9688 </r>
       <r>     3.0942     0.0000     0.9688 </r>
       <r>     3.1530     0.0000     0.9688 </r>
       <r>     3.2118     0.0000     0.9688 </r>
       <r>     3.2706     0.0000     0.9688 </r>
       <r>     3.3293     0.0000     0.9688 </r>
       <r>     3.3881     0.0000     0.9688 </r>
       <r>     3.4469     0.0000     0.9688 </r>
       <r>     3.5057     0.0000     0.9688 </r>
       <r>     3.5644     0.0000     0.9688 </r>
       <r>     3.6232     0.0000     0.9688 </r>
       <r>     3.6820     0.0000     0.9687 </r>
       <r>     3.7408     0.0000     0.9687 </r>
       <r>     3.7995     0.0000     0.9687 </r>
       <r>     3.8583    -0.0073     0.9683 </r>
       <r>     3.9171    -0.1436     0.9599 </r>
       <r>     3.9759     2.0378     1.0797 </r>
       <r>     4.0346     2.5898     1.2319 </r>
       <r>     4.0934     2.4334     1.3749 </r>
       <r>     4.1522     0.5393     1.4066 </r>
       <r>     4.2110     0.6530     1.4450 </r>
       <r>     4.2698     1.5067     1.5335 </r>
       <r>     4.3285    -0.0274     1.5319 </r>
       <r>     4.3873    -0.0113     1.5313 </r>
       <r>     4.4461     0.0000     1.5313 </r>
       <r>     4.5049     0.0000     1.5312 </r>
       <r>     4.5636    -0.0002     1.5312 </r>
       <r>     4.6224    -0.0392     1.5289 </r>
       <r>     4.6812     0.1059     1.5352 </r>
       <r>     4.7400     3.3720     1.7334 </r>
       <r>     4.7987     0.9185     1.7873 </r>
       <r>     4.8575    -0.1020     1.7813 </r>
       <r>     4.9163    -0.0015     1.7813 </r>
       <r>     4.9751    -0.0003     1.7812 </r>
       <r>     5.0338    -0.0627     1.7775 </r>
       <r>     5.0926     0.0536     1.7807 </r>
       <r>     5.1514     6.1437     2.1418 </r>
       <r>     5.2102     6.5255     2.5253 </r>
       <r>     5.2689     0.1771     2.5357 </r>
       <r>     5.3277    -0.0760     2.5313 </r>
       <r>     5.3865    -0.0004     2.5313 </r>
       <r>     5.4453     0.0000     2.5313 </r>
       <r>     5.5040     0.0000     2.5312 </r>
       <r>     5.5628     0.0000     2.5312 </r>
       <r>     5.6216     0.0000     2.5312 </r>
       <r>     5.6804     0.0000     2.5312 </r>
       <r>     5.7391     0.0000     2.5312 </r>
       <r>     5.7979    -0.0003     2.5312 </r>
       <r>     5.8567    -0.0459     2.5285 </r>
       <r>     5.9155     0.2699     2.5444 </r>
       <r>     5.9742     2.6403     2.6996 </r>
       <r>     6.0330     0.3815     2.7220 </r>
       <r>     6.0918    -0.0548     2.7188 </r>
       <r>     6.1506    -0.0005     2.7188 </r>
       <r>     6.2093    -0.0001     2.7187 </r>
       <r>     6.2681    -0.0296     2.7170 </r>
       <r>     6.3269     0.0821     2.7218 </r>
       <r>     6.3857     2.5322     2.8707 </r>
       <r>     6.4444     0.6828     2.9108 </r>
       <r>     6.5032    -0.0761     2.9063 </r>
       <r>     6.5620    -0.0011     2.9063 </r>
       <r>     6.6208     0.0000     2.9063 </r>
       <r>     6.6795     0.0000     2.9062 </r>
       <r>     6.7383     0.0000     2.9062 </r>
       <r>     6.7971     0.0000     2.9062 </r>
       <r>     6.8559     0.0000     2.9062 </r>
       <r>     6.9146     0.0000     2.9062 </r>
       <r>     6.9734    -0.0004     2.9062 </r>
       <r>     7.0322    -0.0316     2.9044 </r>
       <r>     7.0910     0.2478     2.9189 </r>
       <r>     7.1497     1.3069     2.9957 </r>
       <r>     7.2085     0.0919     3.0011 </r>
       <r>     7.2673    -0.0194     3.0000 </r>
       <r>     7.3261    -0.0001     3.0000 </r>
       <r>     7.3848     0.0000     3.0000 </r>
       <r>     7.4436     0.0000     3.0000 </r>
       <r>     7.5024     0.0000     3.0000 </r>
       <r>     7.5612     0.0000     3.0000 </r>
       <r>     7.6199    -0.0008     3.0000 </r>
       <r>     7.6787    -0.0427     2.9974 </r>
       <r>     7.7375     0.4170     3.0220 </r>
       <r>     7.7963     1.2214     3.0937 </r>
       <r>     7.8550     0.0121     3.0945 </r>
       <r>     7.9138    -0.0120     3.0938 </r>
       <r>     7.9726     0.0000     3.0938 </r>
       <r>     8.0314     0.0000     3.0938 </r>
       <r>     8.0901     0.0000     3.0938 </r>
       <r>     8.1489     0.0000     3.0937 </r>
       <r>     8.2077     0.0000     3.0937 </r>
       <r>     8.2665    -0.0003     3.0937 </r>
       <r>     8.3252    -0.0640     3.0900 </r>
       <r>     8.3840     0.2154     3.1026 </r>
       <r>     8.4428     5.1196     3.4035 </r>
       <r>     8.5016     1.2565     3.4774 </r>
       <r>     8.5603    -0.1451     3.4689 </r>
       <r>     8.6191    -0.0020     3.4688 </r>
       <r>     8.6779     0.0000     3.4688 </r>
       <r>     8.7367     0.0000     3.4688 </r>
       <r>     8.7954     0.0000     3.4688 </r>
       <r>     8.8542     0.0000     3.4688 </r>
       <r>     8.9130     0.0000     3.4688 </r>
       <r>     8.9718     0.0000     3.4687 </r>
       <r>     9.0305     0.0000     3.4687 </r>
       <r>     9.0893    -0.0022     3.4686 </r>
       <r>     9.1481    -0.0944     3.4631 </r>
       <r>     9.2069     1.0077     3.5223 </r>
       <r>     9.2656     2.3220     3.6588 </r>
       <r>     9.3244    -0.0240     3.6574 </r>
       <r>     9.3832    -0.0189     3.6563 </r>
       <r>     9.4420    -0.0001     3.6563 </r>
       <r>     9.5007     0.0000     3.6562 </r>
       <r>     9.5595     0.0000     3.6562 </r>
       <r>     9.6183    -0.0016     3.6562 </r>
       <r>     9.6771    -0.1036     3.6501 </r>
       <r>     9.7358     0.9432     3.7055 </r>
       <r>     9.7946     3.3585     3.9029 </r>
       <r>     9.8534     0.0953     3.9085 </r>
       <r>     9.9122    -0.0382     3.9063 </r>
       <r>     9.9709    -0.0092     3.9057 </r>
       <r>    10.0297    -0.1114     3.8992 </r>
       <r>    10.0885     1.7492     4.0020 </r>
       <r>    10.1473     4.1791     4.2476 </r>
       <r>    10.2060     1.7897     4.3528 </r>
       <r>    10.2648    -0.1767     4.3424 </r>
       <r>    10.3236     0.1977     4.3540 </r>
       <r>    10.3824     1.3181     4.4315 </r>
       <r>    10.4411     0.1241     4.4388 </r>
       <r>    10.4999    -0.0224     4.4375 </r>
       <r>    10.5587    -0.0456     4.4348 </r>
       <r>    10.6175     0.2643     4.4503 </r>
       <r>    10.6762     2.6394     4.6055 </r>
       <r>    10.7350     0.3880     4.6283 </r>
       <r>    10.7938    -0.0563     4.6250 </r>
       <r>    10.8526    -0.1105     4.6185 </r>
       <r>    10.9113     0.7687     4.6637 </r>
       <r>    10.9701     5.2439     4.9719 </r>
       <r>    11.0289     0.7810     5.0178 </r>
       <r>    11.0877     1.6697     5.1159 </r>
       <r>    11.1464     0.1762     5.1263 </r>
       <r>    11.2052    -0.0398     5.1239 </r>
       <r>    11.2640     1.1710     5.1928 </r>
       <r>    11.3228     0.4895     5.2215 </r>
       <r>    11.3815    -0.0805     5.2168 </r>
       <r>    11.4403     0.1382     5.2249 </r>
       <r>    11.4991     2.2384     5.3565 </r>
       <r>    11.5579     5.3270     5.6696 </r>
       <r>    11.6166     0.3862     5.6923 </r>
       <r>    11.6754    -0.0807     5.6875 </r>
       <r>    11.7342    -0.0005     5.6875 </r>
       <r>    11.7930     0.0000     5.6875 </r>
       <r>    11.8517     0.0000     5.6875 </r>
       <r>    11.9105     0.0000     5.6875 </r>
       <r>    11.9693     0.0000     5.6875 </r>
       <r>    12.0281     0.0000     5.6875 </r>
       <r>    12.0868     0.0000     5.6875 </r>
       <r>    12.1456     0.0000     5.6875 </r>
       <r>    12.2044     0.0000     5.6875 </r>
       <r>    12.2632     0.0000     5.6875 </r>
       <r>    12.3219     0.0000     5.6875 </r>
       <r>    12.3807     0.0000     5.6875 </r>
       <r>    12.4395     0.0000     5.6875 </r>
       <r>    12.4983     0.0000     5.6875 </r>
       <r>    12.5571     0.0000     5.6875 </r>
       <r>    12.6158     0.0000     5.6875 </r>
       <r>    12.6746     0.0000     5.6875 </r>
       <r>    12.7334     0.0000     5.6875 </r>
       <r>    12.7922     0.0000     5.6875 </r>
       <r>    12.8509     0.0000     5.6875 </r>
       <r>    12.9097     0.0000     5.6875 </r>
       <r>    12.9685     0.0000     5.6875 </r>
       <r>    13.0273     0.0000     5.6875 </r>
       <r>    13.0860     0.0000     5.6875 </r>
       <r>    13.1448     0.0000     5.6875 </r>
       <r>    13.2036     0.0000     5.6875 </r>
       <r>    13.2624     0.0000     5.6875 </r>
       <r>    13.3211     0.0000     5.6875 </r>
       <r>    13.3799     0.0000     5.6875 </r>
       <r>    13.4387     0.0000     5.6875 </r>
       <r>    13.4975     0.0000     5.6875 </r>
       <r>    13.5562     0.0000     5.6875 </r>
       <r>    13.6150     0.0000     5.6875 </r>
       <r>    13.6738     0.0000     5.6875 </r>
       <r>    13.7326     0.0000     5.6875 </r>
       <r>    13.7913     0.0000     5.6875 </r>
       <r>    13.8501     0.0000     5.6875 </r>
       <r>    13.9089     0.0000     5.6875 </r>
       <r>    13.9677     0.0000     5.6875 </r>
       <r>    14.0264     0.0000     5.6875 </r>
       <r>    14.0852     0.0000     5.6875 </r>
       <r>    14.1440     0.0000     5.6875 </r>
       <r>    14.2028     0.0000     5.6875 </r>
       <r>    14.2615     0.0000     5.6875 </r>
       <r>    14.3203     0.0000     5.6875 </r>
       <r>    14.3791     0.0000     5.6875 </r>
       <r>    14.4379     0.0000     5.6875 </r>
       <r>    14.4966     0.0000     5.6875 </r>
       <r>    14.5554     0.0000     5.6875 </r>
       <r>    14.6142     0.0000     5.6875 </r>
       <r>    14.6730     0.0000     5.6875 </r>
       <r>    14.7317     0.0000     5.6875 </r>
       <r>    14.7905     0.0000     5.6875 </r>
       <r>    14.8493     0.0000     5.6875 </r>
       <r>    14.9081    -0.0004     5.6875 </r>
       <r>    14.9668    -0.0517     5.6844 </r>
       <r>    15.0256     0.2500     5.6991 </r>
       <r>    15.0844     3.4188     5.9001 </r>
       <r>    15.1432     1.7981     6.0058 </r>
       <r>    15.2019    -0.0873     6.0006 </r>
       <r>    15.2607    -0.0107     6.0000 </r>
       <r>    15.3195     0.0000     6.0000 </r>
       <r>    15.3783     0.0000     6.0000 </r>
       <r>    15.4370     0.0000     6.0000 </r>
       <r>    15.4958     0.0000     6.0000 </r>
       <r>    15.5546     0.0000     6.0000 </r>
       <r>    15.6134     0.0000     6.0000 </r>
       <r>    15.6721     0.0000     6.0000 </r>
       <r>    15.7309     0.0000     6.0000 </r>
       <r>    15.7897     0.0000     6.0000 </r>
       <r>    15.8485     0.0000     6.0000 </r>
       <r>    15.9072     0.0000     6.0000 </r>
      </set>
     </set>
    </array>
   </total>
   <partial>
    <array>
     <dimension dim="1">gridpoints</dimension>
     <dimension dim="2">spin</dimension>
     <dimension dim="3">ion</dimension>
     <field>energy</field>
     <field>  s</field>
     <field> py</field>
     <field> pz</field>
     <field> px</field>
     <field>dxy</field>
     <field>dyz</field>
     <field>dz2</field>
     <field>dxz</field>
     <field>dx2</field>
     <set>
      <set comment="ion 1">
       <set comment="spin 1">
        <r>    -1.7253     0.0000     0.0000     0.0000     0.0000     0.0000     0.0000     0.0000     0.0000     0.0000 </r>
        <r>    -1.6665     0.0000     0.0000     0.0000     0.0000     0.0000     0.0000     0.0000     0.0000     0.0000 </r>
        <r>    -1.6078     0.0000     0.0000     0.0000     0.0000     0.0000     0.0000     0.0000     0.0000     0.0000 </r>
        <r>    -1.5490     0.0000     0.0000     0.0000     0.0000     0.0000     0.0000     0.0000     0.0000     0.0000 </r>
        <r>    -1.4902     0.0000     0.0000     0.0000     0.0000     0.0000     0.0000     0.0000     0.0000     0.0000 </r>
        <r>    -1.4314     0.0000     0.0000     0.0000     0.0000     0.0000     0.0000     0.0000     0.0000     0.0000 </r>
        <r>    -1.3727     0.0000     0.0000     0.0000     0.0000     0.0000     0.0000     0.0000     0.0000     0.0000 </r>
        <r>    -1.3139     0.0000     0.0000     0.0000     0.0000     0.0000     0.0000     0.0000     0.0000     0.0000 </r>
        <r>    -1.2551     0.0000     0.0000     0.0000     0.0000     0.0000     0.0000     0.0000     0.0000     0.0000 </r>
        <r>    -1.1963     0.0000     0.0000     0.0000     0.0000     0.0000     0.0000     0.0000     0.0000     0.0000 </r>
        <r>    -1.1376     0.0000     0.0000     0.0000     0.0000     0.0000     0.0000     0.0000     0.0000     0.0000 </r>
        <r>    -1.0788     0.0000     0.0000     0.0000     0.0000     0.0000     0.0000     0.0000     0.0000     0.0000 </r>
        <r>    -1.0200     0.0000     0.0000     0.0000     0.0000     0.0000     0.0000     0.0000     0.0000     0.0000 </r>
        <r>    -0.9612    -0.0106    -0.0002    -0.0007    -0.0005     0.0000     0.0000     0.0000    -0.0001     0.0000 </r>
        <r>    -0.9025     0.0230     0.0005     0.0015     0.0010     0.0000     0.0001     0.0000     0.0001     0.0000 </r>
        <r>    -0.8437     0.9605     0.0206     0.0618     0.0412     0.0019     0.0029     0.0007     0.0058     0.0002 </r>
        <r>    -0.7849     0.2821     0.0061     0.0182     0.0121     0.0006     0.0008     0.0002     0.0017     0.0001 </r>
        <r>    -0.7261    -0.0305    -0.0007    -0.0020    -0.0013    -0.0001    -0.0001     0.0000    -0.0002     0.0000 </r>
        <r>    -0.6674    -0.0005     0.0000     0.0000     0.0000     0.0000     0.0000     0.0000     0.0000     0.0000 </r>
        <r>    -0.6086     0.0000     0.0000     0.0000     0.0000     0.0000     0.0000     0.0000     0.0000     0.0000 </r>
        <r>    -0.5498     0.0000     0.0000     0.0000     0.0000     0.0000     0.0000     0.0000     0.0000     0.0000 </r>
        <r>    -0.4910     0.0000     0.0000     0.0000     0.0000     0.0000     0.0000     0.0000     0.0000     0.0000 </r>
        <r>    -0.4323     0.0000     0.0000     0.0000     0.0000     0.0000     0.0000     0.0000     0.0000     0.0000 </r>
        <r>    -0.3735     0.0000     0.0000     0.0000     0.0000     0.0000     0.0000     0.0000     0.0000     0.0000 </r>
        <r>    -0.3147     0.0000     0.0000     0.0000     0.0000     0.0000     0.0000     0.0000     0.0000     0.0000 </r>
        <r>    -0.2559     0.0000     0.0000     0.0000     0.0000     0.0000     0.0000     0.0000     0.0000     0.0000 </r>
        <r>    -0.1972     0.0000     0.0000     0.0000     0.0000     0.0000     0.0000     0.0000     0.0000     0.0000 </r>
        <r>    -0.1384     0.0000     0.0000     0.0000     0.0000     0.0000     0.0000     0.0000     0.0000     0.0000 </r>
        <r>    -0.0796     0.0000     0.0000     0.0000     0.0000     0.0000     0.0000     0.0000     0.0000     0.0000 </r>
        <r>    -0.0208     0.0000     0.0000     0.0000     0.0000     0.0000     0.0000     0.0000     0.0000     0.0000 </r>
        <r>     0.0379     0.0000     0.0000     0.0000     0.0000     0.0000     0.0000     0.0000     0.0000     0.0000 </r>
        <r>     0.0967     0.0000     0.0000     0.0000     0.0000     0.0000     0.0000     0.0000     0.0000     0.0000 </r>
        <r>     0.1555     0.0000     0.0000     0.0000     0.0000     0.0000     0.0000     0.0000     0.0000     0.0000 </r>
        <r>     0.2143     0.0000     0.0000     0.0000     0.0000     0.0000     0.0000     0.0000     0.0000     0.0000 </r>
        <r>     0.2730     0.0000     0.0000     0.0000     0.0000     0.0000     0.0000     0.0000     0.0000     0.0000 </r>
        <r>     0.3318     0.0000     0.0000     0.0000     0.0000     0.0000     0.0000     0.0000     0.0000     0.0000 </r>
        <r>     0.3906     0.0000     0.0000     0.0000     0.0000     0.0000     0.0000     0.0000     0.0000     0.0000 </r>
        <r>     0.4494     0.0000     0.0000     0.0000     0.0000     0.0000     0.0000     0.0000     0.0000     0.0000 </r>
        <r>     0.5081     0.0000     0.0000     0.0000     0.0000     0.0000     0.0000     0.0000     0.0000     0.0000 </r>
        <r>     0.5669     0.0000     0.0000     0.0000     0.0000     0.0000     0.0000     0.0000     0.0000     0.0000 </r>
        <r>     0.6257     0.0000     0.0000     0.0000     0.0000     0.0000     0.0000     0.0000     0.0000     0.0000 </r>
        <r>     0.6845     0.0000     0.0000     0.0000     0.0000     0.0000     0.0000     0.0000     0.0000     0.0000 </r>
        <r>     0.7432     0.0000     0.0000     0.0000     0.0000     0.0000     0.0000     0.0000     0.0000     0.0000 </r>
        <r>     0.8020     0.0000     0.0000     0.0000     0.0000     0.0000     0.0000     0.0000     0.0000     0.0000 </r>
        <r>     0.8608     0.0000     0.0000     0.0000     0.0000     0.0000     0.0000     0.0000     0.0000     0.0000 </r>
        <r>     0.9196     0.0000     0.0000     0.0000     0.0000     0.0000     0.0000     0.0000     0.0000     0.0000 </r>
        <r>     0.9783     0.0000     0.0000     0.0000     0.0000     0.0000     0.0000     0.0000     0.0000     0.0000 </r>
        <r>     1.0371    -0.0011    -0.0001    -0.0002     0.0000     0.0000    -0.0001     0.0000     0.0000     0.0000 </r>
        <r>     1.0959    -0.0401    -0.0031    -0.0092    -0.0015    -0.0005    -0.0029    -0.0016    -0.0014    -0.0001 </r>
        <r>     1.1547     0.4511     0.0345     0.1034     0.0172     0.0054     0.0325     0.0183     0.0162     0.0007 </r>
        <r>     1.2134     0.9059     0.0692     0.2077     0.0346     0.0109     0.0652     0.0367     0.0326     0.0014 </r>
        <r>     1.2722    -0.0188    -0.0014    -0.0043    -0.0007    -0.0002    -0.0014    -0.0008    -0.0007     0.0000 </r>
        <r>     1.3310    -0.0066    -0.0005    -0.0015    -0.0003    -0.0001    -0.0005    -0.0003    -0.0002     0.0000 </r>
        <r>     1.3898     0.0000     0.0000     0.0000     0.0000     0.0000     0.0000     0.0000     0.0000     0.0000 </r>
        <r>     1.4485     0.0000     0.0000     0.0000     0.0000     0.0000     0.0000     0.0000     0.0000     0.0000 </r>
        <r>     1.5073     0.0000     0.0000     0.0000     0.0000     0.0000     0.0000     0.0000     0.0000     0.0000 </r>
        <r>     1.5661     0.0000     0.0000     0.0000     0.0000     0.0000     0.0000     0.0000     0.0000     0.0000 </r>
        <r>     1.6249     0.0000     0.0000     0.0000     0.0000     0.0000     0.0000     0.0000     0.0000     0.0000 </r>
        <r>     1.6836     0.0000     0.0000     0.0000     0.0000     0.0000     0.0000     0.0000     0.0000     0.0000 </r>
        <r>     1.7424    -0.0075    -0.0005    -0.0010    -0.0010    -0.0075    -0.0001    -0.0012    -0.0002    -0.0009 </r>
        <r>     1.8012    -0.0635    -0.0042    -0.0080    -0.0084    -0.0629    -0.0008    -0.0104    -0.0017    -0.0079 </r>
        <r>     1.8600     1.4105     0.0938     0.1777     0.1876     1.3969     0.0184     0.2304     0.0368     0.1746 </r>
        <r>     1.9187     1.0240     0.0681     0.1290     0.1362     1.0142     0.0134     0.1673     0.0267     0.1268 </r>
        <r>     1.9775    -0.0768    -0.0051    -0.0097    -0.0102    -0.0760    -0.0010    -0.0125    -0.0020    -0.0095 </r>
        <r>     2.0363    -0.0032    -0.0002    -0.0004    -0.0004    -0.0032     0.0000    -0.0005    -0.0001    -0.0004 </r>
        <r>     2.0951     0.0000     0.0000     0.0000     0.0000     0.0000     0.0000     0.0000     0.0000     0.0000 </r>
        <r>     2.1538     0.0000     0.0000     0.0000     0.0000     0.0000     0.0000     0.0000     0.0000     0.0000 </r>
        <r>     2.2126     0.0000     0.0000     0.0000     0.0000     0.0000     0.0000     0.0000     0.0000     0.0000 </r>
        <r>     2.2714     0.0000     0.0000     0.0000     0.0000     0.0000     0.0000     0.0000     0.0000     0.0000 </r>
        <r>     2.3302     0.0000     0.0000     0.0000     0.0000     0.0000     0.0000     0.0000     0.0000     0.0000 </r>
        <r>     2.3889     0.0000     0.0000     0.0000     0.0000     0.0000     0.0000     0.0000     0.0000     0.0000 </r>
        <r>     2.4477     0.0000     0.0000     0.0000     0.0000     0.0000     0.0000     0.0000     0.0000     0.0000 </r>
        <r>     2.5065     0.0000     0.0000     0.0000     0.0000     0.0000     0.0000     0.0000     0.0000     0.0000 </r>
        <r>     2.5653    -0.0011    -0.0001    -0.0003    -0.0002    -0.0006    -0.0003    -0.0001    -0.0018    -0.0010 </r>
        <r>     2.6240    -0.0218    -0.0019    -0.0057    -0.0038    -0.0193    -0.0069    -0.0039    -0.0369    -0.0206 </r>
        <r>     2.6828     0.3158     0.0273     0.0819     0.0546     0.1953     0.0832     0.0254     0.5010     0.2882 </r>
        <r>     2.7416     0.3776     0.0338     0.1013     0.0675     0.7831     0.2000     0.2367     0.7981     0.4117 </r>
        <r>     2.8004     0.0219     0.0272     0.0816     0.0544     0.2726     0.2504     0.1052     0.4798     0.0175 </r>
        <r>     2.8591     0.0097     0.0078     0.0233     0.0156     0.0266     0.0613     0.0103     0.1207     0.0018 </r>
        <r>     2.9179    -0.0013    -0.0009    -0.0026    -0.0018    -0.0049    -0.0072    -0.0019    -0.0143    -0.0006 </r>
        <r>     2.9767     0.0000     0.0000     0.0000     0.0000    -0.0001    -0.0001     0.0000    -0.0002     0.0000 </r>
        <r>     3.0355     0.0000     0.0000     0.0000     0.0000     0.0000     0.0000     0.0000     0.0000     0.0000 </r>
        <r>     3.0942     0.0000     0.0000     0.0000     0.0000     0.0000     0.0000     0.0000     0.0000     0.0000 </r>
        <r>     3.1530     0.0000     0.0000     0.0000     0.0000     0.0000     0.0000     0.0000     0.0000     0.0000 </r>
        <r>     3.2118     0.0000     0.0000     0.0000     0.0000     0.0000     0.0000     0.0000     0.0000     0.0000 </r>
        <r>     3.2706     0.0000     0.0000     0.0000     0.0000     0.0000     0.0000     0.0000     0.0000     0.0000 </r>
        <r>     3.3293     0.0000     0.0000     0.0000     0.0000     0.0000     0.0000     0.0000     0.0000     0.0000 </r>
        <r>     3.3881     0.0000     0.0000     0.0000     0.0000     0.0000     0.0000     0.0000     0.0000     0.0000 </r>
        <r>     3.4469     0.0000     0.0000     0.0000     0.0000     0.0000     0.0000     0.0000     0.0000     0.0000 </r>
        <r>     3.5057     0.0000     0.0000     0.0000     0.0000     0.0000     0.0000     0.0000     0.0000     0.0000 </r>
        <r>     3.5644     0.0000     0.0000     0.0000     0.0000     0.0000     0.0000     0.0000     0.0000     0.0000 </r>
        <r>     3.6232     0.0000     0.0000     0.0000     0.0000     0.0000     0.0000     0.0000     0.0000     0.0000 </r>
        <r>     3.6820     0.0000     0.0000     0.0000     0.0000     0.0000     0.0000     0.0000     0.0000     0.0000 </r>
        <r>     3.7408     0.0000     0.0000     0.0000     0.0000     0.0000     0.0000     0.0000     0.0000     0.0000 </r>
        <r>     3.7995     0.0000     0.0000     0.0000     0.0000     0.0000     0.0000     0.0000     0.0000     0.0000 </r>
        <r>     3.8583     0.0000     0.0000     0.0000     0.0000     0.0000     0.0000     0.0000     0.0000     0.0000 </r>
        <r>     3.9171     0.0000    -0.0002    -0.0001    -0.0002    -0.0008    -0.0003    -0.0001    -0.0005    -0.0002 </r>
        <r>     3.9759     0.0000    -0.0119    -0.0049    -0.0113    -0.0421    -0.0182    -0.0124    -0.0270    -0.0134 </r>
        <r>     4.0346     0.0000     0.1077     0.0455     0.1158     0.3810     0.1521     0.0500     0.2602     0.1118 </r>
        <r>     4.0934    -0.0002     0.4247     0.1662     0.2954     1.5114     0.7472     0.9361     0.8434     0.5550 </r>
        <r>     4.1522    -0.0107     0.0416     0.0133    -0.0007     0.1468     0.0798     0.2164     0.0389     0.0751 </r>
        <r>     4.2110     0.1077    -0.0052     0.0032    -0.0016     0.0098     0.1965     0.0924     0.0941    -0.0065 </r>
        <r>     4.2698     0.2879     0.0051     0.0155     0.0026     0.0938     0.5642     0.3171     0.2821     0.0116 </r>
        <r>     4.3285     0.0005     0.0000     0.0000     0.0000     0.0002     0.0011     0.0006     0.0005     0.0000 </r>
        <r>     4.3873    -0.0026     0.0000    -0.0001     0.0000    -0.0009    -0.0052    -0.0029    -0.0026    -0.0001 </r>
        <r>     4.4461     0.0000     0.0000     0.0000     0.0000     0.0000     0.0000     0.0000     0.0000     0.0000 </r>
        <r>     4.5049     0.0000     0.0000     0.0000     0.0000     0.0000     0.0000     0.0000     0.0000     0.0000 </r>
        <r>     4.5636     0.0000     0.0000     0.0000     0.0000     0.0000     0.0000     0.0000     0.0000     0.0000 </r>
        <r>     4.6224     0.0000    -0.0007    -0.0003    -0.0008    -0.0016    -0.0032    -0.0096    -0.0023    -0.0112 </r>
        <r>     4.6812     0.0000     0.0002     0.0001     0.0003     0.0005     0.0010     0.0031     0.0007     0.0036 </r>
        <r>     4.7400     0.0000     0.0751     0.0322     0.0858     0.1701     0.3510     1.0317     0.2483     1.2121 </r>
        <r>     4.7987     0.0000     0.0277     0.0119     0.0317     0.0628     0.1297     0.3811     0.0917     0.4478 </r>
        <r>     4.8575     0.0000    -0.0028    -0.0012    -0.0032    -0.0062    -0.0129    -0.0379    -0.0091    -0.0445 </r>
        <r>     4.9163     0.0000    -0.0001     0.0000    -0.0001    -0.0001    -0.0003    -0.0007    -0.0002    -0.0009 </r>
        <r>     4.9751     0.0000     0.0000     0.0000     0.0000     0.0000    -0.0007     0.0000    -0.0004     0.0000 </r>
        <r>     5.0338     0.0000    -0.0021     0.0000    -0.0011     0.0000    -0.0754     0.0000    -0.0377    -0.0004 </r>
        <r>     5.0926     0.0000     0.0154     0.0000     0.0076     0.0002     0.5454     0.0000     0.2726     0.0028 </r>
        <r>     5.1514    -0.0034     0.0906     0.0000     0.0339    -0.0174     3.4609     0.0000     1.7211     0.0157 </r>
        <r>     5.2102     0.0158     0.0439     0.0000     0.0743     0.0907     0.3477     0.0000     0.2167     0.0130 </r>
        <r>     5.2689     0.2364     0.5206     0.0000     1.0436     1.3545     0.3706     0.0002     0.8274     0.1690 </r>
        <r>     5.3277     0.0462     0.1021     0.0000     0.2042     0.2649     0.0833     0.0000     0.1672     0.0331 </r>
        <r>     5.3865    -0.0058    -0.0129     0.0000    -0.0258    -0.0334    -0.0106     0.0000    -0.0211    -0.0042 </r>
        <r>     5.4453    -0.0001    -0.0001     0.0000    -0.0003    -0.0004    -0.0001     0.0000    -0.0002     0.0000 </r>
        <r>     5.5040     0.0000     0.0000     0.0000     0.0000     0.0000     0.0000     0.0000     0.0000     0.0000 </r>
        <r>     5.5628     0.0000     0.0000     0.0000     0.0000     0.0000     0.0000     0.0000     0.0000     0.0000 </r>
        <r>     5.6216     0.0000     0.0000     0.0000     0.0000     0.0000     0.0000     0.0000     0.0000     0.0000 </r>
        <r>     5.6804     0.0000     0.0000     0.0000     0.0000     0.0000     0.0000     0.0000     0.0000     0.0000 </r>
        <r>     5.7391     0.0000     0.0000     0.0000     0.0000     0.0000     0.0000     0.0000     0.0000     0.0000 </r>
        <r>     5.7979     0.0000     0.0000     0.0000     0.0000     0.0000     0.0000     0.0000     0.0000     0.0000 </r>
        <r>     5.8567     0.0000    -0.0001    -0.0002    -0.0004     0.0000    -0.0001    -0.0001     0.0000    -0.0001 </r>
        <r>     5.9155     0.0000    -0.0036    -0.0108    -0.0288    -0.0007    -0.0042    -0.0094    -0.0021    -0.0087 </r>
        <r>     5.9742     0.0000     0.0316     0.0947     0.2526     0.0061     0.0366     0.0824     0.0183     0.0763 </r>
        <r>     6.0330     0.0000     0.1249     0.3746     0.9989     0.0241     0.1448     0.3257     0.0724     0.3016 </r>
        <r>     6.0918     0.0000     0.0049     0.0146     0.0389     0.0009     0.0056     0.0127     0.0028     0.0118 </r>
        <r>     6.1506     0.0000    -0.0015    -0.0046    -0.0122    -0.0003    -0.0018    -0.0040    -0.0009    -0.0037 </r>
        <r>     6.2093     0.0000     0.0000     0.0000    -0.0001    -0.0002    -0.0002    -0.0005    -0.0001    -0.0003 </r>
        <r>     6.2681     0.0000    -0.0011    -0.0006    -0.0008    -0.0108    -0.0130    -0.0292    -0.0065    -0.0184 </r>
        <r>     6.3269     0.0000     0.0098     0.0059     0.0078     0.0995     0.1194     0.2687     0.0597     0.1692 </r>
        <r>     6.3857     0.0000     0.0338     0.0203     0.0270     0.3449     0.4138     0.9312     0.2069     0.5863 </r>
        <r>     6.4444     0.0000     0.0009     0.0005     0.0007     0.0089     0.0106     0.0239     0.0053     0.0151 </r>
        <r>     6.5032     0.0000    -0.0004    -0.0002    -0.0003    -0.0038    -0.0046    -0.0104    -0.0023    -0.0065 </r>
        <r>     6.5620     0.0000     0.0000     0.0000     0.0000     0.0000     0.0000     0.0000     0.0000     0.0000 </r>
        <r>     6.6208     0.0000     0.0000     0.0000     0.0000     0.0000     0.0000     0.0000     0.0000     0.0000 </r>
        <r>     6.6795     0.0000     0.0000     0.0000     0.0000     0.0000     0.0000     0.0000     0.0000     0.0000 </r>
        <r>     6.7383     0.0000     0.0000     0.0000     0.0000     0.0000     0.0000     0.0000     0.0000     0.0000 </r>
        <r>     6.7971     0.0000     0.0000     0.0000     0.0000     0.0000     0.0000     0.0000     0.0000     0.0000 </r>
        <r>     6.8559     0.0000     0.0000     0.0000     0.0000     0.0000     0.0000     0.0000     0.0000     0.0000 </r>
        <r>     6.9146     0.0000     0.0000     0.0000     0.0000     0.0000     0.0000     0.0000     0.0000     0.0000 </r>
        <r>     6.9734     0.0000     0.0000     0.0000     0.0000    -0.0002    -0.0015     0.0000    -0.0007    -0.0020 </r>
        <r>     7.0322     0.0000     0.0000     0.0000     0.0000    -0.0028    -0.0170     0.0000    -0.0085    -0.0226 </r>
        <r>     7.0910     0.0000     0.0000     0.0000     0.0000     0.0524     0.3145     0.0000     0.1573     0.4194 </r>
        <r>     7.1497     0.0000     0.0000     0.0000     0.0000     0.0449     0.2697     0.0000     0.1348     0.3596 </r>
        <r>     7.2085     0.0000     0.0000     0.0000     0.0000    -0.0031    -0.0184     0.0000    -0.0092    -0.0245 </r>
        <r>     7.2673     0.0000     0.0000     0.0000     0.0000    -0.0002    -0.0010     0.0000    -0.0005    -0.0013 </r>
        <r>     7.3261     0.0000     0.0000     0.0000     0.0000     0.0000     0.0000     0.0000     0.0000     0.0000 </r>
        <r>     7.3848     0.0000     0.0000     0.0000     0.0000     0.0000     0.0000     0.0000     0.0000     0.0000 </r>
        <r>     7.4436     0.0000     0.0000     0.0000     0.0000     0.0000     0.0000     0.0000     0.0000     0.0000 </r>
        <r>     7.5024     0.0000     0.0000     0.0000     0.0000     0.0000     0.0000     0.0000     0.0000     0.0000 </r>
        <r>     7.5612     0.0000     0.0000     0.0000     0.0000     0.0000     0.0000     0.0000     0.0000     0.0000 </r>
        <r>     7.6199     0.0000     0.0000     0.0000     0.0000     0.0000     0.0000     0.0000     0.0000     0.0000 </r>
        <r>     7.6787     0.0000     0.0000     0.0000     0.0000    -0.0001     0.0000     0.0000     0.0000     0.0000 </r>
        <r>     7.7375     0.0000     0.0000     0.0000     0.0000    -0.0089    -0.0015    -0.0033    -0.0030    -0.0011 </r>
        <r>     7.7963     0.0000     0.0000     0.0000     0.0000     0.0474     0.0079     0.0178     0.0158     0.0059 </r>
        <r>     7.8550     0.0000     0.0000     0.0000     0.0000     0.5576     0.0929     0.2091     0.1859     0.0697 </r>
        <r>     7.9138     0.0000     0.0000     0.0000     0.0000     0.0932     0.0155     0.0349     0.0311     0.0116 </r>
        <r>     7.9726     0.0000     0.0000     0.0000     0.0000    -0.0125    -0.0021    -0.0047    -0.0042    -0.0016 </r>
        <r>     8.0314     0.0000     0.0000     0.0000     0.0000    -0.0001     0.0000     0.0000     0.0000     0.0000 </r>
        <r>     8.0901     0.0000     0.0000     0.0000     0.0000     0.0000     0.0000     0.0000     0.0000     0.0000 </r>
        <r>     8.1489     0.0000     0.0000     0.0000     0.0000     0.0000     0.0000     0.0000     0.0000     0.0000 </r>
        <r>     8.2077     0.0000     0.0000     0.0000     0.0000     0.0000     0.0000     0.0000     0.0000     0.0000 </r>
        <r>     8.2665     0.0000     0.0000     0.0000     0.0000     0.0000     0.0000     0.0000     0.0000     0.0000 </r>
        <r>     8.3252    -0.0001    -0.0004     0.0000    -0.0007    -0.0005     0.0000    -0.0079     0.0000    -0.0001 </r>
        <r>     8.3840    -0.0024    -0.0076     0.0000    -0.0152    -0.0095     0.0000    -0.1643     0.0000    -0.0012 </r>
        <r>     8.4428     0.0344     0.1069     0.0000     0.2137     0.1332     0.0003     2.3143     0.0006     0.0167 </r>
        <r>     8.5016     0.0429     0.1332     0.0000     0.2663     0.1660     0.0004     2.8837     0.0008     0.0208 </r>
        <r>     8.5603    -0.0022    -0.0067     0.0000    -0.0135    -0.0084     0.0000    -0.1457     0.0000    -0.0010 </r>
        <r>     8.6191    -0.0002    -0.0007     0.0000    -0.0013    -0.0008     0.0000    -0.0142     0.0000    -0.0001 </r>
        <r>     8.6779     0.0000     0.0000     0.0000     0.0000     0.0000     0.0000     0.0000     0.0000     0.0000 </r>
        <r>     8.7367     0.0000     0.0000     0.0000     0.0000     0.0000     0.0000     0.0000     0.0000     0.0000 </r>
        <r>     8.7954     0.0000     0.0000     0.0000     0.0000     0.0000     0.0000     0.0000     0.0000     0.0000 </r>
        <r>     8.8542     0.0000     0.0000     0.0000     0.0000     0.0000     0.0000     0.0000     0.0000     0.0000 </r>
        <r>     8.9130     0.0000     0.0000     0.0000     0.0000     0.0000     0.0000     0.0000     0.0000     0.0000 </r>
        <r>     8.9718     0.0000     0.0000     0.0000     0.0000     0.0000     0.0000     0.0000     0.0000     0.0000 </r>
        <r>     9.0305     0.0000     0.0000     0.0000     0.0000     0.0000     0.0000     0.0000     0.0000     0.0000 </r>
        <r>     9.0893     0.0000    -0.0003    -0.0002    -0.0002    -0.0003    -0.0004    -0.0009    -0.0002    -0.0006 </r>
        <r>     9.1481     0.0000    -0.0092    -0.0055    -0.0074    -0.0105    -0.0125    -0.0282    -0.0063    -0.0178 </r>
        <r>     9.2069     0.0000     0.1114     0.0669     0.0891     0.1263     0.1516     0.3410     0.0758     0.2147 </r>
        <r>     9.2656     0.0000     0.1890     0.1134     0.1512     0.2142     0.2570     0.5784     0.1285     0.3641 </r>
        <r>     9.3244     0.0000    -0.0061    -0.0037    -0.0049    -0.0069    -0.0083    -0.0187    -0.0042    -0.0118 </r>
        <r>     9.3832     0.0000    -0.0012    -0.0007    -0.0010    -0.0014    -0.0016    -0.0037    -0.0008    -0.0023 </r>
        <r>     9.4420     0.0000     0.0000     0.0000     0.0000     0.0000     0.0000     0.0000     0.0000     0.0000 </r>
        <r>     9.5007     0.0000     0.0000     0.0000     0.0000     0.0000     0.0000     0.0000     0.0000     0.0000 </r>
        <r>     9.5595     0.0000     0.0000     0.0000     0.0000     0.0000     0.0000     0.0000     0.0000     0.0000 </r>
        <r>     9.6183     0.0000     0.0000     0.0000     0.0000     0.0000     0.0000     0.0000     0.0000     0.0000 </r>
        <r>     9.6771     0.0000     0.0000     0.0000     0.0000    -0.0019    -0.0007    -0.0001    -0.0013    -0.0005 </r>
        <r>     9.7358     0.0000     0.0000     0.0000     0.0000    -0.0547    -0.0210    -0.0026    -0.0389    -0.0149 </r>
        <r>     9.7946     0.0000     0.0000     0.0000     0.0000     0.6756     0.2594     0.0324     0.4807     0.1844 </r>
        <r>     9.8534     0.0000     0.0000     0.0000     0.0000     1.0911     0.4189     0.0523     0.7764     0.2978 </r>
[...]
        <r>    13.6738     0.0000     0.0000     0.0000     0.0000     0.0000     0.0000     0.0000     0.0000     0.0000 </r>
        <r>    13.7326     0.0000     0.0000     0.0000     0.0000     0.0000     0.0000     0.0000     0.0000     0.0000 </r>
        <r>    13.7913     0.0000     0.0000     0.0000     0.0000     0.0000     0.0000     0.0000     0.0000     0.0000 </r>
        <r>    13.8501     0.0000     0.0000     0.0000     0.0000     0.0000     0.0000     0.0000     0.0000     0.0000 </r>
        <r>    13.9089     0.0000     0.0000     0.0000     0.0000     0.0000     0.0000     0.0000     0.0000     0.0000 </r>
        <r>    13.9677     0.0000     0.0000     0.0000     0.0000     0.0000     0.0000     0.0000     0.0000     0.0000 </r>
        <r>    14.0264     0.0000     0.0000     0.0000     0.0000     0.0000     0.0000     0.0000     0.0000     0.0000 </r>
        <r>    14.0852     0.0000     0.0000     0.0000     0.0000     0.0000     0.0000     0.0000     0.0000     0.0000 </r>
        <r>    14.1440     0.0000     0.0000     0.0000     0.0000     0.0000     0.0000     0.0000     0.0000     0.0000 </r>
        <r>    14.2028     0.0000     0.0000     0.0000     0.0000     0.0000     0.0000     0.0000     0.0000     0.0000 </r>
        <r>    14.2615     0.0000     0.0000     0.0000     0.0000     0.0000     0.0000     0.0000     0.0000     0.0000 </r>
        <r>    14.3203     0.0000     0.0000     0.0000     0.0000     0.0000     0.0000     0.0000     0.0000     0.0000 </r>
        <r>    14.3791     0.0000     0.0000     0.0000     0.0000     0.0000     0.0000     0.0000     0.0000     0.0000 </r>
        <r>    14.4379     0.0000     0.0000     0.0000     0.0000     0.0000     0.0000     0.0000     0.0000     0.0000 </r>
        <r>    14.4966     0.0000     0.0000     0.0000     0.0000     0.0000     0.0000     0.0000     0.0000     0.0000 </r>
        <r>    14.5554     0.0000     0.0000     0.0000     0.0000     0.0000     0.0000     0.0000     0.0000     0.0000 </r>
        <r>    14.6142     0.0000     0.0000     0.0000     0.0000     0.0000     0.0000     0.0000     0.0000     0.0000 </r>
        <r>    14.6730     0.0000     0.0000     0.0000     0.0000     0.0000     0.0000     0.0000     0.0000     0.0000 </r>
        <r>    14.7317     0.0000     0.0000     0.0000     0.0000     0.0000     0.0000     0.0000     0.0000     0.0000 </r>
        <r>    14.7905     0.0000     0.0000     0.0000     0.0000     0.0000     0.0000     0.0000     0.0000     0.0000 </r>
        <r>    14.8493     0.0000     0.0000     0.0000     0.0000     0.0000     0.0000     0.0000     0.0000     0.0000 </r>
        <r>    14.9081    -0.0003     0.0000     0.0000     0.0000     0.0000     0.0000     0.0000     0.0000     0.0000 </r>
        <r>    14.9668    -0.0318    -0.0006    -0.0018    -0.0011    -0.0008    -0.0038    -0.0001    -0.0023    -0.0051 </r>
        <r>    15.0256     0.1606     0.0025     0.0075     0.0066     0.0034     0.0151    -0.0043     0.0102     0.0321 </r>
        <r>    15.0844     2.0451     0.0442     0.1325     0.0670     0.0533     0.2761     0.0492     0.1599     0.2710 </r>
        <r>    15.1432     0.9810     0.0295     0.0886     0.0204     0.0324     0.1891     0.0931     0.0973     0.0370 </r>
        <r>    15.2019    -0.0507    -0.0012    -0.0037    -0.0015    -0.0014    -0.0077    -0.0023    -0.0043    -0.0053 </r>
        <r>    15.2607    -0.0057    -0.0002    -0.0006    -0.0001    -0.0002    -0.0012    -0.0006    -0.0006    -0.0001 </r>
        <r>    15.3195     0.0000     0.0000     0.0000     0.0000     0.0000     0.0000     0.0000     0.0000     0.0000 </r>
        <r>    15.3783     0.0000     0.0000     0.0000     0.0000     0.0000     0.0000     0.0000     0.0000     0.0000 </r>
        <r>    15.4370     0.0000     0.0000     0.0000     0.0000     0.0000     0.0000     0.0000     0.0000     0.0000 </r>
        <r>    15.4958     0.0000     0.0000     0.0000     0.0000     0.0000     0.0000     0.0000     0.0000     0.0000 </r>
        <r>    15.5546     0.0000     0.0000     0.0000     0.0000     0.0000     0.0000     0.0000     0.0000     0.0000 </r>
        <r>    15.6134     0.0000     0.0000     0.0000     0.0000     0.0000     0.0000     0.0000     0.0000     0.0000 </r>
        <r>    15.6721     0.0000     0.0000     0.0000     0.0000     0.0000     0.0000     0.0000     0.0000     0.0000 </r>
        <r>    15.7309     0.0000     0.0000     0.0000     0.0000     0.0000     0.0000     0.0000     0.0000     0.0000 </r>
        <r>    15.7897     0.0000     0.0000     0.0000     0.0000     0.0000     0.0000     0.0000     0.0000     0.0000 </r>
        <r>    15.8485     0.0000     0.0000     0.0000     0.0000     0.0000     0.0000     0.0000     0.0000     0.0000 </r>
        <r>    15.9072     0.0000     0.0000     0.0000     0.0000     0.0000     0.0000     0.0000     0.0000     0.0000 </r>
       </set>
      </set>
     </set>
    </array>
   </partial>
  </dos>
  <projected>
   <eigenvalues>
    <array>
     <dimension dim="1">band</dimension>
     <dimension dim="2">kpoint</dimension>
     <dimension dim="3">spin</dimension>
     <field>eigene</field>
     <field>occ</field>
     <set>
      <set comment="spin 1">
       <set comment="kpoint 1">
        <r>    1.1657    1.0000 </r>
        <r>    4.7244    1.0000 </r>
        <r>    4.7244    1.0000 </r>
        <r>    9.8023    0.0000 </r>
        <r>    9.8023    0.0000 </r>
        <r>   11.0401    0.0000 </r>
       </set>
       <set comment="kpoint 2">
        <r>    2.6856    1.0000 </r>
        <r>    4.0727    1.0000 </r>
        <r>    5.9951    0.0000 </r>
        <r>   10.1207    0.0000 </r>
        <r>   10.6937    0.0000 </r>
        <r>   15.0546    0.0000 </r>
       </set>
       <set comment="kpoint 3">
        <r>   -0.8625    1.0000 </r>
        <r>    6.3459    0.0000 </r>
        <r>    6.3459    0.0000 </r>
        <r>    7.0885    0.0000 </r>
        <r>    7.8290    0.0000 </r>
        <r>   10.4121    0.0000 </r>
       </set>
       <set comment="kpoint 4">
        <r>    1.8548    1.0000 </r>
        <r>    5.1193    1.0001 </r>
        <r>    5.2448    0.8186 </r>
        <r>    8.4463    0.0000 </r>
        <r>   10.9787    0.0000 </r>
        <r>   11.5011    0.0000 </r>
       </set>
       <set comment="kpoint 5">
        <r>    4.0493    1.0000 </r>
        <r>    4.0493    1.0000 </r>
        <r>    4.2263    1.0000 </r>
        <r>   10.1461    0.0000 </r>
        <r>   10.1461    0.0000 </r>
        <r>   15.1058    0.0000 </r>
       </set>
       <set comment="kpoint 6">
        <r>    2.7188    1.0000 </r>
        <r>    2.7806    1.0000 </r>
        <r>    9.2153    0.0000 </r>
        <r>    9.2153    0.0000 </r>
        <r>   11.2278    0.0000 </r>
        <r>   11.4971    0.0000 </r>
       </set>
      </set>
      <set comment="spin 2">
       <set comment="kpoint 1">
        <r>    1.1100    1.0000 </r>
        <r>    4.7201    1.0000 </r>
        <r>    4.7201    1.0000 </r>
        <r>    9.7553    0.0000 </r>
        <r>    9.7553    0.0000 </r>
        <r>   11.0569    0.0000 </r>
       </set>
       <set comment="kpoint 2">
        <r>    2.6520    1.0000 </r>
        <r>    4.0719    1.0000 </r>
        <r>    5.9466    0.0000 </r>
        <r>   10.0854    0.0000 </r>
        <r>   10.6488    0.0000 </r>
        <r>   15.0552    0.0000 </r>
       </set>
       <set comment="kpoint 3">
        <r>   -0.9238    1.0000 </r>
        <r>    6.3657    0.0000 </r>
        <r>    6.3657    0.0000 </r>
        <r>    7.1155    0.0000 </r>
        <r>    7.7542    0.0000 </r>
        <r>   10.3505    0.0000 </r>
       </set>
       <set comment="kpoint 4">
        <r>    1.8051    1.0000 </r>
        <r>    5.1309    1.0005 </r>
        <r>    5.1751    1.0142 </r>
        <r>    8.4215    0.0000 </r>
        <r>   10.9389    0.0000 </r>
        <r>   11.5243    0.0000 </r>
       </set>
       <set comment="kpoint 5">
        <r>    3.9788    1.0000 </r>
        <r>    3.9788    1.0000 </r>
        <r>    4.2226    1.0000 </r>
        <r>   10.1420    0.0000 </r>
        <r>   10.1420    0.0000 </r>
        <r>   15.0946    0.0000 </r>
       </set>
       <set comment="kpoint 6">
        <r>    2.6384    1.0000 </r>
        <r>    2.7016    1.0000 </r>
        <r>    9.2200    0.0000 </r>
        <r>    9.2200    0.0000 </r>
        <r>   11.2503    0.0000 </r>
        <r>   11.4641    0.0000 </r>
       </set>
      </set>
     </set>
    </array>
   </eigenvalues>
   <array>
    <dimension dim="1">ion</dimension>
    <dimension dim="2">band</dimension>
    <dimension dim="3">kpoint</dimension>
    <dimension dim="4">spin</dimension>
    <field>  s</field>
    <field> py</field>
    <field> pz</field>
    <field> px</field>
    <field>dxy</field>
    <field>dyz</field>
    <field>dz2</field>
    <field>dxz</field>
    <field>dx2</field>
    <set>
     <set comment="spin1">
      <set comment="kpoint 1">
       <set comment="band 1">
        <r>  0.6068  0.0464  0.1391  0.0232  0.0073  0.0437  0.0246  0.0218  0.0009 </r>
       </set>
       <set comment="band 2">
        <r>  0.0000  0.0004  0.0105  0.0493  0.0180  0.0373  0.3355  0.1536  0.3947 </r>
       </set>
       <set comment="band 3">
        <r>  0.0000  0.0464  0.0096  0.0042  0.0881  0.1814  0.3076  0.0012  0.3608 </r>
       </set>
       <set comment="band 4">
        <r>  0.0000  0.0000  0.0000  0.0000  0.3150  0.2297  0.0202  0.1690  0.2117 </r>
       </set>
       <set comment="band 5">
        <r>  0.0000  0.0000  0.0000  0.0000  0.4678  0.0708  0.0173  0.3879  0.0019 </r>
       </set>
       <set comment="band 6">
        <r>  0.0046  0.0361  0.1082  0.0180  0.0598  0.3590  0.2020  0.1795  0.0075 </r>
       </set>
      </set>
      <set comment="kpoint 2">
       <set comment="band 1">
        <r>  0.2031  0.0177  0.0532  0.0355  0.1061  0.0518  0.0090  0.3183  0.1826 </r>
       </set>
       <set comment="band 2">
        <r>  0.0000  0.0652  0.0217  0.0000  0.2344  0.1563  0.3516  0.0781  0.1172 </r>
       </set>
       <set comment="band 3">
        <r>  0.0000  0.0489  0.1468  0.3915  0.0095  0.0567  0.1277  0.0284  0.1182 </r>
       </set>
       <set comment="band 4">
        <r>  0.0483  0.0001  0.0003  0.0002  0.0740  0.4431  0.0493  0.2219  0.1476 </r>
       </set>
       <set comment="band 5">
        <r>  0.0000  0.0000  0.0000  0.0000  0.4948  0.0825  0.1855  0.1649  0.0618 </r>
       </set>
       <set comment="band 6">
        <r>  0.6119  0.0116  0.0347  0.0227  0.0146  0.0710  0.0000  0.0438  0.1014 </r>
       </set>
      </set>
      <set comment="kpoint 3">
       <set comment="band 1">
        <r>  0.7674  0.0165  0.0494  0.0329  0.0015  0.0023  0.0006  0.0046  0.0002 </r>
       </set>
       <set comment="band 2">
        <r>  0.0000  0.0242  0.0081  0.0000  0.2474  0.1649  0.3711  0.0825  0.1237 </r>
       </set>
       <set comment="band 3">
        <r>  0.0000  0.0027  0.0081  0.0215  0.0275  0.1649  0.3711  0.0825  0.3436 </r>
       </set>
       <set comment="band 4">
        <r>  0.0000  0.0000  0.0000  0.0000  0.0571  0.3426  0.0000  0.1713  0.4567 </r>
       </set>
       <set comment="band 5">
        <r>  0.0000  0.0000  0.0000  0.0000  0.4241  0.0707  0.1590  0.1414  0.0530 </r>
       </set>
       <set comment="band 6">
        <r>  0.0071  0.0006  0.0017  0.0011  0.1575  0.2363  0.0591  0.4726  0.0197 </r>
       </set>
      </set>
      <set comment="kpoint 4">
       <set comment="band 1">
        <r>  0.3579  0.0238  0.0451  0.0476  0.3545  0.0047  0.0585  0.0093  0.0443 </r>
       </set>
       <set comment="band 2">
        <r>  0.0000  0.0186  0.0000  0.0093  0.0004  0.6579  0.0000  0.3289  0.0035 </r>
       </set>
       <set comment="band 3">
        <r>  0.0453  0.1001  0.0000  0.2002  0.2596  0.0820  0.0000  0.1641  0.0325 </r>
       </set>
       <set comment="band 4">
        <r>  0.0113  0.0352  0.0000  0.0704  0.0439  0.0001  0.7627  0.0002  0.0055 </r>
       </set>
       <set comment="band 5">
        <r>  0.0967  0.0339  0.0028  0.0678  0.0908  0.2284  0.0012  0.4568  0.0113 </r>
       </set>
       <set comment="band 6">
        <r>  0.0000  0.0354  0.0000  0.0177  0.0997  0.0070  0.0000  0.0035  0.7979 </r>
       </set>
      </set>
      <set comment="kpoint 5">
       <set comment="band 1">
        <r>  0.0000  0.0699  0.0000  0.1398  0.0114  0.1976  0.0000  0.3953  0.0910 </r>
       </set>
       <set comment="band 2">
        <r>  0.0000  0.0932  0.0699  0.0466  0.5653  0.0228  0.0252  0.0114  0.0707 </r>
       </set>
       <set comment="band 3">
        <r>  0.1799  0.0032  0.0097  0.0016  0.0588  0.3527  0.1984  0.1763  0.0073 </r>
       </set>
       <set comment="band 4">
        <r>  0.0000  0.0632  0.0474  0.0316  0.0121  0.1267  0.6072  0.0633  0.0015 </r>
       </set>
       <set comment="band 5">
        <r>  0.0000  0.0474  0.0000  0.0948  0.0633  0.0803  0.0000  0.1605  0.5067 </r>
       </set>
       <set comment="band 6">
        <r>  0.5278  0.0178  0.0534  0.0089  0.0186  0.1118  0.0629  0.0559  0.0023 </r>
       </set>
      </set>
      <set comment="kpoint 6">
       <set comment="band 1">
        <r>  0.0000  0.0000  0.0000  0.0000  0.4495  0.0749  0.1685  0.1498  0.0562 </r>
       </set>
       <set comment="band 2">
        <r>  0.0331  0.0229  0.0687  0.0458  0.1237  0.1855  0.0464  0.3711  0.0155 </r>
       </set>
       <set comment="band 3">
        <r>  0.0000  0.0178  0.0533  0.1422  0.0202  0.1209  0.2720  0.0605  0.2519 </r>
       </set>
       <set comment="band 4">
        <r>  0.0000  0.1600  0.0533  0.0000  0.1813  0.1209  0.2720  0.0604  0.0907 </r>
       </set>
       <set comment="band 5">
        <r>  0.0000  0.0000  0.0000  0.0000  0.0525  0.3152  0.0000  0.1576  0.4203 </r>
       </set>
       <set comment="band 6">
        <r>  0.3606  0.0651  0.1954  0.1302  0.0265  0.0397  0.0099  0.0794  0.0033 </r>
       </set>
      </set>
     </set>
     <set comment="spin2">
      <set comment="kpoint 1">
       <set comment="band 1">
        <r>  0.6072  0.0466  0.1397  0.0233  0.0072  0.0431  0.0243  0.0216  0.0009 </r>
       </set>
       <set comment="band 2">
        <r>  0.0000  0.0004  0.0104  0.0498  0.0193  0.0353  0.3328  0.1553  0.3946 </r>
       </set>
       <set comment="band 3">
        <r>  0.0000  0.0467  0.0098  0.0041  0.0850  0.1834  0.3115  0.0011  0.3563 </r>
       </set>
       <set comment="band 4">
        <r>  0.0000  0.0000  0.0000  0.0000  0.3315  0.2251  0.0199  0.1552  0.2145 </r>
       </set>
       <set comment="band 5">
        <r>  0.0000  0.0000  0.0000  0.0000  0.4527  0.0751  0.0156  0.3996  0.0032 </r>
       </set>
       <set comment="band 6">
        <r>  0.0043  0.0359  0.1078  0.0180  0.0599  0.3595  0.2022  0.1797  0.0075 </r>
       </set>
      </set>
      <set comment="kpoint 2">
       <set comment="band 1">
        <r>  0.2034  0.0178  0.0535  0.0356  0.1065  0.0504  0.0092  0.3195  0.1807 </r>
       </set>
       <set comment="band 2">
        <r>  0.0000  0.0658  0.0219  0.0000  0.2340  0.1560  0.3510  0.0780  0.1170 </r>
       </set>
       <set comment="band 3">
        <r>  0.0000  0.0491  0.1474  0.3931  0.0093  0.0560  0.1260  0.0280  0.1167 </r>
       </set>
       <set comment="band 4">
        <r>  0.0496  0.0001  0.0003  0.0002  0.0734  0.4439  0.0491  0.2201  0.1486 </r>
       </set>
       <set comment="band 5">
        <r>  0.0000  0.0000  0.0000  0.0000  0.4948  0.0825  0.1856  0.1649  0.0619 </r>
       </set>
       <set comment="band 6">
        <r>  0.6184  0.0116  0.0347  0.0228  0.0147  0.0714  0.0000  0.0440  0.1018 </r>
       </set>
      </set>
      <set comment="kpoint 3">
       <set comment="band 1">
        <r>  0.7680  0.0165  0.0494  0.0329  0.0016  0.0023  0.0006  0.0047  0.0002 </r>
       </set>
       <set comment="band 2">
        <r>  0.0000  0.0243  0.0081  0.0000  0.2473  0.1648  0.3709  0.0824  0.1236 </r>
       </set>
       <set comment="band 3">
        <r>  0.0000  0.0027  0.0081  0.0216  0.0275  0.1648  0.3709  0.0824  0.3434 </r>
       </set>
       <set comment="band 4">
        <r>  0.0000  0.0000  0.0000  0.0000  0.0571  0.3426  0.0000  0.1713  0.4568 </r>
       </set>
       <set comment="band 5">
        <r>  0.0000  0.0000  0.0000  0.0000  0.4238  0.0706  0.1589  0.1413  0.0530 </r>
       </set>
       <set comment="band 6">
        <r>  0.0071  0.0006  0.0018  0.0012  0.1574  0.2361  0.0590  0.4721  0.0197 </r>
       </set>
      </set>
      <set comment="kpoint 4">
       <set comment="band 1">
        <r>  0.3583  0.0242  0.0450  0.0484  0.3542  0.0048  0.0563  0.0095  0.0443 </r>
       </set>
       <set comment="band 2">
        <r>  0.0000  0.0187  0.0000  0.0094  0.0004  0.6574  0.0000  0.3287  0.0035 </r>
       </set>
       <set comment="band 3">
        <r>  0.0446  0.0993  0.0000  0.1986  0.2611  0.0821  0.0000  0.1641  0.0326 </r>
       </set>
       <set comment="band 4">
        <r>  0.0122  0.0355  0.0000  0.0710  0.0420  0.0001  0.7632  0.0001  0.0053 </r>
       </set>
       <set comment="band 5">
        <r>  0.0965  0.0342  0.0028  0.0683  0.0906  0.2284  0.0012  0.4567  0.0113 </r>
       </set>
       <set comment="band 6">
        <r>  0.0000  0.0354  0.0000  0.0177  0.0997  0.0071  0.0000  0.0036  0.7977 </r>
       </set>
      </set>
      <set comment="kpoint 5">
       <set comment="band 1">
        <r>  0.0000  0.0929  0.0697  0.0465  0.5648  0.0223  0.0261  0.0112  0.0706 </r>
       </set>
       <set comment="band 2">
        <r>  0.0000  0.0697  0.0000  0.1394  0.0112  0.1982  0.0000  0.3963  0.0893 </r>
       </set>
       <set comment="band 3">
        <r>  0.1817  0.0032  0.0096  0.0016  0.0586  0.3518  0.1979  0.1759  0.0073 </r>
       </set>
       <set comment="band 4">
        <r>  0.0000  0.0482  0.0000  0.0964  0.0633  0.0797  0.0000  0.1595  0.5061 </r>
       </set>
       <set comment="band 5">
        <r>  0.0000  0.0643  0.0482  0.0321  0.0119  0.1265  0.6054  0.0633  0.0015 </r>
       </set>
       <set comment="band 6">
        <r>  0.5292  0.0175  0.0525  0.0088  0.0188  0.1128  0.0634  0.0564  0.0023 </r>
       </set>
      </set>
      <set comment="kpoint 6">
       <set comment="band 1">
        <r>  0.0000  0.0000  0.0000  0.0000  0.4493  0.0749  0.1685  0.1498  0.0562 </r>
       </set>
       <set comment="band 2">
        <r>  0.0331  0.0229  0.0686  0.0457  0.1237  0.1855  0.0464  0.3710  0.0155 </r>
       </set>
       <set comment="band 3">
        <r>  0.0000  0.1608  0.0536  0.0000  0.1809  0.1206  0.2714  0.0603  0.0905 </r>
       </set>
       <set comment="band 4">
        <r>  0.0000  0.0179  0.0536  0.1430  0.0201  0.1206  0.2714  0.0603  0.2513 </r>
       </set>
       <set comment="band 5">
        <r>  0.0000  0.0000  0.0000  0.0000  0.0525  0.3152  0.0000  0.1576  0.4203 </r>
       </set>
       <set comment="band 6">
        <r>  0.3626  0.0649  0.1948  0.1299  0.0264  0.0396  0.0099  0.0793  0.0033 </r>
       </set>
      </set>
     </set>
    </set>
   </array>
  </projected>
 </calculation>
 <structure name="finalpos" >
  <crystal>
   <varray name="basis" >
    <v>       2.86654409       0.00000000       0.00000000 </v>
    <v>      -0.95551470       2.70260368       0.00000000 </v>
    <v>      -0.95551470      -1.35130184       2.34052345 </v>
   </varray>
   <i name="volume">     18.13234550 </i>
   <varray name="rec_basis" >
    <v>       0.34885213       0.12333785       0.21362743 </v>
    <v>       0.00000000       0.37001356       0.21362743 </v>
    <v>       0.00000000       0.00000000       0.42725485 </v>
   </varray>
  </crystal>
  <varray name="positions" >
   <v>       0.00000000       0.00000000       0.00000000 </v>
  </varray>
 </structure>
</modeling>
