   2   2   1   0
  0.1120183E+02  0.3164303E-09  0.3164303E-09  0.3164303E-09  0.5000000E-15
  1.000000000000000E-004
  CAR 
 unknown system                          
     23.65526956     -7.51998196  301      8.33167623      1.00000000
     -7.520  0.0000E+00  0.0000E+00  0.0000E+00  0.0000E+00
     -7.416  0.0000E+00  0.0000E+00  0.0000E+00  0.0000E+00
     -7.312  0.0000E+00  0.0000E+00  0.0000E+00  0.0000E+00
     -7.208  0.0000E+00  0.0000E+00  0.0000E+00  0.0000E+00
     -7.104  0.0000E+00  0.0000E+00  0.0000E+00  0.0000E+00
     -7.000  0.0000E+00  0.0000E+00  0.0000E+00  0.0000E+00
     -6.896  0.0000E+00  0.0000E+00  0.0000E+00  0.0000E+00
     -6.793  0.0000E+00  0.0000E+00  0.0000E+00  0.0000E+00
     -6.689  0.0000E+00  0.0000E+00  0.0000E+00  0.0000E+00
     -6.585 -0.4832E-41 -0.4386E-41 -0.5022E-42 -0.4558E-42
     -6.481 -0.1253E-25 -0.1161E-25 -0.1302E-26 -0.1207E-26
     -6.377 -0.5140E-14 -0.4869E-14 -0.5342E-15 -0.5060E-15
     -6.273 -0.3134E-06 -0.3034E-06 -0.3257E-07 -0.3153E-07
     -6.169 -0.1284E-02 -0.1279E-02 -0.1335E-03 -0.1330E-03
     -6.065  0.3804E-01  0.3798E-01  0.3820E-02  0.3814E-02
     -5.961  0.6953E-03  0.7557E-03  0.3892E-02  0.3892E-02
     -5.857  0.2177E-01  0.2137E-01  0.6154E-02  0.6113E-02
     -5.753  0.9332E-01  0.9374E-01  0.1585E-01  0.1585E-01
     -5.649 -0.5441E-02 -0.5440E-02  0.1529E-01  0.1529E-01
     -5.546  0.1074E+00  0.1070E+00  0.2644E-01  0.2641E-01
     -5.442  0.6805E-02  0.7124E-02  0.2715E-01  0.2715E-01
     -5.338  0.9575E-01  0.9509E-01  0.3710E-01  0.3703E-01
     -5.234  0.5727E-01  0.5792E-01  0.4305E-01  0.4305E-01
     -5.130  0.1561E-01  0.1497E-01  0.4467E-01  0.4461E-01
     -5.026  0.2158E+00  0.2164E+00  0.6709E-01  0.6710E-01
     -4.922 -0.9893E-02 -0.9921E-02  0.6607E-01  0.6607E-01
     -4.818  0.1042E+00  0.1038E+00  0.7690E-01  0.7686E-01
     -4.714  0.1253E+00  0.1257E+00  0.8992E-01  0.8991E-01
     -4.610  0.9191E-01  0.9152E-01  0.9947E-01  0.9942E-01
     -4.506  0.1724E+00  0.1716E+00  0.1174E+00  0.1173E+00
     -4.402  0.1076E+00  0.1083E+00  0.1286E+00  0.1285E+00
     -4.299  0.9595E-01  0.9587E-01  0.1385E+00  0.1385E+00
     -4.195  0.2145E+00  0.2152E+00  0.1608E+00  0.1608E+00
     -4.091  0.9921E-02  0.8863E-02  0.1619E+00  0.1618E+00
     -3.987  0.7122E+00  0.7111E+00  0.2359E+00  0.2356E+00
     -3.883  0.9828E-01  0.9975E-01  0.2461E+00  0.2460E+00
     -3.779  0.8099E+00  0.8063E+00  0.3302E+00  0.3298E+00
     -3.675  0.2230E+00  0.2268E+00  0.3534E+00  0.3534E+00
     -3.571  0.4017E+00  0.3984E+00  0.3952E+00  0.3948E+00
     -3.467  0.5250E+00  0.5275E+00  0.4497E+00  0.4496E+00
     -3.363  0.6602E+00  0.6570E+00  0.5183E+00  0.5179E+00
     -3.259  0.6549E+00  0.6555E+00  0.5864E+00  0.5860E+00
     -3.155  0.4939E+00  0.4940E+00  0.6377E+00  0.6373E+00
     -3.052  0.7269E+00  0.7288E+00  0.7132E+00  0.7131E+00
     -2.948  0.5018E+00  0.5002E+00  0.7654E+00  0.7650E+00
     -2.844  0.7780E+00  0.7770E+00  0.8462E+00  0.8458E+00
     -2.740  0.4562E+00  0.4596E+00  0.8936E+00  0.8935E+00
     -2.636  0.2196E+00  0.2198E+00  0.9164E+00  0.9164E+00
     -2.532  0.8518E-01  0.8510E-01  0.9253E+00  0.9252E+00
     -2.428  0.4700E+00  0.4706E+00  0.9741E+00  0.9741E+00
     -2.324  0.2259E-01  0.2250E-01  0.9765E+00  0.9765E+00
     -2.220  0.1173E+00  0.1176E+00  0.9887E+00  0.9887E+00
     -2.116  0.1378E-01  0.1290E-01  0.9901E+00  0.9900E+00
     -2.012  0.9766E-01  0.9864E-01  0.1000E+01  0.1000E+01
     -1.908 -0.2477E-02 -0.2548E-02  0.1000E+01  0.1000E+01
     -1.805 -0.1220E-06 -0.1345E-06  0.1000E+01  0.1000E+01
     -1.701 -0.5509E-15 -0.6260E-15  0.1000E+01  0.1000E+01
     -1.597  0.0000E+00  0.0000E+00  0.1000E+01  0.1000E+01
     -1.493  0.0000E+00  0.0000E+00  0.1000E+01  0.1000E+01
     -1.389  0.0000E+00  0.0000E+00  0.1000E+01  0.1000E+01
     -1.285  0.0000E+00  0.0000E+00  0.1000E+01  0.1000E+01
     -1.181  0.0000E+00  0.0000E+00  0.1000E+01  0.1000E+01
     -1.077  0.0000E+00  0.0000E+00  0.1000E+01  0.1000E+01
     -0.973  0.0000E+00  0.0000E+00  0.1000E+01  0.1000E+01
     -0.869  0.0000E+00  0.0000E+00  0.1000E+01  0.1000E+01
     -0.765  0.0000E+00  0.0000E+00  0.1000E+01  0.1000E+01
     -0.661  0.0000E+00  0.0000E+00  0.1000E+01  0.1000E+01
     -0.558  0.0000E+00  0.0000E+00  0.1000E+01  0.1000E+01
     -0.454 -0.1073E-41 -0.1174E-41  0.1000E+01  0.1000E+01
     -0.350 -0.4890E-26 -0.5248E-26  0.1000E+01  0.1000E+01
     -0.246 -0.3547E-14 -0.3732E-14  0.1000E+01  0.1000E+01
     -0.142 -0.3861E-06 -0.3983E-06  0.1000E+01  0.1000E+01
     -0.038 -0.3326E-02 -0.3348E-02  0.9997E+00  0.9997E+00
      0.066  0.1081E+00  0.1084E+00  0.1011E+01  0.1011E+01
      0.170  0.8029E-02  0.7806E-02  0.1012E+01  0.1012E+01
      0.274 -0.3440E-02 -0.3387E-02  0.1011E+01  0.1011E+01
      0.378  0.1578E+00  0.1578E+00  0.1028E+01  0.1028E+01
      0.482  0.3996E-02  0.4202E-02  0.1028E+01  0.1028E+01
      0.586  0.2205E+00  0.2202E+00  0.1051E+01  0.1051E+01
      0.690  0.1796E+00  0.1803E+00  0.1070E+01  0.1070E+01
      0.793  0.3846E-01  0.3785E-01  0.1074E+01  0.1074E+01
      0.897  0.1773E+00  0.1775E+00  0.1092E+01  0.1092E+01
      1.001  0.4473E-01  0.4453E-01  0.1097E+01  0.1097E+01
      1.105  0.3838E+00  0.3844E+00  0.1137E+01  0.1137E+01
      1.209  0.4009E+00  0.4011E+00  0.1178E+01  0.1178E+01
      1.313  0.2429E+00  0.2420E+00  0.1204E+01  0.1204E+01
      1.417  0.3850E-01  0.3885E-01  0.1208E+01  0.1208E+01
      1.521  0.3919E+00  0.3921E+00  0.1248E+01  0.1248E+01
      1.625  0.7280E+00  0.7282E+00  0.1324E+01  0.1324E+01
      1.729  0.3458E+00  0.3455E+00  0.1360E+01  0.1360E+01
      1.833  0.2672E+00  0.2668E+00  0.1388E+01  0.1388E+01
      1.937  0.2637E+00  0.2639E+00  0.1415E+01  0.1415E+01
      2.040  0.4471E+00  0.4472E+00  0.1462E+01  0.1462E+01
      2.144  0.3780E+00  0.3782E+00  0.1501E+01  0.1501E+01
      2.248  0.6577E+00  0.6579E+00  0.1569E+01  0.1569E+01
      2.352  0.3081E+00  0.3074E+00  0.1601E+01  0.1601E+01
      2.456  0.5005E+00  0.5005E+00  0.1653E+01  0.1653E+01
      2.560  0.1827E+00  0.1826E+00  0.1672E+01  0.1672E+01
      2.664  0.4939E+00  0.4946E+00  0.1724E+01  0.1724E+01
      2.768  0.2014E+00  0.2007E+00  0.1744E+01  0.1744E+01
      2.872  0.2072E+00  0.2073E+00  0.1766E+01  0.1766E+01
      2.976  0.4299E+00  0.4296E+00  0.1811E+01  0.1811E+01
      3.080  0.1623E+00  0.1625E+00  0.1828E+01  0.1828E+01
      3.184  0.3636E+00  0.3639E+00  0.1865E+01  0.1865E+01
      3.287  0.6310E+00  0.6310E+00  0.1931E+01  0.1931E+01
      3.391  0.8296E+00  0.8291E+00  0.2017E+01  0.2017E+01
      3.495  0.1602E+01  0.1603E+01  0.2184E+01  0.2184E+01
      3.599  0.2982E+01  0.2983E+01  0.2493E+01  0.2494E+01
      3.703  0.1418E+01  0.1417E+01  0.2641E+01  0.2641E+01
      3.807  0.1915E+01  0.1915E+01  0.2840E+01  0.2840E+01
      3.911  0.1593E+01  0.1595E+01  0.3005E+01  0.3006E+01
      4.015  0.1008E+01  0.1005E+01  0.3110E+01  0.3110E+01
      4.119  0.8696E+00  0.8717E+00  0.3200E+01  0.3201E+01
      4.223  0.9216E+00  0.9192E+00  0.3296E+01  0.3296E+01
      4.327  0.8941E+00  0.8952E+00  0.3389E+01  0.3389E+01
      4.431  0.7967E+00  0.7963E+00  0.3472E+01  0.3472E+01
      4.534  0.4894E+00  0.4886E+00  0.3523E+01  0.3523E+01
      4.638  0.4128E+00  0.4145E+00  0.3566E+01  0.3566E+01
      4.742  0.3754E-01  0.3637E-01  0.3570E+01  0.3570E+01
      4.846  0.3468E+00  0.3470E+00  0.3606E+01  0.3606E+01
      4.950  0.1945E+00  0.1944E+00  0.3626E+01  0.3626E+01
      5.054  0.3793E+00  0.3791E+00  0.3665E+01  0.3665E+01
      5.158  0.5280E+00  0.5279E+00  0.3720E+01  0.3720E+01
      5.262  0.5990E+00  0.5987E+00  0.3782E+01  0.3782E+01
      5.366  0.1942E+00  0.1943E+00  0.3802E+01  0.3802E+01
      5.470  0.4101E+00  0.4097E+00  0.3845E+01  0.3845E+01
      5.574  0.2195E+00  0.2203E+00  0.3868E+01  0.3868E+01
      5.678  0.2202E+00  0.2211E+00  0.3891E+01  0.3891E+01
      5.781  0.3554E-01  0.3486E-01  0.3894E+01  0.3894E+01
      5.885  0.6535E-01  0.6512E-01  0.3901E+01  0.3901E+01
      5.989  0.1673E+00  0.1675E+00  0.3919E+01  0.3919E+01
      6.093  0.1619E+00  0.1614E+00  0.3935E+01  0.3935E+01
      6.197  0.1739E+00  0.1745E+00  0.3954E+01  0.3954E+01
      6.301  0.1976E-01  0.1901E-01  0.3956E+01  0.3956E+01
      6.405  0.2784E+00  0.2794E+00  0.3985E+01  0.3985E+01
      6.509  0.3370E+00  0.3368E+00  0.4020E+01  0.4020E+01
      6.613  0.9705E-01  0.9658E-01  0.4030E+01  0.4030E+01
      6.717  0.1058E+00  0.1056E+00  0.4041E+01  0.4041E+01
      6.821  0.1628E+00  0.1645E+00  0.4058E+01  0.4058E+01
      6.925  0.8253E-01  0.8175E-01  0.4066E+01  0.4066E+01
      7.028  0.4058E-01  0.4019E-01  0.4070E+01  0.4070E+01
      7.132  0.3202E-01  0.3274E-01  0.4074E+01  0.4074E+01
      7.236  0.6715E+00  0.6711E+00  0.4143E+01  0.4143E+01
      7.340  0.5723E+00  0.5743E+00  0.4203E+01  0.4203E+01
      7.444  0.3055E+00  0.3031E+00  0.4235E+01  0.4235E+01
      7.548  0.9563E-01  0.9654E-01  0.4245E+01  0.4245E+01
      7.652  0.3389E+00  0.3400E+00  0.4280E+01  0.4280E+01
      7.756  0.1224E+00  0.1216E+00  0.4293E+01  0.4293E+01
      7.860  0.8088E-01  0.7977E-01  0.4301E+01  0.4301E+01
      7.964 -0.1700E-02 -0.1654E-02  0.4301E+01  0.4301E+01
      8.068  0.1545E-01  0.1641E-01  0.4302E+01  0.4302E+01
      8.172  0.2530E+00  0.2540E+00  0.4329E+01  0.4329E+01
      8.275  0.1152E+01  0.1156E+01  0.4448E+01  0.4449E+01
      8.379  0.6662E+00  0.6620E+00  0.4518E+01  0.4518E+01
      8.483  0.3233E+00  0.3231E+00  0.4551E+01  0.4551E+01
      8.587  0.1761E+00  0.1750E+00  0.4569E+01  0.4570E+01
      8.691  0.1500E+00  0.1522E+00  0.4585E+01  0.4585E+01
      8.795  0.2653E+00  0.2649E+00  0.4613E+01  0.4613E+01
      8.899  0.1600E+00  0.1582E+00  0.4629E+01  0.4629E+01
      9.003  0.1216E+00  0.1212E+00  0.4642E+01  0.4642E+01
      9.107  0.1865E+00  0.1898E+00  0.4661E+01  0.4662E+01
      9.211  0.3404E+00  0.3386E+00  0.4697E+01  0.4697E+01
      9.315  0.3310E+00  0.3343E+00  0.4731E+01  0.4732E+01
      9.419  0.1299E+01  0.1301E+01  0.4866E+01  0.4867E+01
      9.522  0.5814E+00  0.5753E+00  0.4926E+01  0.4926E+01
      9.626  0.3808E+00  0.3818E+00  0.4966E+01  0.4966E+01
      9.730  0.5481E-01  0.5440E-01  0.4972E+01  0.4972E+01
      9.834  0.2104E+00  0.2106E+00  0.4994E+01  0.4994E+01
      9.938  0.7874E+00  0.7912E+00  0.5075E+01  0.5076E+01
     10.042  0.3979E+00  0.3931E+00  0.5117E+01  0.5117E+01
     10.146  0.6582E+00  0.6647E+00  0.5185E+01  0.5186E+01
     10.250  0.6750E+00  0.6724E+00  0.5255E+01  0.5256E+01
     10.354  0.2114E+00  0.2073E+00  0.5277E+01  0.5277E+01
     10.458  0.3469E+00  0.3526E+00  0.5313E+01  0.5314E+01
     10.562  0.7293E+00  0.7296E+00  0.5389E+01  0.5390E+01
     10.666  0.1170E+01  0.1164E+01  0.5511E+01  0.5511E+01
     10.769  0.3760E+00  0.3797E+00  0.5550E+01  0.5550E+01
     10.873  0.5023E+00  0.5008E+00  0.5602E+01  0.5602E+01
     10.977  0.9902E+00  0.1005E+01  0.5705E+01  0.5707E+01
     11.081  0.1297E+01  0.1285E+01  0.5840E+01  0.5840E+01
     11.185  0.6939E+00  0.6900E+00  0.5912E+01  0.5912E+01
     11.289  0.5120E+00  0.5131E+00  0.5965E+01  0.5965E+01
     11.393  0.3737E+00  0.3742E+00  0.6004E+01  0.6004E+01
     11.497  0.1019E+01  0.1022E+01  0.6110E+01  0.6110E+01
     11.601  0.1359E+01  0.1361E+01  0.6251E+01  0.6252E+01
     11.705  0.8506E+00  0.8455E+00  0.6339E+01  0.6340E+01
     11.809  0.9007E+00  0.9065E+00  0.6433E+01  0.6434E+01
     11.913  0.9908E+00  0.9916E+00  0.6536E+01  0.6537E+01
     12.017  0.7749E+00  0.7675E+00  0.6616E+01  0.6617E+01
     12.120  0.1250E+01  0.1257E+01  0.6746E+01  0.6747E+01
     12.224  0.8203E+00  0.8204E+00  0.6832E+01  0.6833E+01
     12.328  0.5920E+00  0.5898E+00  0.6893E+01  0.6894E+01
     12.432  0.1625E+01  0.1633E+01  0.7062E+01  0.7064E+01
     12.536  0.1453E+01  0.1444E+01  0.7213E+01  0.7214E+01
     12.640  0.6283E+00  0.6226E+00  0.7278E+01  0.7278E+01
     12.744  0.2878E+00  0.2864E+00  0.7308E+01  0.7308E+01
     12.848 -0.7083E-02 -0.6849E-02  0.7307E+01  0.7307E+01
     12.952  0.4120E+00  0.4119E+00  0.7350E+01  0.7350E+01
     13.056  0.3140E+00  0.3147E+00  0.7383E+01  0.7383E+01
     13.160  0.5375E+00  0.5369E+00  0.7439E+01  0.7439E+01
     13.264  0.8878E-01  0.8848E-01  0.7448E+01  0.7448E+01
     13.367  0.2761E+00  0.2763E+00  0.7477E+01  0.7477E+01
     13.471  0.2913E+00  0.2915E+00  0.7507E+01  0.7507E+01
     13.575  0.4605E+00  0.4610E+00  0.7555E+01  0.7555E+01
     13.679  0.1362E+00  0.1356E+00  0.7569E+01  0.7569E+01
     13.783  0.4256E+00  0.4254E+00  0.7613E+01  0.7613E+01
     13.887  0.2259E+00  0.2252E+00  0.7637E+01  0.7636E+01
     13.991  0.1091E+00  0.1101E+00  0.7648E+01  0.7648E+01
     14.095  0.3206E+00  0.3197E+00  0.7681E+01  0.7681E+01
     14.199  0.1303E+00  0.1312E+00  0.7695E+01  0.7695E+01
     14.303  0.5390E+00  0.5395E+00  0.7751E+01  0.7751E+01
     14.407  0.7195E+00  0.7182E+00  0.7825E+01  0.7825E+01
     14.511  0.2222E+00  0.2225E+00  0.7849E+01  0.7849E+01
     14.614  0.2433E+00  0.2441E+00  0.7874E+01  0.7874E+01
     14.718  0.9170E-01  0.9062E-01  0.7883E+01  0.7883E+01
     14.822  0.4069E+00  0.4068E+00  0.7926E+01  0.7926E+01
     14.926  0.3422E+00  0.3421E+00  0.7961E+01  0.7961E+01
     15.030  0.2857E+00  0.2865E+00  0.7991E+01  0.7991E+01
     15.134  0.7092E+00  0.7110E+00  0.8065E+01  0.8065E+01
     15.238  0.4860E+00  0.4838E+00  0.8115E+01  0.8115E+01
     15.342  0.9608E+00  0.9607E+00  0.8215E+01  0.8215E+01
     15.446  0.3086E+00  0.3097E+00  0.8247E+01  0.8247E+01
     15.550  0.4744E+00  0.4739E+00  0.8296E+01  0.8296E+01
     15.654  0.5722E+00  0.5719E+00  0.8356E+01  0.8356E+01
     15.758  0.7206E+00  0.7187E+00  0.8431E+01  0.8430E+01
     15.861  0.6075E+00  0.6093E+00  0.8494E+01  0.8494E+01
     15.965  0.5631E+00  0.5615E+00  0.8552E+01  0.8552E+01
     16.069  0.4989E+00  0.5006E+00  0.8604E+01  0.8604E+01
     16.173  0.5836E+00  0.5827E+00  0.8665E+01  0.8665E+01
     16.277  0.6349E+00  0.6359E+00  0.8731E+01  0.8731E+01
     16.381  0.3086E+00  0.3099E+00  0.8763E+01  0.8763E+01
     16.485  0.4223E+00  0.4202E+00  0.8807E+01  0.8807E+01
     16.589  0.3108E+00  0.3120E+00  0.8839E+01  0.8839E+01
     16.693  0.4278E+00  0.4265E+00  0.8883E+01  0.8883E+01
     16.797  0.6027E+00  0.6011E+00  0.8946E+01  0.8946E+01
     16.901  0.2500E+00  0.2527E+00  0.8972E+01  0.8972E+01
     17.005  0.3406E+00  0.3410E+00  0.9007E+01  0.9008E+01
     17.108  0.5269E+00  0.5274E+00  0.9062E+01  0.9062E+01
     17.212  0.2217E+00  0.2200E+00  0.9085E+01  0.9085E+01
     17.316  0.6917E+00  0.6926E+00  0.9157E+01  0.9157E+01
     17.420  0.2903E-01  0.2870E-01  0.9160E+01  0.9160E+01
     17.524  0.7236E-02  0.7242E-02  0.9161E+01  0.9161E+01
     17.628  0.2198E+00  0.2199E+00  0.9184E+01  0.9184E+01
     17.732  0.3060E+00  0.3038E+00  0.9216E+01  0.9215E+01
     17.836  0.5205E+00  0.5193E+00  0.9270E+01  0.9269E+01
     17.940  0.7172E+00  0.7191E+00  0.9344E+01  0.9344E+01
     18.044  0.3039E+00  0.3065E+00  0.9376E+01  0.9376E+01
     18.148  0.1398E+00  0.1385E+00  0.9390E+01  0.9390E+01
     18.252  0.3214E+00  0.3186E+00  0.9424E+01  0.9423E+01
     18.355  0.7663E+00  0.7679E+00  0.9503E+01  0.9503E+01
     18.459  0.4818E+00  0.4803E+00  0.9553E+01  0.9553E+01
     18.563  0.4508E+00  0.4543E+00  0.9600E+01  0.9600E+01
     18.667  0.3577E+00  0.3568E+00  0.9637E+01  0.9637E+01
     18.771  0.4837E-01  0.4795E-01  0.9642E+01  0.9642E+01
     18.875  0.7651E+00  0.7655E+00  0.9722E+01  0.9722E+01
     18.979  0.5164E+00  0.5166E+00  0.9776E+01  0.9776E+01
     19.083  0.6679E+00  0.6694E+00  0.9845E+01  0.9845E+01
     19.187  0.3428E+00  0.3412E+00  0.9881E+01  0.9881E+01
     19.291  0.1743E+00  0.1743E+00  0.9899E+01  0.9899E+01
     19.395  0.5684E-01  0.5620E-01  0.9905E+01  0.9905E+01
     19.499  0.2176E+00  0.2221E+00  0.9927E+01  0.9928E+01
     19.602  0.6283E-01  0.5895E-01  0.9934E+01  0.9934E+01
     19.706  0.1459E+00  0.1454E+00  0.9949E+01  0.9949E+01
     19.810  0.9858E-01  0.9911E-01  0.9959E+01  0.9959E+01
     19.914  0.4447E+00  0.4451E+00  0.1001E+02  0.1001E+02
     20.018  0.2085E+00  0.2079E+00  0.1003E+02  0.1003E+02
     20.122  0.3919E+00  0.3967E+00  0.1007E+02  0.1007E+02
     20.226  0.6030E+00  0.5980E+00  0.1013E+02  0.1013E+02
     20.330  0.1030E+00  0.1034E+00  0.1014E+02  0.1014E+02
     20.434  0.7446E+00  0.7478E+00  0.1022E+02  0.1022E+02
     20.538  0.7359E+00  0.7338E+00  0.1030E+02  0.1030E+02
     20.642  0.2106E+00  0.2117E+00  0.1032E+02  0.1032E+02
     20.746  0.1934E+01  0.1939E+01  0.1052E+02  0.1052E+02
     20.849  0.8067E+01  0.8109E+01  0.1136E+02  0.1136E+02
     20.953  0.9651E+00  0.9589E+00  0.1146E+02  0.1146E+02
     21.057  0.9802E+00  0.9790E+00  0.1156E+02  0.1156E+02
     21.161  0.1046E+01  0.1047E+01  0.1167E+02  0.1167E+02
     21.265  0.6050E+00  0.5923E+00  0.1173E+02  0.1173E+02
     21.369  0.3577E+00  0.3267E+00  0.1177E+02  0.1177E+02
     21.473  0.5194E-01  0.5255E-01  0.1177E+02  0.1177E+02
     21.577  0.3850E+00  0.4110E+00  0.1181E+02  0.1182E+02
     21.681  0.4161E+00  0.3929E+00  0.1186E+02  0.1186E+02
     21.785  0.3739E+00  0.3742E+00  0.1189E+02  0.1189E+02
     21.889  0.3633E+00  0.3619E+00  0.1193E+02  0.1193E+02
     21.993  0.3164E+00  0.3157E+00  0.1197E+02  0.1197E+02
     22.097  0.2713E-01  0.3045E-01  0.1197E+02  0.1197E+02
     22.200  0.2030E+00  0.2000E+00  0.1199E+02  0.1199E+02
     22.304  0.1088E+00  0.1076E+00  0.1200E+02  0.1200E+02
     22.408 -0.3853E-02 -0.3733E-02  0.1200E+02  0.1200E+02
     22.512 -0.9403E-06 -0.7338E-06  0.1200E+02  0.1200E+02
     22.616 -0.1542E-13 -0.1019E-13  0.1200E+02  0.1200E+02
     22.720  0.0000E+00  0.0000E+00  0.1200E+02  0.1200E+02
     22.824  0.0000E+00  0.0000E+00  0.1200E+02  0.1200E+02
     22.928  0.0000E+00  0.0000E+00  0.1200E+02  0.1200E+02
     23.032  0.0000E+00  0.0000E+00  0.1200E+02  0.1200E+02
     23.136  0.0000E+00  0.0000E+00  0.1200E+02  0.1200E+02
     23.240  0.0000E+00  0.0000E+00  0.1200E+02  0.1200E+02
     23.344  0.0000E+00  0.0000E+00  0.1200E+02  0.1200E+02
     23.447  0.0000E+00  0.0000E+00  0.1200E+02  0.1200E+02
     23.551  0.0000E+00  0.0000E+00  0.1200E+02  0.1200E+02
     23.655  0.0000E+00  0.0000E+00  0.1200E+02  0.1200E+02
     23.65526956     -7.51998196  301      8.33167623      1.00000000
     -7.520  0.0000E+00  0.0000E+00  0.0000E+00  0.0000E+00  0.0000E+00  0.0000E+00  0.0000E+00  0.0000E+00  0.0000E+00  0.0000E+00  0.0000E+00  0.0000E+00  0.0000E+00  0.0000E+00  0.0000E+00  0.0000E+00  0.0000E+00  0.0000E+00
     -7.416  0.0000E+00  0.0000E+00  0.0000E+00  0.0000E+00  0.0000E+00  0.0000E+00  0.0000E+00  0.0000E+00  0.0000E+00  0.0000E+00  0.0000E+00  0.0000E+00  0.0000E+00  0.0000E+00  0.0000E+00  0.0000E+00  0.0000E+00  0.0000E+00
     -7.312  0.0000E+00  0.0000E+00  0.0000E+00  0.0000E+00  0.0000E+00  0.0000E+00  0.0000E+00  0.0000E+00  0.0000E+00  0.0000E+00  0.0000E+00  0.0000E+00  0.0000E+00  0.0000E+00  0.0000E+00  0.0000E+00  0.0000E+00  0.0000E+00
     -7.208  0.0000E+00  0.0000E+00  0.0000E+00  0.0000E+00  0.0000E+00  0.0000E+00  0.0000E+00  0.0000E+00  0.0000E+00  0.0000E+00  0.0000E+00  0.0000E+00  0.0000E+00  0.0000E+00  0.0000E+00  0.0000E+00  0.0000E+00  0.0000E+00
     -7.104  0.0000E+00  0.0000E+00  0.0000E+00  0.0000E+00  0.0000E+00  0.0000E+00  0.0000E+00  0.0000E+00  0.0000E+00  0.0000E+00  0.0000E+00  0.0000E+00  0.0000E+00  0.0000E+00  0.0000E+00  0.0000E+00  0.0000E+00  0.0000E+00
     -7.000  0.0000E+00  0.0000E+00  0.0000E+00  0.0000E+00  0.0000E+00  0.0000E+00  0.0000E+00  0.0000E+00  0.0000E+00  0.0000E+00  0.0000E+00  0.0000E+00  0.0000E+00  0.0000E+00  0.0000E+00  0.0000E+00  0.0000E+00  0.0000E+00
     -6.896  0.0000E+00  0.0000E+00  0.0000E+00  0.0000E+00  0.0000E+00  0.0000E+00  0.0000E+00  0.0000E+00  0.0000E+00  0.0000E+00  0.0000E+00  0.0000E+00  0.0000E+00  0.0000E+00  0.0000E+00  0.0000E+00  0.0000E+00  0.0000E+00
     -6.793  0.0000E+00  0.0000E+00  0.0000E+00  0.0000E+00  0.0000E+00  0.0000E+00  0.0000E+00  0.0000E+00  0.0000E+00  0.0000E+00  0.0000E+00  0.0000E+00  0.0000E+00  0.0000E+00  0.0000E+00  0.0000E+00  0.0000E+00  0.0000E+00
     -6.689  0.0000E+00  0.0000E+00  0.0000E+00  0.0000E+00  0.0000E+00  0.0000E+00  0.0000E+00  0.0000E+00  0.0000E+00  0.0000E+00  0.0000E+00  0.0000E+00  0.0000E+00  0.0000E+00  0.0000E+00  0.0000E+00  0.0000E+00  0.0000E+00
     -6.585 -0.1523E-41 -0.1382E-41 -0.1128E-44 -0.1024E-44 -0.1128E-44 -0.1024E-44 -0.1128E-44 -0.1024E-44  0.0000E+00  0.0000E+00  0.0000E+00  0.0000E+00  0.0000E+00  0.0000E+00  0.0000E+00  0.0000E+00  0.0000E+00  0.0000E+00
     -6.481 -0.3947E-26 -0.3659E-26 -0.2925E-29 -0.2712E-29 -0.2925E-29 -0.2712E-29 -0.2925E-29 -0.2712E-29  0.0000E+00  0.0000E+00  0.0000E+00  0.0000E+00  0.0000E+00  0.0000E+00  0.0000E+00  0.0000E+00  0.0000E+00  0.0000E+00
     -6.377 -0.1620E-14 -0.1534E-14 -0.1200E-17 -0.1137E-17 -0.1200E-17 -0.1137E-17 -0.1200E-17 -0.1137E-17  0.0000E+00  0.0000E+00  0.0000E+00  0.0000E+00  0.0000E+00  0.0000E+00  0.0000E+00  0.0000E+00  0.0000E+00  0.0000E+00
     -6.273 -0.9876E-07 -0.9558E-07 -0.7319E-10 -0.7085E-10 -0.7319E-10 -0.7085E-10 -0.7319E-10 -0.7085E-10  0.0000E+00  0.0000E+00  0.0000E+00  0.0000E+00  0.0000E+00  0.0000E+00  0.0000E+00  0.0000E+00  0.0000E+00  0.0000E+00
     -6.169 -0.4046E-03 -0.4031E-03 -0.2999E-06 -0.2988E-06 -0.2999E-06 -0.2988E-06 -0.2999E-06 -0.2988E-06  0.0000E+00  0.0000E+00  0.0000E+00  0.0000E+00  0.0000E+00  0.0000E+00  0.0000E+00  0.0000E+00  0.0000E+00  0.0000E+00
     -6.065  0.1199E-01  0.1197E-01  0.8883E-05  0.8870E-05  0.8883E-05  0.8870E-05  0.8883E-05  0.8870E-05  0.0000E+00  0.0000E+00  0.0000E+00  0.0000E+00  0.0000E+00  0.0000E+00  0.0000E+00  0.0000E+00  0.0000E+00  0.0000E+00
     -5.961  0.2185E-03  0.2375E-03  0.1603E-06  0.1745E-06  0.1603E-06  0.1745E-06 -0.7317E-07 -0.5354E-07  0.0000E+00  0.0000E+00  0.0000E+00  0.0000E+00  0.0000E+00  0.0000E+00  0.0000E+00  0.0000E+00  0.0000E+00  0.0000E+00
     -5.857  0.6942E-02  0.6815E-02  0.5391E-05  0.5294E-05  0.5391E-05  0.5294E-05  0.4024E-04  0.3951E-04  0.0000E+00  0.0000E+00  0.0000E+00  0.0000E+00  0.0000E+00  0.0000E+00  0.0000E+00  0.0000E+00  0.0000E+00  0.0000E+00
     -5.753  0.2976E-01  0.2989E-01  0.2311E-04  0.2321E-04  0.2311E-04  0.2321E-04  0.1724E-03  0.1732E-03  0.0000E+00  0.0000E+00  0.0000E+00  0.0000E+00  0.0000E+00  0.0000E+00  0.0000E+00  0.0000E+00  0.0000E+00  0.0000E+00
     -5.649 -0.1746E-02 -0.1745E-02 -0.6933E-05 -0.6885E-05 -0.6933E-05 -0.6885E-05 -0.4890E-05 -0.4934E-05  0.0000E+00  0.0000E+00  0.0000E+00  0.0000E+00  0.0000E+00  0.0000E+00  0.0000E+00  0.0000E+00  0.0000E+00  0.0000E+00
     -5.546  0.3460E-01  0.3449E-01  0.2106E-03  0.2100E-03  0.2106E-03  0.2100E-03  0.2829E-04  0.2821E-04  0.0000E+00  0.0000E+00  0.0000E+00  0.0000E+00  0.0000E+00  0.0000E+00  0.0000E+00  0.0000E+00  0.0000E+00  0.0000E+00
     -5.442  0.2181E-02  0.2284E-02  0.1651E-04  0.1709E-04  0.9940E-05  0.1062E-04  0.1682E-05  0.1769E-05  0.0000E+00  0.0000E+00  0.0000E+00  0.0000E+00  0.0000E+00  0.0000E+00  0.0000E+00  0.0000E+00  0.0000E+00  0.0000E+00
     -5.338  0.3146E-01  0.3123E-01  0.3987E-04  0.3942E-04  0.3488E-03  0.3466E-03  0.3997E-04  0.3952E-04  0.0000E+00  0.0000E+00  0.0000E+00  0.0000E+00  0.0000E+00  0.0000E+00  0.0000E+00  0.0000E+00  0.0000E+00  0.0000E+00
     -5.234  0.1872E-01  0.1893E-01  0.7124E-04  0.7173E-04  0.1648E-03  0.1671E-03  0.7105E-04  0.7154E-04  0.0000E+00  0.0000E+00  0.0000E+00  0.0000E+00  0.0000E+00  0.0000E+00  0.0000E+00  0.0000E+00  0.0000E+00  0.0000E+00
     -5.130  0.5183E-02  0.4970E-02  0.3411E-04  0.3275E-04  0.2623E-05  0.2400E-05  0.6473E-04  0.6221E-04  0.0000E+00  0.0000E+00  0.0000E+00  0.0000E+00  0.0000E+00  0.0000E+00  0.0000E+00  0.0000E+00  0.0000E+00  0.0000E+00
     -5.026  0.7157E-01  0.7179E-01  0.4659E-03  0.4674E-03  0.6297E-04  0.6318E-04  0.8661E-03  0.8690E-03  0.0000E+00  0.0000E+00  0.0000E+00  0.0000E+00  0.0000E+00  0.0000E+00  0.0000E+00  0.0000E+00  0.0000E+00  0.0000E+00
     -4.922 -0.3289E-02 -0.3298E-02 -0.2187E-04 -0.2193E-04 -0.9539E-05 -0.9483E-05 -0.4059E-04 -0.4070E-04  0.0000E+00  0.0000E+00  0.0000E+00  0.0000E+00  0.0000E+00  0.0000E+00  0.0000E+00  0.0000E+00  0.0000E+00  0.0000E+00
     -4.818  0.3475E-01  0.3460E-01  0.2481E-03  0.2473E-03  0.2360E-03  0.2349E-03  0.4600E-03  0.4585E-03  0.0000E+00  0.0000E+00  0.0000E+00  0.0000E+00  0.0000E+00  0.0000E+00  0.0000E+00  0.0000E+00  0.0000E+00  0.0000E+00
     -4.714  0.4353E-01  0.4364E-01  0.4405E-04  0.4499E-04  0.4814E-03  0.4824E-03  0.7105E-04  0.7251E-04  0.0000E+00  0.0000E+00  0.0000E+00  0.0000E+00  0.0000E+00  0.0000E+00  0.0000E+00  0.0000E+00  0.0000E+00  0.0000E+00
     -4.610  0.3124E-01  0.3110E-01  0.4238E-03  0.4218E-03  0.4072E-03  0.4055E-03  0.2994E-04  0.2981E-04  0.0000E+00  0.0000E+00  0.0000E+00  0.0000E+00  0.0000E+00  0.0000E+00  0.0000E+00  0.0000E+00  0.0000E+00  0.0000E+00
     -4.506  0.6035E-01  0.6002E-01  0.4370E-03  0.4360E-03  0.7278E-03  0.7242E-03  0.5445E-04  0.5419E-04  0.0000E+00  0.0000E+00  0.0000E+00  0.0000E+00  0.0000E+00  0.0000E+00  0.0000E+00  0.0000E+00  0.0000E+00  0.0000E+00
     -4.402  0.3744E-01  0.3769E-01  0.3326E-03  0.3328E-03  0.4705E-03  0.4733E-03  0.1118E-03  0.1106E-03  0.0000E+00  0.0000E+00  0.0000E+00  0.0000E+00  0.0000E+00  0.0000E+00  0.0000E+00  0.0000E+00  0.0000E+00  0.0000E+00
     -4.299  0.3297E-01  0.3292E-01  0.4173E-03  0.4192E-03  0.4471E-03  0.4477E-03  0.2457E-03  0.2462E-03  0.0000E+00  0.0000E+00  0.0000E+00  0.0000E+00  0.0000E+00  0.0000E+00  0.0000E+00  0.0000E+00  0.0000E+00  0.0000E+00
     -4.195  0.7824E-01  0.7851E-01  0.2796E-03  0.2809E-03  0.6557E-03  0.6584E-03  0.2828E-03  0.2842E-03  0.0000E+00  0.0000E+00  0.0000E+00  0.0000E+00  0.0000E+00  0.0000E+00  0.0000E+00  0.0000E+00  0.0000E+00  0.0000E+00
     -4.091  0.3204E-02  0.2819E-02  0.1082E-03  0.1037E-03 -0.2249E-04 -0.2291E-04  0.1177E-03  0.1131E-03  0.0000E+00  0.0000E+00  0.0000E+00  0.0000E+00  0.0000E+00  0.0000E+00  0.0000E+00  0.0000E+00  0.0000E+00  0.0000E+00
     -3.987  0.2728E+00  0.2723E+00  0.1486E-02  0.1489E-02  0.5007E-03  0.4991E-03  0.1042E-02  0.1046E-02  0.0000E+00  0.0000E+00  0.0000E+00  0.0000E+00  0.0000E+00  0.0000E+00  0.0000E+00  0.0000E+00  0.0000E+00  0.0000E+00
     -3.883  0.3764E-01  0.3821E-01  0.1912E-03  0.1921E-03  0.2131E-03  0.2148E-03  0.1630E-03  0.1629E-03  0.0000E+00  0.0000E+00  0.0000E+00  0.0000E+00  0.0000E+00  0.0000E+00  0.0000E+00  0.0000E+00  0.0000E+00  0.0000E+00
     -3.779  0.3173E+00  0.3159E+00  0.2045E-02  0.2038E-02  0.8542E-03  0.8518E-03  0.1384E-02  0.1381E-02  0.0000E+00  0.0000E+00  0.0000E+00  0.0000E+00  0.0000E+00  0.0000E+00  0.0000E+00  0.0000E+00  0.0000E+00  0.0000E+00
     -3.675  0.8962E-01  0.9113E-01  0.3544E-03  0.3625E-03  0.1110E-03  0.1141E-03  0.1279E-03  0.1307E-03  0.0000E+00  0.0000E+00  0.0000E+00  0.0000E+00  0.0000E+00  0.0000E+00  0.0000E+00  0.0000E+00  0.0000E+00  0.0000E+00
     -3.571  0.1618E+00  0.1605E+00  0.1062E-02  0.1053E-02  0.3396E-03  0.3361E-03  0.3596E-03  0.3569E-03  0.0000E+00  0.0000E+00  0.0000E+00  0.0000E+00  0.0000E+00  0.0000E+00  0.0000E+00  0.0000E+00  0.0000E+00  0.0000E+00
     -3.467  0.2140E+00  0.2150E+00  0.1252E-02  0.1260E-02  0.6023E-03  0.6060E-03  0.2666E-03  0.2701E-03  0.0000E+00  0.0000E+00  0.0000E+00  0.0000E+00  0.0000E+00  0.0000E+00  0.0000E+00  0.0000E+00  0.0000E+00  0.0000E+00
     -3.363  0.2680E+00  0.2667E+00  0.2118E-02  0.2106E-02  0.8687E-03  0.8630E-03  0.9567E-03  0.9482E-03  0.0000E+00  0.0000E+00  0.0000E+00  0.0000E+00  0.0000E+00  0.0000E+00  0.0000E+00  0.0000E+00  0.0000E+00  0.0000E+00
     -3.259  0.2705E+00  0.2707E+00  0.1586E-02  0.1596E-02  0.8523E-03  0.8563E-03  0.1029E-02  0.1035E-02  0.0000E+00  0.0000E+00  0.0000E+00  0.0000E+00  0.0000E+00  0.0000E+00  0.0000E+00  0.0000E+00  0.0000E+00  0.0000E+00
     -3.155  0.2098E+00  0.2098E+00  0.9738E-03  0.9734E-03  0.6205E-04  0.6362E-04  0.6550E-03  0.6552E-03  0.0000E+00  0.0000E+00  0.0000E+00  0.0000E+00  0.0000E+00  0.0000E+00  0.0000E+00  0.0000E+00  0.0000E+00  0.0000E+00
     -3.052  0.3119E+00  0.3127E+00  0.1037E-02  0.1041E-02  0.3785E-03  0.3783E-03  0.4183E-03  0.4216E-03  0.0000E+00  0.0000E+00  0.0000E+00  0.0000E+00  0.0000E+00  0.0000E+00  0.0000E+00  0.0000E+00  0.0000E+00  0.0000E+00
     -2.948  0.2180E+00  0.2173E+00  0.6954E-03  0.6911E-03  0.2989E-03  0.2966E-03  0.4326E-03  0.4261E-03  0.0000E+00  0.0000E+00  0.0000E+00  0.0000E+00  0.0000E+00  0.0000E+00  0.0000E+00  0.0000E+00  0.0000E+00  0.0000E+00
     -2.844  0.3309E+00  0.3304E+00  0.1820E-02  0.1819E-02  0.1449E-02  0.1446E-02  0.1501E-02  0.1502E-02  0.0000E+00  0.0000E+00  0.0000E+00  0.0000E+00  0.0000E+00  0.0000E+00  0.0000E+00  0.0000E+00  0.0000E+00  0.0000E+00
     -2.740  0.1997E+00  0.2012E+00  0.6875E-03  0.6962E-03  0.4306E-03  0.4368E-03  0.4894E-03  0.4953E-03  0.0000E+00  0.0000E+00  0.0000E+00  0.0000E+00  0.0000E+00  0.0000E+00  0.0000E+00  0.0000E+00  0.0000E+00  0.0000E+00
     -2.636  0.9903E-01  0.9914E-01  0.4920E-05  0.4571E-05  0.1908E-03  0.1917E-03  0.1810E-03  0.1802E-03  0.0000E+00  0.0000E+00  0.0000E+00  0.0000E+00  0.0000E+00  0.0000E+00  0.0000E+00  0.0000E+00  0.0000E+00  0.0000E+00
     -2.532  0.3818E-01  0.3814E-01  0.4825E-05  0.3276E-05 -0.2596E-05 -0.4672E-05  0.1745E-03  0.1750E-03  0.0000E+00  0.0000E+00  0.0000E+00  0.0000E+00  0.0000E+00  0.0000E+00  0.0000E+00  0.0000E+00  0.0000E+00  0.0000E+00
     -2.428  0.2088E+00  0.2090E+00  0.9378E-03  0.9397E-03  0.1156E-02  0.1158E-02  0.6762E-03  0.6771E-03  0.0000E+00  0.0000E+00  0.0000E+00  0.0000E+00  0.0000E+00  0.0000E+00  0.0000E+00  0.0000E+00  0.0000E+00  0.0000E+00
     -2.324  0.8997E-02  0.8950E-02  0.1601E-03  0.1603E-03  0.1526E-03  0.1529E-03  0.1657E-03  0.1655E-03  0.0000E+00  0.0000E+00  0.0000E+00  0.0000E+00  0.0000E+00  0.0000E+00  0.0000E+00  0.0000E+00  0.0000E+00  0.0000E+00