    2    2    1    2
  0.1120183E+02  0.3164303E-09  0.3164303E-09  0.3164303E-09  0.5000000E-15
  1.000000000000000E-004
  CAR 
 unknown system                          
    9   60   12
 
  0.6250000E-01  0.6250000E-01  0.6250000E-01  0.3906250E-02
   1       -6.102925     -6.102672
   2        6.586472      6.586065
   3        6.927132      6.926815
   4        6.927132      6.926815
   5        7.667297      7.667060
   6        7.667297      7.667060
   7        8.394594      8.394693
   8        9.956905      9.956923
   9        9.956905      9.956923
  10       15.152841     15.152757
  11       18.814087     18.812042
  12       20.798444     20.798089
 
  0.1875000E+00  0.6250000E-01  0.6250000E-01  0.1171875E-01
   1       -5.575891     -5.575604
   2        5.040095      5.040054
   3        5.501939      5.502045
   4        5.665389      5.665142
   5        7.643254      7.642418
   6        8.554611      8.554001
   7        9.199340      9.199161
   8       11.054318     11.054362
   9       12.586358     12.586596
  10       16.148542     16.148508
  11       20.103001     20.101004
  12       20.798519     20.798166
 
  0.3125000E+00  0.6250000E-01  0.6250000E-01  0.1171875E-01
   1       -4.390246     -4.389880
   2        2.853427      2.853384
   3        4.079033      4.079076
   4        4.380307      4.380249
   5        8.779414      8.778527
   6        9.354033      9.353392
   7       10.123383     10.122628
   8       13.752637     13.752867
   9       15.470097     15.470523
  10       17.111417     17.111194
  11       20.790760     20.790446
  12       21.537761     21.536382
 
  0.4375000E+00  0.6250000E-01  0.6250000E-01  0.1171875E-01
   1       -2.871074     -2.870569
   2        0.896195      0.896112
   3        3.296167      3.296187
   4        3.461226      3.461230
   5       10.266719     10.265710
   6       10.464491     10.463613
   7       11.396320     11.395356
   8       15.460491     15.459885
   9       16.496132     16.496512
  10       17.809798     17.810452
  11       20.788133     20.787841
  12       21.857404     21.857635
 
 -0.4375000E+00  0.6250000E-01  0.6250000E-01  0.1171875E-01
   1       -2.093551     -2.092865
   2        0.034952      0.034721
   3        3.140345      3.140365
   4        3.188957      3.188972
   5       10.775949     10.774916
   6       11.174977     11.173866
   7       12.007379     12.006429
   8       14.305630     14.304900
   9       17.844785     17.845406
  10       18.200013     18.200697
  11       20.778720     20.778209
  12       20.915796     20.915680
 
 -0.3125000E+00  0.6250000E-01  0.6250000E-01  0.1171875E-01
   1       -3.395479     -3.395033
   2        1.509785      1.509726
   3        3.488056      3.488063
   4        3.751236      3.751256
   5        9.392740      9.391895
   6       10.523687     10.522712
   7       10.877043     10.876185
   8       15.709453     15.709841
   9       16.052525     16.052143
  10       17.278363     17.278720
  11       20.785928     20.785648
  12       21.785167     21.784717
 
 -0.1875000E+00  0.6250000E-01  0.6250000E-01  0.1171875E-01
   1       -4.848651     -4.848315
   2        3.501313      3.501281
   3        4.533487      4.533424
   4        4.921568      4.921587
   5        8.089410      8.088667
   6        9.193650      9.192874
   7        9.751150      9.750579
   8       12.970596     12.970791
   9       14.263634     14.263934
  10       17.097158     17.097097
  11       20.794604     20.794268
  12       21.298852     21.297082
 
 -0.6250000E-01  0.6250000E-01  0.6250000E-01  0.1171875E-01
   1       -5.837471     -5.837201
   2        5.558623      5.558706
   3        6.143406      6.143117
   4        6.375945      6.375790
   5        7.195935      7.195211
   6        8.488510      8.488097
   7        9.032839      9.032714
   8       10.187685     10.187697
   9       11.598202     11.598339
  10       15.750759     15.750723
  11       19.502662     19.500641
  12       20.798741     20.798388
 
  0.1875000E+00  0.1875000E+00  0.6250000E-01  0.1171875E-01
   1       -5.354370     -5.354064
   2        4.070118      4.070203
   3        5.639579      5.639204
   4        6.026619      6.026573
   5        6.817310      6.816716
   6        9.256998      9.256523
   7       10.025659     10.025339
   8       10.698616     10.698535
   9       12.906443     12.906572
  10       17.004327     17.004404
  11       20.725988     20.724005
  12       20.798654     20.798298
 
  0.3125000E+00  0.1875000E+00  0.6250000E-01  0.2343750E-01
   1       -4.517037     -4.516663
   2        2.771711      2.771733
   3        4.614407      4.614085
   4        5.075078      5.075119
   5        7.347528      7.346969
   6       10.133663     10.133007
   7       10.939933     10.939385
   8       12.051211     12.051083
   9       14.724689     14.724892
  10       18.366731     18.366843
  11       20.794967     20.794639
  12       22.121076     22.119499
 
  0.4375000E+00  0.1875000E+00  0.6250000E-01  0.2343750E-01
   1       -3.359925     -3.359444
   2        1.564327      1.564235
   3        3.595519      3.595452
   4        4.138618      4.138648
   5        8.443403      8.442737
   6       11.099100     11.098151
   7       11.767091     11.766127
   8       14.291627     14.291793
   9       16.056156     16.056050
  10       18.456429     18.456669
  11       20.741142     20.741122
  12       21.047848     21.047506
 
 -0.4375000E+00  0.1875000E+00  0.6250000E-01  0.2343750E-01
   1       -2.484288     -2.483673
   2        0.669527      0.669315
   3        3.342769      3.342785
   4        3.540070      3.540131
   5        9.941533      9.940677
   6       11.013912     11.012860
   7       11.923988     11.922982
   8       15.576815     15.576427
   9       16.775445     16.775825
  10       17.725948     17.726140
  11       20.744829     20.744843
  12       20.995272     20.995163
 
 -0.3125000E+00  0.1875000E+00  0.6250000E-01  0.2343750E-01
   1       -2.884323     -2.883779
   2        1.068427      1.068294
   3        3.421832      3.421862
   4        3.671763      3.671717
   5        9.579444      9.578604
   6       10.967739     10.966830
   7       11.676766     11.675814
   8       14.778501     14.778678
   9       16.381365     16.380946
  10       18.322776     18.323359
  11       20.780809     20.780560
  12       21.524977     21.524954
 
 -0.1875000E+00  0.1875000E+00  0.6250000E-01  0.2343750E-01
   1       -4.065304     -4.064896
   2        2.398414      2.398413
   3        4.006547      4.006569
   4        4.271973      4.271744
   5        8.354424      8.353643
   6       10.495722     10.495170
   7       11.030618     11.029925
   8       12.548375     12.548287
   9       16.192580     16.192868
  10       17.878133     17.878162
  11       20.790860     20.790554
  12       21.947939     21.946885
 
 -0.6250000E-01  0.1875000E+00  0.6250000E-01  0.2343750E-01
   1       -5.099053     -5.098732
   2        3.848314      3.848362
   3        4.972247      4.972089
   4        5.245322      5.245231
   5        7.596897      7.596162
   6        9.304845      9.304193
   7        9.937401      9.937052
   8       11.536303     11.536299
   9       13.888579     13.888847
  10       17.078789     17.078806
  11       20.797455     20.797110
  12       21.114271     21.112335
 
  0.3125000E+00  0.3125000E+00  0.6250000E-01  0.1171875E-01
   1       -4.259384     -4.258973
   2        2.393601      2.393621
   3        4.800204      4.799475
   4        5.921859      5.922028
   5        6.382969      6.382911
   6       10.362534     10.362172
   7       11.936749     11.935999
   8       12.134149     12.133536
   9       14.576584     14.576720
  10       19.720054     19.720371
  11       20.789636     20.789340
  12       21.775204     21.774631
 
  0.4375000E+00  0.3125000E+00  0.6250000E-01  0.2343750E-01
   1       -3.785181     -3.784729
   2        2.363226      2.363233
   3        4.074164      4.073622
   4        5.242056      5.242280
   5        7.153658      7.153522
   6       11.419748     11.419152
   7       12.339210     12.338200
   8       12.681727     12.681171
   9       15.773874     15.774107
  10       18.906536     18.906506
  11       20.146131     20.145958
  12       20.810654     20.810233
 
 -0.4375000E+00  0.3125000E+00  0.6250000E-01  0.2343750E-01
   1       -3.250054     -3.249555
   2        2.161720      2.161568
   3        3.566288      3.566216
   4        4.427045      4.427195
   5        8.220301      8.219840
   6       11.517470     11.516369
   7       12.241354     12.240240
   8       14.405873     14.406023
   9       15.769853     15.770014
  10       18.563796     18.563546
  11       20.086986     20.086920
  12       20.812224     20.811800
 
 -0.3125000E+00  0.3125000E+00  0.6250000E-01  0.2343750E-01
   1       -2.879814     -2.879256
   2        1.553060      1.552911
   3        3.517575      3.517465
   4        3.840082      3.840209
   5        9.869597      9.868796
   6       10.430205     10.429237
   7       12.062889     12.062112
   8       14.067979     14.068009
   9       16.791458     16.791829
  10       19.105415     19.104923
  11       20.765968     20.765805
  12       21.054942     21.054382
 
 -0.1875000E+00  0.3125000E+00  0.6250000E-01  0.2343750E-01
   1       -3.110127     -3.109602
   2        1.437599      1.437507
   3        3.596197      3.596227
   4        3.727133      3.726974
   5        9.341996      9.341137
   6       11.275089     11.274310
   7       11.624185     11.623411
   8       13.285057     13.285062
   9       16.987903     16.987729
  10       18.466126     18.466596
  11       20.781727     20.781474
  12       21.601511     21.592918
 
 -0.6250000E-01  0.3125000E+00  0.6250000E-01  0.2343750E-01
   1       -3.828854     -3.828435
   2        2.058222      2.058177
   3        3.739490      3.739475
   4        4.155622      4.155589
   5        8.682128      8.681357
   6       10.210115     10.209332
   7       10.989669     10.988800
   8       14.094483     14.094682
   9       16.205199     16.205343
  10       17.560181     17.560179
  11       20.786537     20.786252
  12       21.687466     21.686776
 
  0.4375000E+00  0.4375000E+00  0.6250000E-01  0.1171875E-01
   1       -3.995504     -3.995079
   2        3.157394      3.157532
   3        4.132244      4.131342
   4        6.315927      6.316338
   5        6.629634      6.629985
   6       11.143385     11.143111
   7       12.522256     12.521040
   8       12.537095     12.535933
   9       15.969095     15.969503
  10       16.763334     16.762957
  11       20.639150     20.638775
  12       20.807576     20.807170
 
 -0.4375000E+00  0.4375000E+00  0.6250000E-01  0.2343750E-01
   1       -3.848800     -3.848369
   2        3.603715      3.603663
   3        3.784724      3.784284
   4        5.447425      5.447744
   5        7.303651      7.303818
   6       12.103841     12.102875
   7       12.308336     12.307918
   8       12.490560     12.489319
   9       15.313589     15.313524
  10       17.263448     17.263641
  11       20.447760     20.447150
  12       20.805413     20.805022
 
 -0.3125000E+00  0.4375000E+00  0.6250000E-01  0.2343750E-01
   1       -3.347564     -3.347078
   2        2.628611      2.628405
   3        3.588104      3.588111
   4        4.520185      4.520350
   5        8.156346      8.155906
   6       11.436425     11.435328
   7       12.378080     12.377014
   8       14.356317     14.356352
   9       14.922745     14.922893
  10       18.967481     18.967594
  11       20.486896     20.486278
  12       20.810016     20.809600
 
 -0.1875000E+00  0.4375000E+00  0.6250000E-01  0.2343750E-01
   1       -2.708954     -2.708373
   2        1.155530      1.155341
   3        3.462993      3.462962
   4        3.723214      3.723316
   5        9.897993      9.897191
   6       10.623826     10.622847
   7       11.869410     11.868449
   8       15.305302     15.305438
   9       16.645544     16.645817
  10       18.018711     18.018237
  11       20.754174     20.754133
  12       21.057978     21.057959
 
 -0.6250000E-01  0.4375000E+00  0.6250000E-01  0.2343750E-01
   1       -2.486584     -2.485991
   2        0.517302      0.517134
   3        3.243817      3.243840
   4        3.422104      3.422124
   5       10.099373     10.098454
   6       11.096401     11.095330
   7       11.816675     11.815711
   8       15.155080     15.154457
   9       16.664995     16.665400
  10       18.248742     18.249396
  11       20.780495     20.780262
  12       21.275931     21.276046
 
 -0.4375000E+00 -0.4375000E+00  0.6250000E-01  0.1171875E-01
   1       -4.045769     -4.045355
   2        3.740047      3.740259
   3        3.978090      3.977176
   4        6.474313      6.474808
   5        6.742254      6.742703
   6       11.348730     11.348508
   7       12.431289     12.429951
   8       12.481934     12.480606
   9       15.394456     15.394164
  10       16.519494     16.519831
  11       20.454342     20.453773
  12       20.805089     20.804702
 
 -0.3125000E+00 -0.4375000E+00  0.6250000E-01  0.2343750E-01
   1       -3.787904     -3.787460
   2        2.988728      2.988783
   3        3.890203      3.889609
   4        5.395545      5.395844
   5        7.231877      7.231932
   6       11.840611     11.839949
   7       12.399367     12.398397
   8       12.596909     12.596063
   9       16.066613     16.066928
  10       17.294409     17.294180
  11       20.426533     20.426196
  12       20.807293     20.806890
 
 -0.1875000E+00 -0.4375000E+00  0.6250000E-01  0.2343750E-01
   1       -3.182921     -3.182411
   2        1.650607      1.650475
   3        3.558209      3.558119
   4        4.261629      4.261729
   5        8.297478      8.296927
   6       11.554860     11.553764
   7       12.121451     12.120411
   8       14.359665     14.359824
   9       16.119011     16.119004
  10       18.851522     18.851602
  11       19.836101     19.836126
  12       20.815019     20.814578
 
 -0.3125000E+00 -0.3125000E+00  0.6250000E-01  0.1171875E-01
   1       -4.010504     -4.010071
   2        2.535310      2.535363
   3        4.418590      4.417744
   4        6.094102      6.094392
   5        6.466083      6.466261
   6       10.796575     10.796257
   7       12.422046     12.421039
   8       12.509810     12.508902
   9       15.304230     15.304449
  10       18.811316     18.811276
  11       20.669625     20.669373
  12       20.817038     20.816567
 
 -0.1875000E+00 -0.3125000E+00  0.6250000E-01  0.2343750E-01
   1       -4.018998     -4.018570
   2        2.229209      2.229201
   3        4.319073      4.318632
   4        5.098212      5.098349
   5        7.175508      7.175152
   6       10.850339     10.849722
   7       11.833492     11.832720
   8       12.512892     12.512546
   9       15.262381     15.262549
  10       19.409019     19.409193
  11       20.764446     20.764289
  12       21.192195     21.191760
 
 -0.1875000E+00 -0.1875000E+00  0.6250000E-01  0.1171875E-01
   1       -4.765669     -4.765310
   2        2.939386      2.939427
   3        5.216558      5.216019
   4        5.882738      5.882796
   5        6.495556      6.495212
   6        9.863630      9.863206
   7       11.069455     11.068937
   8       11.440811     11.440491
   9       13.820846     13.820961
  10       18.557722     18.557915
  11       20.797408     20.797066
  12       22.238213     22.236304
 
  0.1875000E+00  0.1875000E+00  0.1875000E+00  0.3906250E-02
   1       -5.318629     -5.318326
   2        4.441226      4.441099
   3        5.202213      5.202247
   4        5.202213      5.202247
   5        8.283831      8.283056
   6        8.283831      8.283056
   7        9.135727      9.135323
   8       12.722915     12.723142
   9       12.722915     12.723142
  10       16.428487     16.428436
  11       20.575954     20.574024
  12       20.800108     20.799738
 
  0.3125000E+00  0.1875000E+00  0.1875000E+00  0.1171875E-01
   1       -4.633124     -4.632769
   2        3.271504      3.271534
   3        4.261578      4.261655
   4        4.613262      4.612970
   5        8.248474      8.247575
   6        9.761472      9.761007
   7       10.256842     10.256298
   8       12.075249     12.075219
   9       15.390670     15.391098
  10       17.253222     17.253123
  11       20.795362     20.795031
  12       21.653276     21.651518
 
  0.4375000E+00  0.1875000E+00  0.1875000E+00  0.1171875E-01
   1       -3.525116     -3.524651
   2        1.815045      1.815014
   3        3.617154      3.617226
   4        3.901904      3.901651
   5        9.114592      9.113617
   6       10.748606     10.748218
   7       11.464593     11.463723
   8       12.961269     12.961209
   9       17.097588     17.097282
  10       17.704483     17.705132
  11       20.788665     20.788374
  12       21.853476     21.852397
 
 -0.4375000E+00  0.1875000E+00  0.1875000E+00  0.1171875E-01
   1       -2.612192     -2.611594
   2        0.851534      0.851351
   3        3.473124      3.473195
   4        3.488325      3.488273
   5       10.473414     10.472333
   6       10.619302     10.618418
   7       11.428782     11.428018
   8       15.083941     15.084083
   9       16.954555     16.953959
  10       17.920552     17.921163
  11       20.783016     20.782761
  12       21.375799     21.375851
 
 -0.3125000E+00  0.1875000E+00  0.1875000E+00  0.1171875E-01
   1       -2.816123     -2.815568
   2        1.110303      1.110126
   3        3.399510      3.399516
   4        3.888330      3.888411
   5        8.941368      8.940651
   6       11.461833     11.460681
   7       12.065125     12.064104
   8       15.757545     15.757889
   9       15.761987     15.761733
  10       18.302872     18.303032
  11       20.213496     20.213674
  12       20.822271     20.821806
 
 -0.1875000E+00  0.1875000E+00  0.1875000E+00  0.1171875E-01
   1       -3.782641     -3.782197
   2        1.994566      1.994512
   3        3.930822      3.930607
   4        4.805881      4.805976
   5        7.516946      7.516435
   6       10.988255     10.987381
   7       11.743441     11.742550
   8       13.465884     13.465895
   9       15.570646     15.570765
  10       18.956849     18.956877
  11       20.708916     20.708979
  12       20.960380     20.959831
 
  0.3125000E+00  0.3125000E+00  0.1875000E+00  0.1171875E-01
   1       -4.273354     -4.272967
   2        2.527647      2.527631
   3        4.152519      4.152360
   4        4.784822      4.784867
   5        7.769218      7.768574
   6       10.145693     10.144877
   7       10.781676     10.780957
   8       13.260982     13.261103
   9       15.153076     15.153287
  10       18.096099     18.096091
  11       20.790433     20.790126
  12       21.757192     21.756142
 
  0.4375000E+00  0.3125000E+00  0.1875000E+00  0.2343750E-01
   1       -3.590725     -3.590259
   2        1.889676      1.889633
   3        3.887205      3.886994
   4        4.189809      4.189827
   5        8.254449      8.253856
   6       11.255604     11.254836
   7       11.758104     11.757302
   8       12.909002     12.908866
   9       16.235365     16.235467
  10       18.815715     18.815923
  11       20.757087     20.756992
  12       21.141541     21.141319
 
 -0.4375000E+00  0.3125000E+00  0.1875000E+00  0.2343750E-01
   1       -3.015198     -3.014658
   2        1.627547      1.627436
   3        3.575551      3.575364
   4        3.838658      3.838766
   5        9.368530      9.367866
   6       10.982280     10.981338
   7       12.088928     12.088057
   8       13.567162     13.567171
   9       16.796981     16.797152
  10       19.013890     19.013704
  11       20.710735     20.710918
  12       20.957174     20.956857
 
 -0.3125000E+00  0.3125000E+00  0.1875000E+00  0.2343750E-01
   1       -2.967281     -2.966741
   2        1.750478      1.750321
   3        3.504138      3.504081
   4        3.958046      3.958154
   5        9.412930      9.412283
   6       10.604407     10.603546
   7       12.203112     12.201964
   8       15.085352     15.085486
   9       15.530932     15.531128
  10       19.030363     19.029786
  11       20.667408     20.667743
  12       20.896730     20.896319
 
 -0.1875000E+00  0.3125000E+00  0.1875000E+00  0.2343750E-01
   1       -3.399286     -3.398795
   2        2.020632      2.020572
   3        3.754685      3.754371
   4        4.320431      4.320581
   5        8.208907      8.208506
   6       11.634013     11.633023
   7       12.194356     12.193424
   8       13.047389     13.047280
   9       16.351078     16.351237
  10       19.177376     19.177442
  11       19.950306     19.950300
  12       20.815122     20.814681
 
  0.4375000E+00  0.4375000E+00  0.1875000E+00  0.1171875E-01
   1       -3.563170     -3.562700
   2        2.099355      2.099287
   3        3.792909      3.792644
   4        4.949277      4.949438
   5        7.391241      7.390886
   6       11.602989     11.602002
   7       12.261069     12.260004
   8       13.480996     13.480947
   9       15.919851     15.920014
  10       18.996845     18.996858
  11       19.642165     19.642016
  12       20.810341     20.809923
 
 -0.4375000E+00  0.4375000E+00  0.1875000E+00  0.2343750E-01
   1       -3.446711     -3.446232
   2        2.643692      2.643657
   3        3.661280      3.660940
   4        4.431701      4.431896
   5        8.243380      8.243153
   6       11.572936     11.571915
   7       12.403157     12.402031
   8       13.113050     13.112942
   9       15.940774     15.940982
  10       18.587418     18.587339
  11       20.376645     20.376410
  12       20.811933     20.811508
 
 -0.3125000E+00  0.4375000E+00  0.1875000E+00  0.2343750E-01
   1       -3.271647     -3.271148
   2        2.937146      2.937093
   3        3.536482      3.536339
   4        3.835934      3.835960
   5        9.444544      9.444164
   6       10.595493     10.594844
   7       12.468102     12.466780
   8       13.551462     13.551247
   9       14.845172     14.845425
  10       20.424220     20.424585
  11       20.830121     20.829631
  12       21.167067     21.166404
 
 -0.1875000E+00  0.4375000E+00  0.1875000E+00  0.2343750E-01
   1       -3.145754     -3.145236
   2        2.258316      2.258226
   3        3.541616      3.541417
   4        3.970801      3.970935
   5        9.404361      9.403868
   6       10.596630     10.595822
   7       12.387379     12.386222
   8       13.737058     13.737009
   9       15.699995     15.700224
  10       19.870504     19.870061
  11       20.684686     20.684908
  12       20.890146     20.889725
 
 -0.4375000E+00 -0.4375000E+00  0.1875000E+00  0.1171875E-01
   1       -3.655464     -3.655014
   2        3.174088      3.173776
   3        3.684609      3.684631
   4        5.278103      5.278383
   5        7.267340      7.267125
   6       11.945812     11.944525
   7       12.429700     12.428592
   8       13.382725     13.382786
   9       15.137854     15.137831
  10       17.810509     17.810664
  11       20.381692     20.381058
  12       20.806033     20.805639
 
 -0.3125000E+00 -0.4375000E+00  0.1875000E+00  0.2343750E-01
   1       -3.532441     -3.531976
   2        3.302414      3.302252
   3        3.627170      3.627024
   4        4.349486      4.349636
   5        8.290334      8.290220
   6       11.548107     11.547159
   7       12.466098     12.464792
   8       13.089993     13.089865
   9       15.085128     15.085240
  10       18.785159     18.785357
  11       20.649570     20.648918
  12       20.809639     20.809222
 
 -0.3125000E+00 -0.3125000E+00  0.1875000E+00  0.1171875E-01
   1       -3.583767     -3.583305
   2        2.662072      2.661972
   3        3.708668      3.708438
   4        5.140481      5.140712
   5        7.333805      7.333571
   6       11.903544     11.902377
   7       12.353935     12.352796
   8       13.402364     13.402371
   9       15.955936     15.956160
  10       17.737123     17.736961
  11       20.136889     20.136606
  12       20.807428     20.807028
 
  0.3125000E+00  0.3125000E+00  0.3125000E+00  0.3906250E-02
   1       -3.944026     -3.943632
   2        2.219753      2.219707
   3        3.869507      3.869527
   4        3.869507      3.869527
   5        9.623768      9.622860
   6        9.623768      9.622860
   7       10.014252     10.013554
   8       15.598172     15.598586
   9       15.598172     15.598586
  10       16.769084     16.768654
  11       20.786676     20.786384
  12       21.599656     21.598684
 
  0.4375000E+00  0.3125000E+00  0.3125000E+00  0.1171875E-01
   1       -3.293712     -3.293237
   2        1.452599      1.452533
   3        3.474630      3.474677
   4        3.776753      3.776655
   5        9.564197      9.563219
   6       10.229982     10.229339
   7       11.503747     11.502774
   8       14.514940     14.515131
   9       16.545096     16.544633
  10       17.746024     17.746675
  11       20.787134     20.786848
  12       21.895140     21.894701
 
 -0.4375000E+00  0.3125000E+00  0.3125000E+00  0.1171875E-01
   1       -2.821386     -2.820814
   2        1.231034      1.230897
   3        3.561415      3.561253
   4        3.601869      3.601967
   5       10.128959     10.127884
   6       10.732630     10.731718
   7       11.637485     11.636982
   8       13.691755     13.691794
   9       17.901717     17.901209
  10       17.960208     17.960823
  11       20.783797     20.783531
  12       21.214062     21.213150
 
 -0.3125000E+00  0.3125000E+00  0.3125000E+00  0.1171875E-01
   1       -3.062871     -3.062347
   2        1.961565      1.961396
   3        3.533204      3.533174
   4        4.190776      4.190936
   5        8.768957      8.768292
   6       11.137796     11.136606
   7       12.184266     12.183489
   8       14.499592     14.499627
   9       15.918473     15.918797
  10       19.212327     19.212100
  11       20.523113     20.522761
  12       20.815206     20.814753
 
  0.4375000E+00  0.4375000E+00  0.3125000E+00  0.1171875E-01
   1       -2.946107     -2.945589
   2        1.044363      1.044243
   3        3.361218      3.361214
   4        3.763380      3.763423
   5        9.114979      9.114188
   6       11.209964     11.208890
   7       11.789740     11.788765
   8       15.593565     15.593118
   9       15.742880     15.743238
  10       18.240164     18.240645
  11       20.756338     20.756243
  12       21.108544     21.108325
 
 -0.4375000E+00  0.4375000E+00  0.3125000E+00  0.2343750E-01
   1       -2.810726     -2.810162
   2        1.219611      1.219447
   3        3.461856      3.461824
   4        3.781557      3.781616
   5        9.468200      9.467472
   6       10.972210     10.971226
   7       11.942840     11.941829
   8       14.954195     14.954373
   9       16.455732     16.455665
  10       18.353802     18.353739
  11       20.710412     20.710590
  12       20.952459     20.952148
 
 -0.3125000E+00  0.4375000E+00  0.3125000E+00  0.2343750E-01
   1       -3.106963     -3.106442
   2        2.227356      2.227231
   3        3.526147      3.526058
   4        4.019128      4.019230
   5        9.371198      9.370581
   6       10.538034     10.537258
   7       12.368354     12.367234
   8       14.241012     14.240947
   9       15.303754     15.304029
  10       20.149694     20.149400
  11       20.744583     20.744490
  12       20.945848     20.945468
 
 -0.4375000E+00 -0.4375000E+00  0.3125000E+00  0.1171875E-01
   1       -2.936797     -2.936257
   2        1.561813      1.561635
   3        3.486322      3.486314
   4        4.062716      4.062843
   5        8.846440      8.845776
   6       11.331274     11.330092
   7       11.987210     11.986286
   8       15.542408     15.542525
   9       15.837580     15.837911
  10       18.277535     18.277025
  11       20.309000     20.309232
  12       20.821760     20.821305
 
  0.4375000E+00  0.4375000E+00  0.4375000E+00  0.3906250E-02
   1       -2.373375     -2.372793
   2        0.314991      0.314868
   3        3.184775      3.184784
   4        3.184775      3.184784
   5       10.914267     10.913197
   6       10.914267     10.913197
   7       11.534482     11.533602
   8       14.597906     14.597158
   9       17.850482     17.851125
  10       17.850482     17.851125
  11       21.282352     20.797082
  12       21.282386     21.282580
 
 -0.4375000E+00  0.4375000E+00  0.4375000E+00  0.1171875E-01
   1       -2.278209     -2.277553
   2        0.327832      0.327608
   3        3.299566      3.299577
   4        3.303483      3.303521
   5       10.600230     10.599258
   6       10.941106     10.940004
   7       11.729137     11.728252
   8       15.174270     15.173626
   9       17.198686     17.199033
  10       17.865365     17.865975
  11       20.779465     20.779246
  12       21.125377     21.125548
