       N       E                     dE             d eps       ncg     rms          rms(c)
DAV:   1     0.117741581043E+02    0.11774E+02   -0.40113E+03  2888   0.598E+02
DAV:   2    -0.181257291362E+02   -0.29900E+02   -0.28330E+02  3800   0.118E+02
DAV:   3    -0.190897852762E+02   -0.96406E+00   -0.95715E+00  3468   0.193E+01
DAV:   4    -0.190929886070E+02   -0.32033E-02   -0.32029E-02  3356   0.129E+00
DAV:   5    -0.190929980830E+02   -0.94760E-05   -0.94756E-05  3524   0.636E-02    0.188E+01
DAV:   6    -0.221084795820E+02   -0.30155E+01   -0.16557E+01  3232   0.198E+01    0.438E+00
DAV:   7    -0.223205412363E+02   -0.21206E+00   -0.63961E-01  3476   0.564E+00    0.155E+00
DAV:   8    -0.222608675555E+02    0.59674E-01   -0.82304E-02  3252   0.188E+00    0.859E-01
DAV:   9    -0.222533780055E+02    0.74896E-02   -0.25083E-02  3336   0.115E+00    0.244E-01
DAV:  10    -0.222512532477E+02    0.21248E-02   -0.12036E-03  3236   0.279E-01    0.567E-02
DAV:  11    -0.222510917207E+02    0.16153E-03   -0.14361E-04  2840   0.848E-02    0.330E-02
DAV:  12    -0.222510555037E+02    0.36217E-04   -0.35247E-05  1692   0.443E-02
   1 F= -.22251056E+02 E0= -.22251135E+02  d E =0.237167E-03  mag=    -0.0003
