 vasp.5.2.12 11Nov11 complex                                                    
  
 executed on             LinuxIFC date 2012.10.17  13:24:43
 running on    1 nodes
 distr:  one band on    1 nodes,    1 groups


--------------------------------------------------------------------------------------------------------


 INCAR:
 POTCAR:   PAW_PBE C 08Apr2002                    
 POTCAR:    PAW_PBE Ta 17Jan2003                  
 POTCAR:   PAW_PBE C 08Apr2002                    
   VRHFIN =C: s2p2                                                              
   LEXCH  = PE                                                                  
   EATOM  =   147.1560 eV,   10.8157 Ry                                         
                                                                                
   TITEL  = PAW_PBE C 08Apr2002                                                 
   LULTRA =        F    use ultrasoft PP ?                                      
   IUNSCR =        0    unscreen: 0-lin 1-nonlin 2-no                           
   RPACOR =     .000    partial core radius                                     
   POMASS =   12.011; ZVAL   =    4.000    mass and valenz                      
   RCORE  =    1.500    outmost cutoff radius                                   
   RWIGS  =    1.630; RWIGS  =     .863    wigner-seitz radius (au A)           
   ENMAX  =  400.000; ENMIN  =  300.000 eV                                      
   ICORE  =        2    local potential                                         
   LCOR   =        T    correct aug charges                                     
   LPAW   =        T    paw PP                                                  
   EAUG   =  644.873                                                            
   DEXC   =     .000                                                            
   RMAX   =    2.266    core radius for proj-oper                               
   RAUG   =    1.300    factor for augmentation sphere                          
   RDEP   =    1.501    radius for radial grids                                 
   RDEPT  =    1.300    core radius for aug-charge                              
   QCUT   =   -5.516; QGAM   =   11.032    optimization parameters              
                                                                                
   Description                                                                  
     l     E      TYP  RCUT    TYP  RCUT                                        
     0   .000     23  1.200                                                     
     0   .000     23  1.200                                                     
     1   .000     23  1.500                                                     
     1  2.500     23  1.500                                                     
     2   .000      7  1.500                                                     
  local pseudopotential read in
  atomic valenz-charges read in
  non local Contribution for L=           0  read in
    real space projection operators read in
  non local Contribution for L=           0  read in
    real space projection operators read in
  non local Contribution for L=           1  read in
    real space projection operators read in
  non local Contribution for L=           1  read in
    real space projection operators read in
    PAW grid and wavefunctions read in
 
   number of l-projection  operators is LMAX  =           4
   number of lm-projection operators is LMMAX =           8
 
 POTCAR:    PAW_PBE Ta 17Jan2003                  
   VRHFIN =Ta:  6s5d                                                            
   LEXCH  = PE                                                                  
   EATOM  =   130.6506 eV,    9.6025 Ry                                         
                                                                                
   TITEL  = PAW_PBE Ta 17Jan2003                                                
   LULTRA =        F    use ultrasoft PP ?                                      
   IUNSCR =        1    unscreen: 0-lin 1-nonlin 2-no                           
   RPACOR =    2.330    partial core radius                                     
   POMASS =  180.948; ZVAL   =    5.000    mass and valenz                      
   RCORE  =    2.900    outmost cutoff radius                                   
   RWIGS  =    2.840; RWIGS  =    1.503    wigner-seitz radius (au A)           
   ENMAX  =  223.667; ENMIN  =  167.750 eV                                      
   RCLOC  =    2.205    cutoff for local pot                                    
   LCOR   =        T    correct aug charges                                     
   LPAW   =        T    paw PP                                                  
   EAUG   =  332.075                                                            
   DEXC   =    -.049                                                            
   RMAX   =    3.083    core radius for proj-oper                               
   RAUG   =    1.300    factor for augmentation sphere                          
   RDEP   =    3.060    radius for radial grids                                 
   QCUT   =   -4.055; QGAM   =    8.109    optimization parameters              
                                                                                
   Description                                                                  
     l     E      TYP  RCUT    TYP  RCUT                                        
     2   .000     23  2.500                                                     
     2   .000     23  2.500                                                     
     0   .000     23  2.500                                                     
     0   .000     23  2.500                                                     
     1   .000     23  2.900                                                     
     1  2.000     23  2.900                                                     
     3   .000      7   .000                                                     
  local pseudopotential read in
  partial core-charges read in
  atomic valenz-charges read in
  non local Contribution for L=           2  read in
    real space projection operators read in
  non local Contribution for L=           2  read in
    real space projection operators read in
  non local Contribution for L=           0  read in
    real space projection operators read in
  non local Contribution for L=           0  read in
    real space projection operators read in
  non local Contribution for L=           1  read in
    real space projection operators read in
  non local Contribution for L=           1  read in
    real space projection operators read in
    PAW grid and wavefunctions read in
 
   number of l-projection  operators is LMAX  =           6
   number of lm-projection operators is LMMAX =          18
 
 PAW_PBE C 08Apr2002                    :
 energy of atom  1       EATOM= -147.1560
 kinetic energy error for atom=    0.0116 (will be added to EATOM!!)
  PAW_PBE Ta 17Jan2003                  :
 energy of atom  2       EATOM= -130.6506
 kinetic energy error for atom=    0.0016 (will be added to EATOM!!)
 
 
 POSCAR:  C Ta                                   
  positions in cartesian coordinates
  No initial velocities read in
 exchange correlation table for  LEXCH =        8
   RHO(1)=    0.500       N(1)  =     2000
   RHO(2)=  100.500       N(2)  =     4000
 


--------------------------------------------------------------------------------------------------------


 ion  position               nearest neighbor table
   1  0.500  0.500  0.500-   2 2.24   2 2.24   2 2.24   2 2.24   2 2.24   2 2.24
   2  0.000  0.000  0.000-   1 2.24   1 2.24   1 2.24   1 2.24   1 2.24   1 2.24
 
  LATTYP: Found a face centered cubic cell.
 ALAT       =     4.4750000000
  
  Lattice vectors:
  
 A1 = (   0.0000000000,   2.2375000000,   2.2375000000)
 A2 = (   2.2375000000,   0.0000000000,   2.2375000000)
 A3 = (   2.2375000000,   2.2375000000,   0.0000000000)
 Subroutine PRICEL returns:
 Original cell was already a primitive cell.
 

Analysis of symmetry for initial positions (statically):

 Routine SETGRP: Setting up the symmetry group for a 
 face centered cubic supercell.


 Subroutine GETGRP returns: Found 48 space group operations
 (whereof 48 operations were pure point group operations)
 out of a pool of 48 trial point group operations.


The static configuration has the point symmetry O_h .

Analysis of symmetry for dynamics (positions and initial velocities):

 Subroutine DYNSYM returns: Found 48 space group operations
 (whereof 48 operations were pure point group operations)
 out of a pool of 48 trial space group operations
 (whereof 48 operations were pure point group operations)
 and found also     1 'primitive' translations


The dynamic configuration has the point symmetry O_h .

Analysis of magnetic symmetry:

 Subroutine MAGSYM returns: Found 48 space group operations
 (whereof 48 operations were pure point group operations)
 out of a pool of 48 trial space group operations
 (whereof 48 operations were pure point group operations)
 and found also     1 'primitive' translations


The magnetic configuration has the point symmetry O_h .
 
 
 KPOINTS: KPOINTS created by Atomic Simulation Env

Automatic generation of k-mesh.
 
 Subroutine IBZKPT returns following result:
 ===========================================
 
 Found     60 irreducible k-points:
 
 Following reciprocal coordinates:
            Coordinates               Weight
  0.062500  0.062500  0.062500     96.000000
  0.187500  0.062500  0.062500    288.000000
  0.312500  0.062500  0.062500    288.000000
  0.437500  0.062500  0.062500    288.000000
 -0.437500  0.062500  0.062500    288.000000
 -0.312500  0.062500  0.062500    288.000000
 -0.187500  0.062500  0.062500    288.000000
 -0.062500  0.062500  0.062500    288.000000
  0.187500  0.187500  0.062500    288.000000
  0.312500  0.187500  0.062500    576.000000
  0.437500  0.187500  0.062500    576.000000
 -0.437500  0.187500  0.062500    576.000000
 -0.312500  0.187500  0.062500    576.000000
 -0.187500  0.187500  0.062500    576.000000
 -0.062500  0.187500  0.062500    576.000000
  0.312500  0.312500  0.062500    288.000000
  0.437500  0.312500  0.062500    576.000000
 -0.437500  0.312500  0.062500    576.000000
 -0.312500  0.312500  0.062500    576.000000
 -0.187500  0.312500  0.062500    576.000000
 -0.062500  0.312500  0.062500    576.000000
  0.437500  0.437500  0.062500    288.000000
 -0.437500  0.437500  0.062500    576.000000
 -0.312500  0.437500  0.062500    576.000000
 -0.187500  0.437500  0.062500    576.000000
 -0.062500  0.437500  0.062500    576.000000
 -0.437500 -0.437500  0.062500    288.000000
 -0.312500 -0.437500  0.062500    576.000000
 -0.187500 -0.437500  0.062500    576.000000
 -0.312500 -0.312500  0.062500    288.000000
 -0.187500 -0.312500  0.062500    576.000000
 -0.187500 -0.187500  0.062500    288.000000
  0.187500  0.187500  0.187500     96.000000
  0.312500  0.187500  0.187500    288.000000
  0.437500  0.187500  0.187500    288.000000
 -0.437500  0.187500  0.187500    288.000000
 -0.312500  0.187500  0.187500    288.000000
 -0.187500  0.187500  0.187500    288.000000
  0.312500  0.312500  0.187500    288.000000
  0.437500  0.312500  0.187500    576.000000
 -0.437500  0.312500  0.187500    576.000000
 -0.312500  0.312500  0.187500    576.000000
 -0.187500  0.312500  0.187500    576.000000
  0.437500  0.437500  0.187500    288.000000
 -0.437500  0.437500  0.187500    576.000000
 -0.312500  0.437500  0.187500    576.000000
 -0.187500  0.437500  0.187500    576.000000
 -0.437500 -0.437500  0.187500    288.000000
 -0.312500 -0.437500  0.187500    576.000000
 -0.312500 -0.312500  0.187500    288.000000
  0.312500  0.312500  0.312500     96.000000
  0.437500  0.312500  0.312500    288.000000
 -0.437500  0.312500  0.312500    288.000000
 -0.312500  0.312500  0.312500    288.000000
  0.437500  0.437500  0.312500    288.000000
 -0.437500  0.437500  0.312500    576.000000
 -0.312500  0.437500  0.312500    576.000000
 -0.437500 -0.437500  0.312500    288.000000
  0.437500  0.437500  0.437500     96.000000
 -0.437500  0.437500  0.437500    288.000000
 
 Following cartesian coordinates:
            Coordinates               Weight
  0.013966  0.013966  0.013966     96.000000
 -0.013966  0.041899  0.041899    288.000000
 -0.041899  0.069832  0.069832    288.000000
 -0.069832  0.097765  0.097765    288.000000
  0.125698 -0.097765 -0.097765    288.000000
  0.097765 -0.069832 -0.069832    288.000000
  0.069832 -0.041899 -0.041899    288.000000
  0.041899 -0.013966 -0.013966    288.000000
  0.013966  0.013966  0.069832    288.000000
 -0.013966  0.041899  0.097765    576.000000
 -0.041899  0.069832  0.125698    576.000000
  0.153631 -0.125698 -0.069832    576.000000
  0.125698 -0.097765 -0.041899    576.000000
  0.097765 -0.069832 -0.013966    576.000000
  0.069832 -0.041899  0.013966    576.000000
  0.013966  0.013966  0.125698    288.000000
 -0.013966  0.041899  0.153631    576.000000
  0.181564 -0.153631 -0.041899    576.000000
  0.153631 -0.125698 -0.013966    576.000000
  0.125698 -0.097765  0.013966    576.000000
  0.097765 -0.069832  0.041899    576.000000
  0.013966  0.013966  0.181564    288.000000
  0.209497 -0.181564 -0.013966    576.000000
  0.181564 -0.153631  0.013966    576.000000
  0.153631 -0.125698  0.041899    576.000000
  0.125698 -0.097765  0.069832    576.000000
  0.013966  0.013966 -0.209497    288.000000
 -0.013966  0.041899 -0.181564    576.000000
 -0.041899  0.069832 -0.153631    576.000000
  0.013966  0.013966 -0.153631    288.000000
 -0.013966  0.041899 -0.125698    576.000000
  0.013966  0.013966 -0.097765    288.000000
  0.041899  0.041899  0.041899     96.000000
  0.013966  0.069832  0.069832    288.000000
 -0.013966  0.097765  0.097765    288.000000
  0.181564 -0.097765 -0.097765    288.000000
  0.153631 -0.069832 -0.069832    288.000000
  0.125698 -0.041899 -0.041899    288.000000
  0.041899  0.041899  0.097765    288.000000
  0.013966  0.069832  0.125698    576.000000
  0.209497 -0.125698 -0.069832    576.000000
  0.181564 -0.097765 -0.041899    576.000000
  0.153631 -0.069832 -0.013966    576.000000
  0.041899  0.041899  0.153631    288.000000
  0.237430 -0.153631 -0.041899    576.000000
  0.209497 -0.125698 -0.013966    576.000000
  0.181564 -0.097765  0.013966    576.000000
  0.041899  0.041899 -0.237430    288.000000
  0.013966  0.069832 -0.209497    576.000000
  0.041899  0.041899 -0.181564    288.000000
  0.069832  0.069832  0.069832     96.000000
  0.041899  0.097765  0.097765    288.000000
  0.237430 -0.097765 -0.097765    288.000000
  0.209497 -0.069832 -0.069832    288.000000
  0.069832  0.069832  0.125698    288.000000
  0.265363 -0.125698 -0.069832    576.000000
  0.237430 -0.097765 -0.041899    576.000000
  0.069832  0.069832 -0.265363    288.000000
  0.097765  0.097765  0.097765     96.000000
  0.293296 -0.097765 -0.097765    288.000000
 


--------------------------------------------------------------------------------------------------------




 Dimension of arrays:
   k-points           NKPTS =     60   k-points in BZ     NKDIM =     60   number of bands    NBANDS=     12
   number of dos      NEDOS =    301   number of ions     NIONS =      2
   non local maximal  LDIM  =      6   non local SUM 2l+1 LMDIM =     18
   total plane-waves  NPLWV =  13824
   max r-space proj   IRMAX =      1   max aug-charges    IRDMAX=  42197
   dimension x,y,z NGX =    24 NGY =   24 NGZ =   24
   dimension x,y,z NGXF=    48 NGYF=   48 NGZF=   48
   support grid    NGXF=    48 NGYF=   48 NGZF=   48
   ions per type =               1   1
 NGX,Y,Z   is equivalent  to a cutoff of  12.61, 12.61, 12.61 a.u.
 NGXF,Y,Z  is equivalent  to a cutoff of  25.22, 25.22, 25.22 a.u.


 I would recommend the setting:
   dimension x,y,z NGX =    22 NGY =   22 NGZ =   22
 SYSTEM =  unknown system                          
 POSCAR =   C Ta                                   

 Startparameter for this run:
   NWRITE =      2    write-flag & timer
   PREC   = accura    normal or accurate (medium, high low for compatibility)
   ISTART =      0    job   : 0-new  1-cont  2-samecut
   ICHARG =      2    charge: 1-file 2-atom 10-const
   ISPIN  =      2    spin polarized calculation?
   LNONCOLLINEAR =      F non collinear calculations
   LSORBIT =      F    spin-orbit coupling
   INIWAV =      1    electr: 0-lowe 1-rand  2-diag
   LASPH  =      F    aspherical Exc in radial PAW
   METAGGA=      F    non-selfconsistent MetaGGA calc.

 Electronic Relaxation 1
   ENCUT  =  450.0 eV  33.07 Ry    5.75 a.u.   5.47  5.47  5.47*2*pi/ulx,y,z
   ENINI  =  450.0     initial cutoff
   ENAUG  =  644.9 eV  augmentation charge cutoff
   NELM   =     60;   NELMIN=  2; NELMDL= -5     # of ELM steps 
   EDIFF  = 0.1E-03   stopping-criterion for ELM
   LREAL  =      F    real-space projection
   NLSPLINE    = F    spline interpolate recip. space projectors
   LCOMPAT=      F    compatible to vasp.4.4
   GGA_COMPAT  = T    GGA compatible to vasp.4.4-vasp.4.6
   LMAXPAW     = -100 max onsite density
   LMAXMIX     =    2 max onsite mixed and CHGCAR
   VOSKOWN=      0    Vosko Wilk Nusair interpolation
   ROPT   =    0.00000   0.00000
 Ionic relaxation
   EDIFFG = 0.1E-02   stopping-criterion for IOM
   NSW    =      0    number of steps for IOM
   NBLOCK =      1;   KBLOCK =      1    inner block; outer block 
   IBRION =     -1    ionic relax: 0-MD 1-quasi-New 2-CG
   NFREE  =      0    steps in history (QN), initial steepest desc. (CG)
   ISIF   =      2    stress and relaxation
   IWAVPR =     10    prediction:  0-non 1-charg 2-wave 3-comb
   ISYM   =      2    0-nonsym 1-usesym 2-fastsym
   LCORR  =      T    Harris-Foulkes like correction to forces

   POTIM  = 0.5000    time-step for ionic-motion
   TEIN   =    0.0    initial temperature
   TEBEG  =    0.0;   TEEND  =   0.0 temperature during run
   SMASS  =  -3.00    Nose mass-parameter (am)
   estimated Nose-frequenzy (Omega)   =  0.10E-29 period in steps =****** mass=  -0.229E-27a.u.
   SCALEE = 1.0000    scale energy and forces
   NPACO  =    256;   APACO  = 16.0  distance and # of slots for P.C.
   PSTRESS=    0.0 pullay stress

  Mass of Ions in am
   POMASS =  12.01180.95
  Ionic Valenz
   ZVAL   =   4.00  5.00
  Atomic Wigner-Seitz radii
   RWIGS  =  -1.00 -1.00
  virtual crystal weights 
   VCA    =   1.00  1.00
   NELECT =       9.0000    total number of electrons
   NUPDOWN=      -1.0000    fix difference up-down

 DOS related values:
   EMIN   =  10.00;   EMAX   =-10.00  energy-range for DOS
   EFERMI =   0.00
   ISMEAR =     1;   SIGMA  =   0.05  broadening in eV -4-tet -1-fermi 0-gaus

 Electronic relaxation 2 (details)
   IALGO  =     38    algorithm
   LDIAG  =      T    sub-space diagonalisation (order eigenvalues)
   LSUBROT=      T    optimize rotation matrix (better conditioning)
   TURBO    =      0    0=normal 1=particle mesh
   IRESTART =      0    0=no restart 2=restart with 2 vectors
   NREBOOT  =      0    no. of reboots
   NMIN     =      0    reboot dimension
   EREF     =   0.00    reference energy to select bands
   IMIX   =      4    mixing-type and parameters
     AMIX     =   0.40;   BMIX     =  1.00
     AMIX_MAG =   1.60;   BMIX_MAG =  1.00
     AMIN     =   0.10
     WC   =   100.;   INIMIX=   1;  MIXPRE=   1

 Intra band minimization:
   WEIMIN = 0.0000     energy-eigenvalue tresh-hold
   EBREAK =  0.21E-05  absolut break condition
   DEPER  =   0.30     relativ break condition  

   TIME   =   0.40     timestep for ELM

  volume/ion in A,a.u.               =      11.20        75.59
  Fermi-wavevector in a.u.,A,eV,Ry     =   1.207951  2.282696 19.852879  1.459145
  Thomas-Fermi vector in A             =   2.343573
 
 Write flags
   LWAVE  =      T    write WAVECAR
   LCHARG =      T    write CHGCAR
   LVTOT  =      F    write LOCPOT, total local potential
   LVHAR  =      F    write LOCPOT, Hartree potential only
   LELF   =      F    write electronic localiz. function (ELF)
   LORBIT =     11    0 simple, 1 ext, 2 COOP (PROOUT)


 Dipole corrections
   LMONO  =      F    monopole corrections only (constant potential shift)
   LDIPOL =      F    correct potential (dipole corrections)
   IDIPOL =      0    1-x, 2-y, 3-z, 4-all directions 
   EPSILON=  1.0000000 bulk dielectric constant

 Exchange correlation treatment:
   GGA     =    --    GGA type
   LEXCH   =     8    internal setting for exchange type
   VOSKOWN=      0    Vosko Wilk Nusair interpolation
   LHFCALC =     F    Hartree Fock is set to
   LHFONE  =     F    Hartree Fock one center treatment
   AEXX    =    0.0000 exact exchange contribution

 Linear response parameters
   LEPSILON=     F    determine dielectric tensor
   LRPA    =     F    only Hartree local field effects (RPA)
   LNABLA  =     F    use nabla operator in PAW spheres
   LVEL    =     F    velocity operator in full k-point grid
   LINTERFAST=   F  fast interpolation
   KINTER  =     0    interpolate to denser k-point grid
   CSHIFT  =0.1000    complex shift for real part using Kramers Kronig
   OMEGAMAX=  -1.0    maximum frequency
   RTIME   =    0.100 relaxation time in fs

 Orbital magnetization related:
   ORBITALMAG=     F  switch on orbital magnetization
   LCHIMAG   =     F  perturbation theory with respect to B field
   DQ        =  0.001000  dq finite difference perturbation B field



--------------------------------------------------------------------------------------------------------


 Static calculation
 charge density and potential will be updated during run
 spin polarized calculation
 Variant of blocked Davidson
 Davidson routine will perform the subspace rotation
 perform sub-space diagonalisation
    after iterative eigenvector-optimisation
 modified Broyden-mixing scheme, WC =      100.0
 initial mixing is a Kerker type mixing with AMIX =  0.4000 and BMIX =      1.0000
 Hartree-type preconditioning will be used
 using additional bands            7
 reciprocal scheme for non local part
 use partial core corrections
 calculate Harris-corrections to forces 
   (improved forces if not selfconsistent)
 use gradient corrections 
 use of overlap-Matrix (Vanderbilt PP)
 Methfessel and Paxton  Order N= 1 SIGMA  =   0.05


--------------------------------------------------------------------------------------------------------


  energy-cutoff  :      450.00
  volume of cell :       22.40
      direct lattice vectors                 reciprocal lattice vectors
     0.000000000  2.237500000  2.237500000    -0.223463687  0.223463687  0.223463687
     2.237500000  0.000000000  2.237500000     0.223463687 -0.223463687  0.223463687
     2.237500000  2.237500000  0.000000000     0.223463687  0.223463687 -0.223463687

  length of vectors
     3.164302846  3.164302846  3.164302846     0.387050460  0.387050460  0.387050460


 
 k-points in units of 2pi/SCALE and weight: KPOINTS created by Atomic Simulation Env
   0.01396648  0.01396648  0.01396648       0.004
  -0.01396648  0.04189944  0.04189944       0.012
  -0.04189944  0.06983240  0.06983240       0.012
  -0.06983240  0.09776536  0.09776536       0.012
   0.12569832 -0.09776536 -0.09776536       0.012
   0.09776536 -0.06983240 -0.06983240       0.012
   0.06983240 -0.04189944 -0.04189944       0.012
   0.04189944 -0.01396648 -0.01396648       0.012
   0.01396648  0.01396648  0.06983240       0.012
  -0.01396648  0.04189944  0.09776536       0.023
  -0.04189944  0.06983240  0.12569832       0.023
   0.15363128 -0.12569832 -0.06983240       0.023
   0.12569832 -0.09776536 -0.04189944       0.023
   0.09776536 -0.06983240 -0.01396648       0.023
   0.06983240 -0.04189944  0.01396648       0.023
   0.01396648  0.01396648  0.12569832       0.012
  -0.01396648  0.04189944  0.15363128       0.023
   0.18156425 -0.15363128 -0.04189944       0.023
   0.15363128 -0.12569832 -0.01396648       0.023
   0.12569832 -0.09776536  0.01396648       0.023
   0.09776536 -0.06983240  0.04189944       0.023
   0.01396648  0.01396648  0.18156425       0.012
   0.20949721 -0.18156425 -0.01396648       0.023
   0.18156425 -0.15363128  0.01396648       0.023
   0.15363128 -0.12569832  0.04189944       0.023
   0.12569832 -0.09776536  0.06983240       0.023
   0.01396648  0.01396648 -0.20949721       0.012
  -0.01396648  0.04189944 -0.18156425       0.023
  -0.04189944  0.06983240 -0.15363128       0.023
   0.01396648  0.01396648 -0.15363128       0.012
  -0.01396648  0.04189944 -0.12569832       0.023
   0.01396648  0.01396648 -0.09776536       0.012
   0.04189944  0.04189944  0.04189944       0.004
   0.01396648  0.06983240  0.06983240       0.012
  -0.01396648  0.09776536  0.09776536       0.012
   0.18156425 -0.09776536 -0.09776536       0.012
   0.15363128 -0.06983240 -0.06983240       0.012
   0.12569832 -0.04189944 -0.04189944       0.012
   0.04189944  0.04189944  0.09776536       0.012
   0.01396648  0.06983240  0.12569832       0.023
   0.20949721 -0.12569832 -0.06983240       0.023
   0.18156425 -0.09776536 -0.04189944       0.023
   0.15363128 -0.06983240 -0.01396648       0.023
   0.04189944  0.04189944  0.15363128       0.012
   0.23743017 -0.15363128 -0.04189944       0.023
   0.20949721 -0.12569832 -0.01396648       0.023
   0.18156425 -0.09776536  0.01396648       0.023
   0.04189944  0.04189944 -0.23743017       0.012
   0.01396648  0.06983240 -0.20949721       0.023
   0.04189944  0.04189944 -0.18156425       0.012
   0.06983240  0.06983240  0.06983240       0.004
   0.04189944  0.09776536  0.09776536       0.012
   0.23743017 -0.09776536 -0.09776536       0.012
   0.20949721 -0.06983240 -0.06983240       0.012
   0.06983240  0.06983240  0.12569832       0.012
   0.26536313 -0.12569832 -0.06983240       0.023
   0.23743017 -0.09776536 -0.04189944       0.023
   0.06983240  0.06983240 -0.26536313       0.012
   0.09776536  0.09776536  0.09776536       0.004
   0.29329609 -0.09776536 -0.09776536       0.012
 
 k-points in reciprocal lattice and weights: KPOINTS created by Atomic Simulation Env
   0.06250000  0.06250000  0.06250000       0.004
   0.18750000  0.06250000  0.06250000       0.012
   0.31250000  0.06250000  0.06250000       0.012
   0.43750000  0.06250000  0.06250000       0.012
  -0.43750000  0.06250000  0.06250000       0.012
  -0.31250000  0.06250000  0.06250000       0.012
  -0.18750000  0.06250000  0.06250000       0.012
  -0.06250000  0.06250000  0.06250000       0.012
   0.18750000  0.18750000  0.06250000       0.012
   0.31250000  0.18750000  0.06250000       0.023
   0.43750000  0.18750000  0.06250000       0.023
  -0.43750000  0.18750000  0.06250000       0.023
  -0.31250000  0.18750000  0.06250000       0.023
  -0.18750000  0.18750000  0.06250000       0.023
  -0.06250000  0.18750000  0.06250000       0.023
   0.31250000  0.31250000  0.06250000       0.012
   0.43750000  0.31250000  0.06250000       0.023
  -0.43750000  0.31250000  0.06250000       0.023
  -0.31250000  0.31250000  0.06250000       0.023
  -0.18750000  0.31250000  0.06250000       0.023
  -0.06250000  0.31250000  0.06250000       0.023
   0.43750000  0.43750000  0.06250000       0.012
  -0.43750000  0.43750000  0.06250000       0.023
  -0.31250000  0.43750000  0.06250000       0.023
  -0.18750000  0.43750000  0.06250000       0.023
  -0.06250000  0.43750000  0.06250000       0.023
  -0.43750000 -0.43750000  0.06250000       0.012
  -0.31250000 -0.43750000  0.06250000       0.023
  -0.18750000 -0.43750000  0.06250000       0.023
  -0.31250000 -0.31250000  0.06250000       0.012
  -0.18750000 -0.31250000  0.06250000       0.023
  -0.18750000 -0.18750000  0.06250000       0.012
   0.18750000  0.18750000  0.18750000       0.004
   0.31250000  0.18750000  0.18750000       0.012
   0.43750000  0.18750000  0.18750000       0.012
  -0.43750000  0.18750000  0.18750000       0.012
  -0.31250000  0.18750000  0.18750000       0.012
  -0.18750000  0.18750000  0.18750000       0.012
   0.31250000  0.31250000  0.18750000       0.012
   0.43750000  0.31250000  0.18750000       0.023
  -0.43750000  0.31250000  0.18750000       0.023
  -0.31250000  0.31250000  0.18750000       0.023
  -0.18750000  0.31250000  0.18750000       0.023
   0.43750000  0.43750000  0.18750000       0.012
  -0.43750000  0.43750000  0.18750000       0.023
  -0.31250000  0.43750000  0.18750000       0.023
  -0.18750000  0.43750000  0.18750000       0.023
  -0.43750000 -0.43750000  0.18750000       0.012
  -0.31250000 -0.43750000  0.18750000       0.023
  -0.31250000 -0.31250000  0.18750000       0.012
   0.31250000  0.31250000  0.31250000       0.004
   0.43750000  0.31250000  0.31250000       0.012
  -0.43750000  0.31250000  0.31250000       0.012
  -0.31250000  0.31250000  0.31250000       0.012
   0.43750000  0.43750000  0.31250000       0.012
  -0.43750000  0.43750000  0.31250000       0.023
  -0.31250000  0.43750000  0.31250000       0.023
  -0.43750000 -0.43750000  0.31250000       0.012
   0.43750000  0.43750000  0.43750000       0.004
  -0.43750000  0.43750000  0.43750000       0.012
 
 position of ions in fractional coordinates (direct lattice) 
   0.50000000  0.50000000  0.50000000
   0.00000000  0.00000000  0.00000000
 
 position of ions in cartesian coordinates  (Angst):
   2.23750000  2.23750000  2.23750000
   0.00000000  0.00000000  0.00000000
 


--------------------------------------------------------------------------------------------------------


 k-point  1 :  0.06250.06250.0625  plane waves:     516
 k-point  2 :  0.18750.06250.0625  plane waves:     501
 k-point  3 :  0.31250.06250.0625  plane waves:     493
 k-point  4 :  0.43750.06250.0625  plane waves:     487
 k-point  5 :  -.43750.06250.0625  plane waves:     481
 k-point  6 :  -.31250.06250.0625  plane waves:     488
 k-point  7 :  -.18750.06250.0625  plane waves:     490
 k-point  8 :  -.06250.06250.0625  plane waves:     502
 k-point  9 :  0.18750.18750.0625  plane waves:     497
 k-point 10 :  0.31250.18750.0625  plane waves:     489
 k-point 11 :  0.43750.18750.0625  plane waves:     487
 k-point 12 :  -.43750.18750.0625  plane waves:     482
 k-point 13 :  -.31250.18750.0625  plane waves:     485
 k-point 14 :  -.18750.18750.0625  plane waves:     488
 k-point 15 :  -.06250.18750.0625  plane waves:     493
 k-point 16 :  0.31250.31250.0625  plane waves:     491
 k-point 17 :  0.43750.31250.0625  plane waves:     477
 k-point 18 :  -.43750.31250.0625  plane waves:     483
 k-point 19 :  -.31250.31250.0625  plane waves:     483
 k-point 20 :  -.18750.31250.0625  plane waves:     488
 k-point 21 :  -.06250.31250.0625  plane waves:     490
 k-point 22 :  0.43750.43750.0625  plane waves:     476
 k-point 23 :  -.43750.43750.0625  plane waves:     480
 k-point 24 :  -.31250.43750.0625  plane waves:     482
 k-point 25 :  -.18750.43750.0625  plane waves:     480
 k-point 26 :  -.06250.43750.0625  plane waves:     485
 k-point 27 :  -.4375-.43750.0625  plane waves:     472
 k-point 28 :  -.3125-.43750.0625  plane waves:     476
 k-point 29 :  -.1875-.43750.0625  plane waves:     485
 k-point 30 :  -.3125-.31250.0625  plane waves:     481
 k-point 31 :  -.1875-.31250.0625  plane waves:     485
 k-point 32 :  -.1875-.18750.0625  plane waves:     488
 k-point 33 :  0.18750.18750.1875  plane waves:     489
 k-point 34 :  0.31250.18750.1875  plane waves:     493
 k-point 35 :  0.43750.18750.1875  plane waves:     489
 k-point 36 :  -.43750.18750.1875  plane waves:     484
 k-point 37 :  -.31250.18750.1875  plane waves:     481
 k-point 38 :  -.18750.18750.1875  plane waves:     490
 k-point 39 :  0.31250.31250.1875  plane waves:     491
 k-point 40 :  0.43750.31250.1875  plane waves:     486
 k-point 41 :  -.43750.31250.1875  plane waves:     485
 k-point 42 :  -.31250.31250.1875  plane waves:     484
 k-point 43 :  -.18750.31250.1875  plane waves:     484
 k-point 44 :  0.43750.43750.1875  plane waves:     480
 k-point 45 :  -.43750.43750.1875  plane waves:     484
 k-point 46 :  -.31250.43750.1875  plane waves:     483
 k-point 47 :  -.18750.43750.1875  plane waves:     487
 k-point 48 :  -.4375-.43750.1875  plane waves:     481
 k-point 49 :  -.3125-.43750.1875  plane waves:     485
 k-point 50 :  -.3125-.31250.1875  plane waves:     482
 k-point 51 :  0.31250.31250.3125  plane waves:     492
 k-point 52 :  0.43750.31250.3125  plane waves:     492
 k-point 53 :  -.43750.31250.3125  plane waves:     489
 k-point 54 :  -.31250.31250.3125  plane waves:     484
 k-point 55 :  0.43750.43750.3125  plane waves:     487
 k-point 56 :  -.43750.43750.3125  plane waves:     486
 k-point 57 :  -.31250.43750.3125  plane waves:     484
 k-point 58 :  -.4375-.43750.3125  plane waves:     484
 k-point 59 :  0.43750.43750.4375  plane waves:     483
 k-point 60 :  -.43750.43750.4375  plane waves:     482

 maximum and minimum number of plane-waves per node :       516      472

 maximum number of plane-waves:       516
 maximum index in each direction: 
   IXMAX=    5   IYMAX=    5   IZMAX=    5
   IXMIN=   -5   IYMIN=   -5   IZMIN=   -5

 NGX is ok and might be reduce to  22
 NGY is ok and might be reduce to  22
 NGZ is ok and might be reduce to  22

 serial   3D FFT for wavefunctions
 parallel 3D FFT for charge:
    minimum data exchange during FFTs selected (reduces bandwidth)


 total amount of memory used by VASP on root node    65663. kBytes
========================================================================

   base      :      30000. kBytes
   nonl-proj :       8932. kBytes
   fftplans  :       3916. kBytes
   grid      :      10266. kBytes
   one-center:         62. kBytes
   wavefun   :      12487. kBytes
 
 Broyden mixing: mesh for mixing (old mesh)
   NGX = 11   NGY = 11   NGZ = 11
  (NGX  = 48   NGY  = 48   NGZ  = 48)
  gives a total of   1331 points

 initial charge density was supplied:
 charge density of overlapping atoms calculated
 number of electron       9.0000000 magnetization       8.0000000
 keeping initial charge density in first step


--------------------------------------------------------------------------------------------------------


 Maximum index for augmentation-charges        40707 (set IRDMAX)


--------------------------------------------------------------------------------------------------------


 First call to EWALD:  gamma=   0.629
 Maximum number of real-space cells 3x 3x 3
 Maximum number of reciprocal cells 3x 3x 3

    FEWALD:  cpu time    0.00: real time    0.00


----------------------------------------- Iteration    1(   1)  ---------------------------------------


    POTLOK:  cpu time    0.38: real time    0.38
    SETDIJ:  cpu time    0.07: real time    0.07
     EDDAV:  cpu time    6.49: real time    6.49
       DOS:  cpu time    0.01: real time    0.01
    --------------------------------------------
      LOOP:  cpu time    6.95: real time    6.95

 eigenvalue-minimisations  :  2888
 total energy-change (2. order) : 0.1177416E+02  (-0.4011317E+03)
 number of electron       9.0000000 magnetization       8.0000000
 augmentation part        9.0000000 magnetization       8.0000000

 Free energy of the ion-electron system (eV)
  ---------------------------------------------------
  alpha Z        PSCENC =        52.73762451
  Ewald energy   TEWEN  =      -372.57424044
  -1/2 Hartree   DENC   =       -15.75199326
  -exchange  EXHF       =         0.00000000
  -V(xc)+E(xc)   XCENC  =       -48.23111199
  PAW double counting   =       180.96821906     -107.89329025
  entropy T*S    EENTRO =         0.00013844
  eigenvalues    EBANDS =        44.72539079
  atomic energy  EATOM  =       277.79342126
  ---------------------------------------------------
  free energy    TOTEN  =        11.77415810 eV

  energy without entropy =       11.77401967  energy(sigma->0) =       11.77411196


--------------------------------------------------------------------------------------------------------




----------------------------------------- Iteration    1(   2)  ---------------------------------------


     EDDAV:  cpu time    7.90: real time    7.90
       DOS:  cpu time    0.01: real time    0.01
    --------------------------------------------
      LOOP:  cpu time    7.91: real time    7.91

 eigenvalue-minimisations  :  3800
 total energy-change (2. order) :-0.2989989E+02  (-0.2832985E+02)
 number of electron       9.0000000 magnetization       8.0000000
 augmentation part        9.0000000 magnetization       8.0000000

 Free energy of the ion-electron system (eV)
  ---------------------------------------------------
  alpha Z        PSCENC =        52.73762451
  Ewald energy   TEWEN  =      -372.57424044
  -1/2 Hartree   DENC   =       -15.75199326
  -exchange  EXHF       =         0.00000000
  -V(xc)+E(xc)   XCENC  =       -48.23111199
  PAW double counting   =       180.96821906     -107.89329025
  entropy T*S    EENTRO =        -0.00011889
  eigenvalues    EBANDS =        14.82576088
  atomic energy  EATOM  =       277.79342126
  ---------------------------------------------------
  free energy    TOTEN  =       -18.12572914 eV

  energy without entropy =      -18.12561025  energy(sigma->0) =      -18.12568951


--------------------------------------------------------------------------------------------------------




----------------------------------------- Iteration    1(   3)  ---------------------------------------


     EDDAV:  cpu time    7.36: real time    7.37
       DOS:  cpu time    0.01: real time    0.01
    --------------------------------------------
      LOOP:  cpu time    7.38: real time    7.39

 eigenvalue-minimisations  :  3468
 total energy-change (2. order) :-0.9640561E+00  (-0.9571453E+00)
 number of electron       9.0000000 magnetization       8.0000000
 augmentation part        9.0000000 magnetization       8.0000000

 Free energy of the ion-electron system (eV)
  ---------------------------------------------------
  alpha Z        PSCENC =        52.73762451
  Ewald energy   TEWEN  =      -372.57424044
  -1/2 Hartree   DENC   =       -15.75199326
  -exchange  EXHF       =         0.00000000
  -V(xc)+E(xc)   XCENC  =       -48.23111199
  PAW double counting   =       180.96821906     -107.89329025
  entropy T*S    EENTRO =         0.00001479
  eigenvalues    EBANDS =        13.86157106
  atomic energy  EATOM  =       277.79342126
  ---------------------------------------------------
  free energy    TOTEN  =       -19.08978528 eV

  energy without entropy =      -19.08980007  energy(sigma->0) =      -19.08979021


--------------------------------------------------------------------------------------------------------




----------------------------------------- Iteration    1(   4)  ---------------------------------------


     EDDAV:  cpu time    7.22: real time    7.23
       DOS:  cpu time    0.01: real time    0.01
    --------------------------------------------
      LOOP:  cpu time    7.24: real time    7.25

 eigenvalue-minimisations  :  3356
 total energy-change (2. order) :-0.3203331E-02  (-0.3202934E-02)
 number of electron       9.0000000 magnetization       8.0000000
 augmentation part        9.0000000 magnetization       8.0000000

 Free energy of the ion-electron system (eV)
  ---------------------------------------------------
  alpha Z        PSCENC =        52.73762451
  Ewald energy   TEWEN  =      -372.57424044
  -1/2 Hartree   DENC   =       -15.75199326
  -exchange  EXHF       =         0.00000000
  -V(xc)+E(xc)   XCENC  =       -48.23111199
  PAW double counting   =       180.96821906     -107.89329025
  entropy T*S    EENTRO =         0.00001582
  eigenvalues    EBANDS =        13.85836670
  atomic energy  EATOM  =       277.79342126
  ---------------------------------------------------
  free energy    TOTEN  =       -19.09298861 eV

  energy without entropy =      -19.09300443  energy(sigma->0) =      -19.09299388


--------------------------------------------------------------------------------------------------------




----------------------------------------- Iteration    1(   5)  ---------------------------------------


     EDDAV:  cpu time    7.38: real time    7.39
       DOS:  cpu time    0.01: real time    0.01
    CHARGE:  cpu time    0.46: real time    0.46
    MIXING:  cpu time    0.01: real time    0.01
    --------------------------------------------
      LOOP:  cpu time    7.86: real time    7.88

 eigenvalue-minimisations  :  3524
 total energy-change (2. order) :-0.9475991E-05  (-0.9475609E-05)
 number of electron       9.0000000 magnetization      -1.7086188
 augmentation part        0.3874235 magnetization      -2.5351640

 Broyden mixing:
  rms(total) = 0.18843E+01    rms(broyden)= 0.18843E+01
  rms(prec ) = 0.43483E+01
  weight for this iteration     100.00

 Free energy of the ion-electron system (eV)
  ---------------------------------------------------
  alpha Z        PSCENC =        52.73762451
  Ewald energy   TEWEN  =      -372.57424044
  -1/2 Hartree   DENC   =       -15.75199326
  -exchange  EXHF       =         0.00000000
  -V(xc)+E(xc)   XCENC  =       -48.23111199
  PAW double counting   =       180.96821906     -107.89329025
  entropy T*S    EENTRO =         0.00001584
  eigenvalues    EBANDS =        13.85835720
  atomic energy  EATOM  =       277.79342126
  ---------------------------------------------------
  free energy    TOTEN  =       -19.09299808 eV

  energy without entropy =      -19.09301393  energy(sigma->0) =      -19.09300336


--------------------------------------------------------------------------------------------------------




----------------------------------------- Iteration    1(   6)  ---------------------------------------


    POTLOK:  cpu time    0.42: real time    0.42
    SETDIJ:  cpu time    0.09: real time    0.09
     EDDAV:  cpu time    7.24: real time    7.24
       DOS:  cpu time    0.01: real time    0.01
    CHARGE:  cpu time    0.51: real time    0.51
    MIXING:  cpu time    0.01: real time    0.01
    --------------------------------------------
      LOOP:  cpu time    8.28: real time    8.29

 eigenvalue-minimisations  :  3232
 total energy-change (2. order) :-0.3015481E+01  (-0.1655692E+01)
 number of electron       9.0000000 magnetization       0.1211378
 augmentation part        0.4598309 magnetization       0.3545734

 Broyden mixing:
  rms(total) = 0.43766E+00    rms(broyden)= 0.43754E+00
  rms(prec ) = 0.77023E+00
  weight for this iteration     100.00

 eigenvalues of (default mixing * dielectric matrix)
  average eigenvalue GAMMA=   0.8189
  0.8189

 Free energy of the ion-electron system (eV)
  ---------------------------------------------------
  alpha Z        PSCENC =        52.73762451
  Ewald energy   TEWEN  =      -372.57424044
  -1/2 Hartree   DENC   =       -24.21889053
  -exchange  EXHF       =         0.00000000
  -V(xc)+E(xc)   XCENC  =       -51.15992093
  PAW double counting   =       212.70786463     -140.13229535
  entropy T*S    EENTRO =        -0.00008903
  eigenvalues    EBANDS =        22.73804631
  atomic energy  EATOM  =       277.79342126
  ---------------------------------------------------
  free energy    TOTEN  =       -22.10847958 eV

  energy without entropy =      -22.10839055  energy(sigma->0) =      -22.10844990


--------------------------------------------------------------------------------------------------------




----------------------------------------- Iteration    1(   7)  ---------------------------------------


    POTLOK:  cpu time    0.41: real time    0.41
    SETDIJ:  cpu time    0.09: real time    0.09
     EDDAV:  cpu time    7.65: real time    7.65
       DOS:  cpu time    0.01: real time    0.01
    CHARGE:  cpu time    0.50: real time    0.50
    MIXING:  cpu time    0.01: real time    0.01
    --------------------------------------------
      LOOP:  cpu time    8.67: real time    8.69

 eigenvalue-minimisations  :  3476
 total energy-change (2. order) :-0.2120617E+00  (-0.6396062E-01)
 number of electron       9.0000000 magnetization      -0.1187627
 augmentation part        0.4528210 magnetization      -0.1125522

 Broyden mixing:
  rms(total) = 0.15477E+00    rms(broyden)= 0.15475E+00
  rms(prec ) = 0.44487E+00
  weight for this iteration     100.00

 eigenvalues of (default mixing * dielectric matrix)
  average eigenvalue GAMMA=   0.8215
  0.8215  0.8215

 Free energy of the ion-electron system (eV)
  ---------------------------------------------------
  alpha Z        PSCENC =        52.73762451
  Ewald energy   TEWEN  =      -372.57424044
  -1/2 Hartree   DENC   =       -23.04072056
  -exchange  EXHF       =         0.00000000
  -V(xc)+E(xc)   XCENC  =       -51.35905233
  PAW double counting   =       229.68383589     -157.31985813
  entropy T*S    EENTRO =         0.00031293
  eigenvalues    EBANDS =        21.75813563
  atomic energy  EATOM  =       277.79342126
  ---------------------------------------------------
  free energy    TOTEN  =       -22.32054124 eV

  energy without entropy =      -22.32085417  energy(sigma->0) =      -22.32064555


--------------------------------------------------------------------------------------------------------




----------------------------------------- Iteration    1(   8)  ---------------------------------------


    POTLOK:  cpu time    0.41: real time    0.41
    SETDIJ:  cpu time    0.09: real time    0.09
     EDDAV:  cpu time    7.27: real time    7.27
       DOS:  cpu time    0.01: real time    0.01
    CHARGE:  cpu time    0.50: real time    0.50
    MIXING:  cpu time    0.01: real time    0.01
    --------------------------------------------
      LOOP:  cpu time    8.29: real time    8.31

 eigenvalue-minimisations  :  3252
 total energy-change (2. order) : 0.5967368E-01  (-0.8230379E-02)
 number of electron       9.0000000 magnetization       0.0352832
 augmentation part        0.4603134 magnetization       0.0250019

 Broyden mixing:
  rms(total) = 0.85863E-01    rms(broyden)= 0.85863E-01
  rms(prec ) = 0.15957E+00
  weight for this iteration     100.00

 eigenvalues of (default mixing * dielectric matrix)
  average eigenvalue GAMMA=   1.2450
  2.1614  0.8501  0.7234

 Free energy of the ion-electron system (eV)
  ---------------------------------------------------
  alpha Z        PSCENC =        52.73762451
  Ewald energy   TEWEN  =      -372.57424044
  -1/2 Hartree   DENC   =       -22.54617740
  -exchange  EXHF       =         0.00000000
  -V(xc)+E(xc)   XCENC  =       -51.23642587
  PAW double counting   =       250.71744409     -178.58306790
  entropy T*S    EENTRO =         0.00031167
  eigenvalues    EBANDS =        21.43024253
  atomic energy  EATOM  =       277.79342126
  ---------------------------------------------------
  free energy    TOTEN  =       -22.26086756 eV

  energy without entropy =      -22.26117922  energy(sigma->0) =      -22.26097144


--------------------------------------------------------------------------------------------------------




----------------------------------------- Iteration    1(   9)  ---------------------------------------


    POTLOK:  cpu time    0.41: real time    0.41
    SETDIJ:  cpu time    0.09: real time    0.09
     EDDAV:  cpu time    7.41: real time    7.41
       DOS:  cpu time    0.01: real time    0.01
    CHARGE:  cpu time    0.50: real time    0.50
    MIXING:  cpu time    0.01: real time    0.01
    --------------------------------------------
      LOOP:  cpu time    8.43: real time    8.45

 eigenvalue-minimisations  :  3336
 total energy-change (2. order) : 0.7489550E-02  (-0.2508287E-02)
 number of electron       9.0000000 magnetization       0.0009959
 augmentation part        0.4656792 magnetization       0.0032999

 Broyden mixing:
  rms(total) = 0.24364E-01    rms(broyden)= 0.24363E-01
  rms(prec ) = 0.36756E-01
  weight for this iteration     100.00

 eigenvalues of (default mixing * dielectric matrix)
  average eigenvalue GAMMA=   1.1996
  2.3790  0.8778  0.8778  0.6636

 Free energy of the ion-electron system (eV)
  ---------------------------------------------------
  alpha Z        PSCENC =        52.73762451
  Ewald energy   TEWEN  =      -372.57424044
  -1/2 Hartree   DENC   =       -22.43384037
  -exchange  EXHF       =         0.00000000
  -V(xc)+E(xc)   XCENC  =       -51.16411885
  PAW double counting   =       264.34060915     -192.34527882
  entropy T*S    EENTRO =         0.00021709
  eigenvalues    EBANDS =        21.39222846
  atomic energy  EATOM  =       277.79342126
  ---------------------------------------------------
  free energy    TOTEN  =       -22.25337801 eV

  energy without entropy =      -22.25359509  energy(sigma->0) =      -22.25345037


--------------------------------------------------------------------------------------------------------




----------------------------------------- Iteration    1(  10)  ---------------------------------------


    POTLOK:  cpu time    0.41: real time    0.41
    SETDIJ:  cpu time    0.09: real time    0.09
     EDDAV:  cpu time    7.23: real time    7.23
       DOS:  cpu time    0.01: real time    0.01
    CHARGE:  cpu time    0.50: real time    0.50
    MIXING:  cpu time    0.01: real time    0.01
    --------------------------------------------
      LOOP:  cpu time    8.25: real time    8.27

 eigenvalue-minimisations  :  3236
 total energy-change (2. order) : 0.2124758E-02  (-0.1203631E-03)
 number of electron       9.0000000 magnetization      -0.0011659
 augmentation part        0.4650983 magnetization      -0.0027499

 Broyden mixing:
  rms(total) = 0.56726E-02    rms(broyden)= 0.56725E-02
  rms(prec ) = 0.11137E-01
  weight for this iteration     100.00

 eigenvalues of (default mixing * dielectric matrix)
  average eigenvalue GAMMA=   1.1146
  2.3214  0.9323  0.9323  0.7498  0.6372

 Free energy of the ion-electron system (eV)
  ---------------------------------------------------
  alpha Z        PSCENC =        52.73762451
  Ewald energy   TEWEN  =      -372.57424044
  -1/2 Hartree   DENC   =       -22.47365020
  -exchange  EXHF       =         0.00000000
  -V(xc)+E(xc)   XCENC  =       -51.17570244
  PAW double counting   =       263.66400954     -191.66182742
  entropy T*S    EENTRO =         0.00024207
  eigenvalues    EBANDS =        21.43886988
  atomic energy  EATOM  =       277.79342126
  ---------------------------------------------------
  free energy    TOTEN  =       -22.25125325 eV

  energy without entropy =      -22.25149532  energy(sigma->0) =      -22.25133394


--------------------------------------------------------------------------------------------------------




----------------------------------------- Iteration    1(  11)  ---------------------------------------


    POTLOK:  cpu time    0.41: real time    0.41
    SETDIJ:  cpu time    0.09: real time    0.09
     EDDAV:  cpu time    6.64: real time    6.64
       DOS:  cpu time    0.01: real time    0.01
    CHARGE:  cpu time    0.50: real time    0.50
    MIXING:  cpu time    0.01: real time    0.01
    --------------------------------------------
      LOOP:  cpu time    7.67: real time    7.73

 eigenvalue-minimisations  :  2840
 total energy-change (2. order) : 0.1615270E-03  (-0.1436113E-04)
 number of electron       9.0000000 magnetization      -0.0012509
 augmentation part        0.4650025 magnetization      -0.0008136

 Broyden mixing:
  rms(total) = 0.32963E-02    rms(broyden)= 0.32963E-02
  rms(prec ) = 0.64171E-02
  weight for this iteration     100.00

 eigenvalues of (default mixing * dielectric matrix)
  average eigenvalue GAMMA=   1.2279
  2.2318  1.9586  0.9168  0.9168  0.7199  0.6236

 Free energy of the ion-electron system (eV)
  ---------------------------------------------------
  alpha Z        PSCENC =        52.73762451
  Ewald energy   TEWEN  =      -372.57424044
  -1/2 Hartree   DENC   =       -22.49136288
  -exchange  EXHF       =         0.00000000
  -V(xc)+E(xc)   XCENC  =       -51.17725923
  PAW double counting   =       264.66994669     -192.67705845
  entropy T*S    EENTRO =         0.00024357
  eigenvalues    EBANDS =        21.46759324
  atomic energy  EATOM  =       277.79342126
  ---------------------------------------------------
  free energy    TOTEN  =       -22.25109172 eV

  energy without entropy =      -22.25133529  energy(sigma->0) =      -22.25117291


--------------------------------------------------------------------------------------------------------




----------------------------------------- Iteration    1(  12)  ---------------------------------------


    POTLOK:  cpu time    0.41: real time    0.41
    SETDIJ:  cpu time    0.10: real time    0.10
     EDDAV:  cpu time    4.85: real time    4.85
       DOS:  cpu time    0.01: real time    0.01
    --------------------------------------------
      LOOP:  cpu time    5.37: real time    5.38

 eigenvalue-minimisations  :  1692
 total energy-change (2. order) : 0.3621697E-04  (-0.3524676E-05)
 number of electron       9.0000000 magnetization      -0.0012509
 augmentation part        0.4650025 magnetization      -0.0008136

 Free energy of the ion-electron system (eV)
  ---------------------------------------------------
  alpha Z        PSCENC =        52.73762451
  Ewald energy   TEWEN  =      -372.57424044
  -1/2 Hartree   DENC   =       -22.49989968
  -exchange  EXHF       =         0.00000000
  -V(xc)+E(xc)   XCENC  =       -51.17587890
  PAW double counting   =       265.88816651     -193.90630477
  entropy T*S    EENTRO =         0.00023717
  eigenvalues    EBANDS =        21.48581883
  atomic energy  EATOM  =       277.79342126
  ---------------------------------------------------
  free energy    TOTEN  =       -22.25105550 eV

  energy without entropy =      -22.25129267  energy(sigma->0) =      -22.25113456


--------------------------------------------------------------------------------------------------------




 average (electrostatic) potential at core
  the test charge radii are     0.6991  1.2538
  (the norm of the test charge is              1.0000)
       1 -46.5627       2 -34.0547
 
 
 
 E-fermi :   8.3317     XC(G=0): -12.9599     alpha+bet :-15.4100


 spin component 1

 k-point   1 :       0.0625    0.0625    0.0625
  band No.  band energies     occupation 
      1      -6.1029      1.00000
      2       6.5865      1.00000
      3       6.9271      1.00000
      4       6.9271      1.00000
      5       7.6673      1.00000
      6       7.6673      1.00000
      7       8.3946     -0.03529
      8       9.9569      0.00000
      9       9.9569      0.00000
     10      15.1528      0.00000
     11      18.8141      0.00000
     12      20.7984      0.00000

 k-point   2 :       0.1875    0.0625    0.0625
  band No.  band energies     occupation 
      1      -5.5759      1.00000
      2       5.0401      1.00000
      3       5.5019      1.00000
      4       5.6654      1.00000
      5       7.6433      1.00000
      6       8.5546      0.00000
      7       9.1993      0.00000
      8      11.0543      0.00000
      9      12.5864      0.00000
     10      16.1485      0.00000
     11      20.1030      0.00000
     12      20.7985      0.00000

 k-point   3 :       0.3125    0.0625    0.0625
  band No.  band energies     occupation 
      1      -4.3902      1.00000
      2       2.8534      1.00000
      3       4.0790      1.00000
      4       4.3803      1.00000
      5       8.7794      0.00000
      6       9.3540      0.00000
      7      10.1234      0.00000
      8      13.7526      0.00000
      9      15.4701      0.00000
     10      17.1114      0.00000
     11      20.7908      0.00000
     12      21.5378      0.00000

 k-point   4 :       0.4375    0.0625    0.0625
  band No.  band energies     occupation 
      1      -2.8711      1.00000
      2       0.8962      1.00000
      3       3.2962      1.00000
      4       3.4612      1.00000
      5      10.2667      0.00000
      6      10.4645      0.00000
      7      11.3963      0.00000
      8      15.4605      0.00000
      9      16.4961      0.00000
     10      17.8098      0.00000
     11      20.7881      0.00000
     12      21.8574      0.00000

 k-point   5 :      -0.4375    0.0625    0.0625
  band No.  band energies     occupation 
      1      -2.0936      1.00000
      2       0.0350      1.00000
      3       3.1403      1.00000
      4       3.1890      1.00000
      5      10.7759      0.00000
      6      11.1750      0.00000
      7      12.0074      0.00000
      8      14.3056      0.00000
      9      17.8448      0.00000
     10      18.2000      0.00000
     11      20.7787      0.00000
     12      20.9158      0.00000

 k-point   6 :      -0.3125    0.0625    0.0625
  band No.  band energies     occupation 
      1      -3.3955      1.00000
      2       1.5098      1.00000
      3       3.4881      1.00000
      4       3.7512      1.00000
      5       9.3927      0.00000
      6      10.5237      0.00000
      7      10.8770      0.00000
      8      15.7095      0.00000
      9      16.0525      0.00000
     10      17.2784      0.00000
     11      20.7859      0.00000
     12      21.7852      0.00000

 k-point   7 :      -0.1875    0.0625    0.0625
  band No.  band energies     occupation 
      1      -4.8487      1.00000
      2       3.5013      1.00000
      3       4.5335      1.00000
      4       4.9216      1.00000
      5       8.0894      1.00000
      6       9.1937      0.00000
      7       9.7511      0.00000
      8      12.9706      0.00000
      9      14.2636      0.00000
     10      17.0972      0.00000
     11      20.7946      0.00000
     12      21.2989      0.00000

 k-point   8 :      -0.0625    0.0625    0.0625
  band No.  band energies     occupation 
      1      -5.8375      1.00000
      2       5.5586      1.00000
      3       6.1434      1.00000
      4       6.3759      1.00000
      5       7.1959      1.00000
      6       8.4885     -0.00004
      7       9.0328      0.00000
      8      10.1877      0.00000
      9      11.5982      0.00000
     10      15.7508      0.00000
     11      19.5027      0.00000
     12      20.7987      0.00000

 k-point   9 :       0.1875    0.1875    0.0625
  band No.  band energies     occupation 
      1      -5.3544      1.00000
      2       4.0701      1.00000
      3       5.6396      1.00000
      4       6.0266      1.00000
      5       6.8173      1.00000
      6       9.2570      0.00000
      7      10.0257      0.00000
      8      10.6986      0.00000
      9      12.9064      0.00000
     10      17.0043      0.00000
     11      20.7260      0.00000
     12      20.7987      0.00000

 k-point  10 :       0.3125    0.1875    0.0625
  band No.  band energies     occupation 
      1      -4.5170      1.00000
      2       2.7717      1.00000
      3       4.6144      1.00000
      4       5.0751      1.00000
      5       7.3475      1.00000
      6      10.1337      0.00000
      7      10.9399      0.00000
      8      12.0512      0.00000
      9      14.7247      0.00000
     10      18.3667      0.00000
     11      20.7950      0.00000
     12      22.1211      0.00000

 k-point  11 :       0.4375    0.1875    0.0625
  band No.  band energies     occupation 
      1      -3.3599      1.00000
      2       1.5643      1.00000
      3       3.5955      1.00000
      4       4.1386      1.00000
      5       8.4434     -0.00349
      6      11.0991      0.00000
      7      11.7671      0.00000
      8      14.2916      0.00000
      9      16.0562      0.00000
     10      18.4564      0.00000
     11      20.7411      0.00000
     12      21.0478      0.00000

 k-point  12 :      -0.4375    0.1875    0.0625
  band No.  band energies     occupation 
      1      -2.4843      1.00000
      2       0.6695      1.00000
      3       3.3428      1.00000
      4       3.5401      1.00000
      5       9.9415      0.00000
      6      11.0139      0.00000
      7      11.9240      0.00000
      8      15.5768      0.00000
      9      16.7754      0.00000
     10      17.7259      0.00000
     11      20.7448      0.00000
     12      20.9953      0.00000

 k-point  13 :      -0.3125    0.1875    0.0625
  band No.  band energies     occupation 
      1      -2.8843      1.00000
      2       1.0684      1.00000
      3       3.4218      1.00000
      4       3.6718      1.00000
      5       9.5794      0.00000
      6      10.9677      0.00000
      7      11.6768      0.00000
      8      14.7785      0.00000
      9      16.3814      0.00000
     10      18.3228      0.00000
     11      20.7808      0.00000
     12      21.5250      0.00000

 k-point  14 :      -0.1875    0.1875    0.0625
  band No.  band energies     occupation 
      1      -4.0653      1.00000
      2       2.3984      1.00000
      3       4.0065      1.00000
      4       4.2720      1.00000
      5       8.3544      0.15563
      6      10.4957      0.00000
      7      11.0306      0.00000
      8      12.5484      0.00000
      9      16.1926      0.00000
     10      17.8781      0.00000
     11      20.7909      0.00000
     12      21.9479      0.00000

 k-point  15 :      -0.0625    0.1875    0.0625
  band No.  band energies     occupation 
      1      -5.0991      1.00000
      2       3.8483      1.00000
      3       4.9722      1.00000
      4       5.2453      1.00000
      5       7.5969      1.00000
      6       9.3048      0.00000
      7       9.9374      0.00000
      8      11.5363      0.00000
      9      13.8886      0.00000
     10      17.0788      0.00000
     11      20.7975      0.00000
     12      21.1143      0.00000

 k-point  16 :       0.3125    0.3125    0.0625
  band No.  band energies     occupation 
      1      -4.2594      1.00000
      2       2.3936      1.00000
      3       4.8002      1.00000
      4       5.9219      1.00000
      5       6.3830      1.00000
      6      10.3625      0.00000
      7      11.9367      0.00000
      8      12.1341      0.00000
      9      14.5766      0.00000
     10      19.7201      0.00000
     11      20.7896      0.00000
     12      21.7752      0.00000

 k-point  17 :       0.4375    0.3125    0.0625
  band No.  band energies     occupation 
      1      -3.7852      1.00000
      2       2.3632      1.00000
      3       4.0742      1.00000
      4       5.2421      1.00000
      5       7.1537      1.00000
      6      11.4197      0.00000
      7      12.3392      0.00000
      8      12.6817      0.00000
      9      15.7739      0.00000
     10      18.9065      0.00000
     11      20.1461      0.00000
     12      20.8107      0.00000

 k-point  18 :      -0.4375    0.3125    0.0625
  band No.  band energies     occupation 
      1      -3.2501      1.00000
      2       2.1617      1.00000
      3       3.5663      1.00000
      4       4.4270      1.00000
      5       8.2203      1.00358
      6      11.5175      0.00000
      7      12.2414      0.00000
      8      14.4059      0.00000
      9      15.7699      0.00000
     10      18.5638      0.00000
     11      20.0870      0.00000
     12      20.8122      0.00000

 k-point  19 :      -0.3125    0.3125    0.0625
  band No.  band energies     occupation 
      1      -2.8798      1.00000
      2       1.5531      1.00000
      3       3.5176      1.00000
      4       3.8401      1.00000
      5       9.8696      0.00000
      6      10.4302      0.00000
      7      12.0629      0.00000
      8      14.0680      0.00000
      9      16.7915      0.00000
     10      19.1054      0.00000
     11      20.7660      0.00000
     12      21.0549      0.00000

 k-point  20 :      -0.1875    0.3125    0.0625
  band No.  band energies     occupation 
      1      -3.1101      1.00000
      2       1.4376      1.00000
      3       3.5962      1.00000
      4       3.7271      1.00000
      5       9.3420      0.00000
      6      11.2751      0.00000
      7      11.6242      0.00000
      8      13.2851      0.00000
      9      16.9879      0.00000
     10      18.4661      0.00000
     11      20.7817      0.00000
     12      21.6015      0.00000

 k-point  21 :      -0.0625    0.3125    0.0625
  band No.  band energies     occupation 
      1      -3.8289      1.00000
      2       2.0582      1.00000
      3       3.7395      1.00000
      4       4.1556      1.00000
      5       8.6821      0.00000
      6      10.2101      0.00000
      7      10.9897      0.00000
      8      14.0945      0.00000
      9      16.2052      0.00000
     10      17.5602      0.00000
     11      20.7865      0.00000
     12      21.6875      0.00000

 k-point  22 :       0.4375    0.4375    0.0625
  band No.  band energies     occupation 
      1      -3.9955      1.00000
      2       3.1574      1.00000
      3       4.1322      1.00000
      4       6.3159      1.00000
      5       6.6296      1.00000
      6      11.1434      0.00000
      7      12.5223      0.00000
      8      12.5371      0.00000
      9      15.9691      0.00000
     10      16.7633      0.00000
     11      20.6391      0.00000
     12      20.8076      0.00000

 k-point  23 :      -0.4375    0.4375    0.0625
  band No.  band energies     occupation 
      1      -3.8488      1.00000
      2       3.6037      1.00000
      3       3.7847      1.00000
      4       5.4474      1.00000
      5       7.3037      1.00000
      6      12.1038      0.00000
      7      12.3083      0.00000
      8      12.4906      0.00000
      9      15.3136      0.00000
     10      17.2634      0.00000
     11      20.4478      0.00000
     12      20.8054      0.00000

 k-point  24 :      -0.3125    0.4375    0.0625
  band No.  band energies     occupation 
      1      -3.3476      1.00000
      2       2.6286      1.00000
      3       3.5881      1.00000
      4       4.5202      1.00000
      5       8.1563      1.00000
      6      11.4364      0.00000
      7      12.3781      0.00000
      8      14.3563      0.00000
      9      14.9227      0.00000
     10      18.9675      0.00000
     11      20.4869      0.00000
     12      20.8100      0.00000

 k-point  25 :      -0.1875    0.4375    0.0625
  band No.  band energies     occupation 
      1      -2.7090      1.00000
      2       1.1555      1.00000
      3       3.4630      1.00000
      4       3.7232      1.00000
      5       9.8980      0.00000
      6      10.6238      0.00000
      7      11.8694      0.00000
      8      15.3053      0.00000
      9      16.6455      0.00000
     10      18.0187      0.00000
     11      20.7542      0.00000
     12      21.0580      0.00000

 k-point  26 :      -0.0625    0.4375    0.0625
  band No.  band energies     occupation 
      1      -2.4866      1.00000
      2       0.5173      1.00000
      3       3.2438      1.00000
      4       3.4221      1.00000
      5      10.0994      0.00000
      6      11.0964      0.00000
      7      11.8167      0.00000
      8      15.1551      0.00000
      9      16.6650      0.00000
     10      18.2487      0.00000
     11      20.7805      0.00000
     12      21.2759      0.00000

 k-point  27 :      -0.4375   -0.4375    0.0625
  band No.  band energies     occupation 
      1      -4.0458      1.00000
      2       3.7400      1.00000
      3       3.9781      1.00000
      4       6.4743      1.00000
      5       6.7423      1.00000
      6      11.3487      0.00000
      7      12.4313      0.00000
      8      12.4819      0.00000
      9      15.3945      0.00000
     10      16.5195      0.00000
     11      20.4543      0.00000
     12      20.8051      0.00000

 k-point  28 :      -0.3125   -0.4375    0.0625
  band No.  band energies     occupation 
      1      -3.7879      1.00000
      2       2.9887      1.00000
      3       3.8902      1.00000
      4       5.3955      1.00000
      5       7.2319      1.00000
      6      11.8406      0.00000
      7      12.3994      0.00000
      8      12.5969      0.00000
      9      16.0666      0.00000
     10      17.2944      0.00000
     11      20.4265      0.00000
     12      20.8073      0.00000

 k-point  29 :      -0.1875   -0.4375    0.0625
  band No.  band energies     occupation 
      1      -3.1829      1.00000
      2       1.6506      1.00000
      3       3.5582      1.00000
      4       4.2616      1.00000
      5       8.2975      0.95415
      6      11.5549      0.00000
      7      12.1215      0.00000
      8      14.3597      0.00000
      9      16.1190      0.00000
     10      18.8515      0.00000
     11      19.8361      0.00000
     12      20.8150      0.00000

 k-point  30 :      -0.3125   -0.3125    0.0625
  band No.  band energies     occupation 
      1      -4.0105      1.00000
      2       2.5353      1.00000
      3       4.4186      1.00000
      4       6.0941      1.00000
      5       6.4661      1.00000
      6      10.7966      0.00000
      7      12.4220      0.00000
      8      12.5098      0.00000
      9      15.3042      0.00000
     10      18.8113      0.00000
     11      20.6696      0.00000
     12      20.8170      0.00000

 k-point  31 :      -0.1875   -0.3125    0.0625
  band No.  band energies     occupation 
      1      -4.0190      1.00000
      2       2.2292      1.00000
      3       4.3191      1.00000
      4       5.0982      1.00000
      5       7.1755      1.00000
      6      10.8503      0.00000
      7      11.8335      0.00000
      8      12.5129      0.00000
      9      15.2624      0.00000
     10      19.4090      0.00000
     11      20.7644      0.00000
     12      21.1922      0.00000

 k-point  32 :      -0.1875   -0.1875    0.0625
  band No.  band energies     occupation 
      1      -4.7657      1.00000
      2       2.9394      1.00000
      3       5.2166      1.00000
      4       5.8827      1.00000
      5       6.4956      1.00000
      6       9.8636      0.00000
      7      11.0695      0.00000
      8      11.4408      0.00000
      9      13.8208      0.00000
     10      18.5577      0.00000
     11      20.7974      0.00000
     12      22.2382      0.00000

 k-point  33 :       0.1875    0.1875    0.1875
  band No.  band energies     occupation 
      1      -5.3186      1.00000
      2       4.4412      1.00000
      3       5.2022      1.00000
      4       5.2022      1.00000
      5       8.2838      1.02006
      6       8.2838      1.02006
      7       9.1357      0.00000
      8      12.7229      0.00000
      9      12.7229      0.00000
     10      16.4285      0.00000
     11      20.5760      0.00000
     12      20.8001      0.00000

 k-point  34 :       0.3125    0.1875    0.1875
  band No.  band energies     occupation 
      1      -4.6331      1.00000
      2       3.2715      1.00000
      3       4.2616      1.00000
      4       4.6133      1.00000
      5       8.2485      1.02014
      6       9.7615      0.00000
      7      10.2568      0.00000
      8      12.0752      0.00000
      9      15.3907      0.00000
     10      17.2532      0.00000
     11      20.7954      0.00000
     12      21.6533      0.00000

 k-point  35 :       0.4375    0.1875    0.1875
  band No.  band energies     occupation 
      1      -3.5251      1.00000
      2       1.8150      1.00000
      3       3.6172      1.00000
      4       3.9019      1.00000
      5       9.1146      0.00000
      6      10.7486      0.00000
      7      11.4646      0.00000
      8      12.9613      0.00000
      9      17.0976      0.00000
     10      17.7045      0.00000
     11      20.7887      0.00000
     12      21.8535      0.00000

 k-point  36 :      -0.4375    0.1875    0.1875
  band No.  band energies     occupation 
      1      -2.6122      1.00000
      2       0.8515      1.00000
      3       3.4731      1.00000
      4       3.4883      1.00000
      5      10.4734      0.00000
      6      10.6193      0.00000
      7      11.4288      0.00000
      8      15.0839      0.00000
      9      16.9546      0.00000
     10      17.9206      0.00000
     11      20.7830      0.00000
     12      21.3758      0.00000

 k-point  37 :      -0.3125    0.1875    0.1875
  band No.  band energies     occupation 
      1      -2.8161      1.00000
      2       1.1103      1.00000
      3       3.3995      1.00000
      4       3.8883      1.00000
      5       8.9414      0.00000
      6      11.4618      0.00000
      7      12.0651      0.00000
      8      15.7575      0.00000
      9      15.7620      0.00000
     10      18.3029      0.00000
     11      20.2135      0.00000
     12      20.8223      0.00000

 k-point  38 :      -0.1875    0.1875    0.1875
  band No.  band energies     occupation 
      1      -3.7826      1.00000
      2       1.9946      1.00000
      3       3.9308      1.00000
      4       4.8059      1.00000
      5       7.5169      1.00000
      6      10.9883      0.00000
      7      11.7434      0.00000
      8      13.4659      0.00000
      9      15.5706      0.00000
     10      18.9568      0.00000
     11      20.7089      0.00000
     12      20.9604      0.00000

 k-point  39 :       0.3125    0.3125    0.1875
  band No.  band energies     occupation 
      1      -4.2734      1.00000
      2       2.5276      1.00000
      3       4.1525      1.00000
      4       4.7848      1.00000
      5       7.7692      1.00000
      6      10.1457      0.00000
      7      10.7817      0.00000
      8      13.2610      0.00000
      9      15.1531      0.00000
     10      18.0961      0.00000
     11      20.7904      0.00000
     12      21.7572      0.00000

 k-point  40 :       0.4375    0.3125    0.1875
  band No.  band energies     occupation 
      1      -3.5907      1.00000
      2       1.8897      1.00000
      3       3.8872      1.00000
      4       4.1898      1.00000
      5       8.2544      1.02563
      6      11.2556      0.00000
      7      11.7581      0.00000
      8      12.9090      0.00000
      9      16.2354      0.00000
     10      18.8157      0.00000
     11      20.7571      0.00000
     12      21.1415      0.00000

 k-point  41 :      -0.4375    0.3125    0.1875
  band No.  band energies     occupation 
      1      -3.0152      1.00000
      2       1.6275      1.00000
      3       3.5756      1.00000
      4       3.8387      1.00000
      5       9.3685      0.00000
      6      10.9823      0.00000
      7      12.0889      0.00000
      8      13.5672      0.00000
      9      16.7970      0.00000
     10      19.0139      0.00000
     11      20.7107      0.00000
     12      20.9572      0.00000

 k-point  42 :      -0.3125    0.3125    0.1875
  band No.  band energies     occupation 
      1      -2.9673      1.00000
      2       1.7505      1.00000
      3       3.5041      1.00000
      4       3.9580      1.00000
      5       9.4129      0.00000
      6      10.6044      0.00000
      7      12.2031      0.00000
      8      15.0854      0.00000
      9      15.5309      0.00000
     10      19.0304      0.00000
     11      20.6674      0.00000
     12      20.8967      0.00000

 k-point  43 :      -0.1875    0.3125    0.1875
  band No.  band energies     occupation 
      1      -3.3993      1.00000
      2       2.0206      1.00000
      3       3.7547      1.00000
      4       4.3204      1.00000
      5       8.2089      1.00141
      6      11.6340      0.00000
      7      12.1944      0.00000
      8      13.0474      0.00000
      9      16.3511      0.00000
     10      19.1774      0.00000
     11      19.9503      0.00000
     12      20.8151      0.00000

 k-point  44 :       0.4375    0.4375    0.1875
  band No.  band energies     occupation 
      1      -3.5632      1.00000
      2       2.0994      1.00000
      3       3.7929      1.00000
      4       4.9493      1.00000
      5       7.3912      1.00000
      6      11.6030      0.00000
      7      12.2611      0.00000
      8      13.4810      0.00000
      9      15.9199      0.00000
     10      18.9968      0.00000
     11      19.6422      0.00000
     12      20.8103      0.00000

 k-point  45 :      -0.4375    0.4375    0.1875
  band No.  band energies     occupation 
      1      -3.4467      1.00000
      2       2.6437      1.00000
      3       3.6613      1.00000
      4       4.4317      1.00000
      5       8.2434      1.01577
      6      11.5729      0.00000
      7      12.4032      0.00000
      8      13.1130      0.00000
      9      15.9408      0.00000
     10      18.5874      0.00000
     11      20.3766      0.00000
     12      20.8119      0.00000

 k-point  46 :      -0.3125    0.4375    0.1875
  band No.  band energies     occupation 
      1      -3.2716      1.00000
      2       2.9371      1.00000
      3       3.5365      1.00000
      4       3.8359      1.00000
      5       9.4445      0.00000
      6      10.5955      0.00000
      7      12.4681      0.00000
      8      13.5515      0.00000
      9      14.8452      0.00000
     10      20.4242      0.00000
     11      20.8301      0.00000
     12      21.1671      0.00000

 k-point  47 :      -0.1875    0.4375    0.1875
  band No.  band energies     occupation 
      1      -3.1458      1.00000
      2       2.2583      1.00000
      3       3.5416      1.00000
      4       3.9708      1.00000
      5       9.4044      0.00000
      6      10.5966      0.00000
      7      12.3874      0.00000
      8      13.7371      0.00000
      9      15.7000      0.00000
     10      19.8705      0.00000
     11      20.6847      0.00000
     12      20.8901      0.00000

 k-point  48 :      -0.4375   -0.4375    0.1875
  band No.  band energies     occupation 
      1      -3.6555      1.00000
      2       3.1741      1.00000
      3       3.6846      1.00000
      4       5.2781      1.00000
      5       7.2673      1.00000
      6      11.9458      0.00000
      7      12.4297      0.00000
      8      13.3827      0.00000
      9      15.1379      0.00000
     10      17.8105      0.00000
     11      20.3817      0.00000
     12      20.8060      0.00000

 k-point  49 :      -0.3125   -0.4375    0.1875
  band No.  band energies     occupation 
      1      -3.5324      1.00000
      2       3.3024      1.00000
      3       3.6272      1.00000
      4       4.3495      1.00000
      5       8.2903      0.99660
      6      11.5481      0.00000
      7      12.4661      0.00000
      8      13.0900      0.00000
      9      15.0851      0.00000
     10      18.7852      0.00000
     11      20.6496      0.00000
     12      20.8096      0.00000

 k-point  50 :      -0.3125   -0.3125    0.1875
  band No.  band energies     occupation 
      1      -3.5838      1.00000
      2       2.6621      1.00000
      3       3.7087      1.00000
      4       5.1405      1.00000
      5       7.3338      1.00000
      6      11.9035      0.00000
      7      12.3539      0.00000
      8      13.4024      0.00000
      9      15.9559      0.00000
     10      17.7371      0.00000
     11      20.1369      0.00000
     12      20.8074      0.00000

 k-point  51 :       0.3125    0.3125    0.3125
  band No.  band energies     occupation 
      1      -3.9440      1.00000
      2       2.2198      1.00000
      3       3.8695      1.00000
      4       3.8695      1.00000
      5       9.6238      0.00000
      6       9.6238      0.00000
      7      10.0143      0.00000
      8      15.5982      0.00000
      9      15.5982      0.00000
     10      16.7691      0.00000
     11      20.7867      0.00000
     12      21.5997      0.00000

 k-point  52 :       0.4375    0.3125    0.3125
  band No.  band energies     occupation 
      1      -3.2937      1.00000
      2       1.4526      1.00000
      3       3.4746      1.00000
      4       3.7768      1.00000
      5       9.5642      0.00000
[...]
      5       7.7686      1.00000
      6      10.1449      0.00000
      7      10.7810      0.00000
      8      13.2611      0.00000
      9      15.1533      0.00000
     10      18.0961      0.00000
     11      20.7901      0.00000
     12      21.7561      0.00000

 k-point  40 :       0.4375    0.3125    0.1875
  band No.  band energies     occupation 
      1      -3.5903      1.00000
      2       1.8896      1.00000
      3       3.8870      1.00000
      4       4.1898      1.00000
      5       8.2539      1.02508
      6      11.2548      0.00000
      7      11.7573      0.00000
      8      12.9089      0.00000
      9      16.2355      0.00000
     10      18.8159      0.00000
     11      20.7570      0.00000
     12      21.1413      0.00000

 k-point  41 :      -0.4375    0.3125    0.1875
  band No.  band energies     occupation 
      1      -3.0147      1.00000
      2       1.6274      1.00000
      3       3.5754      1.00000
      4       3.8388      1.00000
      5       9.3679      0.00000
      6      10.9813      0.00000
      7      12.0881      0.00000
      8      13.5672      0.00000
      9      16.7972      0.00000
     10      19.0137      0.00000
     11      20.7109      0.00000
     12      20.9569      0.00000

 k-point  42 :      -0.3125    0.3125    0.1875
  band No.  band energies     occupation 
      1      -2.9667      1.00000
      2       1.7503      1.00000
      3       3.5041      1.00000
      4       3.9582      1.00000
      5       9.4123      0.00000
      6      10.6035      0.00000
      7      12.2020      0.00000
      8      15.0855      0.00000
      9      15.5311      0.00000
     10      19.0298      0.00000
     11      20.6677      0.00000
     12      20.8963      0.00000

 k-point  43 :      -0.1875    0.3125    0.1875
  band No.  band energies     occupation 
      1      -3.3988      1.00000
      2       2.0206      1.00000
      3       3.7544      1.00000
      4       4.3206      1.00000
      5       8.2085      1.00136
      6      11.6330      0.00000
      7      12.1934      0.00000
      8      13.0473      0.00000
      9      16.3512      0.00000
     10      19.1774      0.00000
     11      19.9503      0.00000
     12      20.8147      0.00000

 k-point  44 :       0.4375    0.4375    0.1875
  band No.  band energies     occupation 
      1      -3.5627      1.00000
      2       2.0993      1.00000
      3       3.7926      1.00000
      4       4.9494      1.00000
      5       7.3909      1.00000
      6      11.6020      0.00000
      7      12.2600      0.00000
      8      13.4809      0.00000
      9      15.9200      0.00000
     10      18.9969      0.00000
     11      19.6420      0.00000
     12      20.8099      0.00000

 k-point  45 :      -0.4375    0.4375    0.1875
  band No.  band energies     occupation 
      1      -3.4462      1.00000
      2       2.6437      1.00000
      3       3.6609      1.00000
      4       4.4319      1.00000
      5       8.2432      1.01559
      6      11.5719      0.00000
      7      12.4020      0.00000
      8      13.1129      0.00000
      9      15.9410      0.00000
     10      18.5873      0.00000
     11      20.3764      0.00000
     12      20.8115      0.00000

 k-point  46 :      -0.3125    0.4375    0.1875
  band No.  band energies     occupation 
      1      -3.2711      1.00000
      2       2.9371      1.00000
      3       3.5363      1.00000
      4       3.8360      1.00000
      5       9.4442      0.00000
      6      10.5948      0.00000
      7      12.4668      0.00000
      8      13.5512      0.00000
      9      14.8454      0.00000
     10      20.4246      0.00000
     11      20.8296      0.00000
     12      21.1664      0.00000

 k-point  47 :      -0.1875    0.4375    0.1875
  band No.  band energies     occupation 
      1      -3.1452      1.00000
      2       2.2582      1.00000
      3       3.5414      1.00000
      4       3.9709      1.00000
      5       9.4039      0.00000
      6      10.5958      0.00000
      7      12.3862      0.00000
      8      13.7370      0.00000
      9      15.7002      0.00000
     10      19.8701      0.00000
     11      20.6849      0.00000
     12      20.8897      0.00000

 k-point  48 :      -0.4375   -0.4375    0.1875
  band No.  band energies     occupation 
      1      -3.6550      1.00000
      2       3.1738      1.00000
      3       3.6846      1.00000
      4       5.2784      1.00000
      5       7.2671      1.00000
      6      11.9445      0.00000
      7      12.4286      0.00000
      8      13.3828      0.00000
      9      15.1378      0.00000
     10      17.8107      0.00000
     11      20.3811      0.00000
     12      20.8056      0.00000

 k-point  49 :      -0.3125   -0.4375    0.1875
  band No.  band energies     occupation 
      1      -3.5320      1.00000
      2       3.3023      1.00000
      3       3.6270      1.00000
      4       4.3496      1.00000
      5       8.2902      0.99713
      6      11.5472      0.00000
      7      12.4648      0.00000
      8      13.0899      0.00000
      9      15.0852      0.00000
     10      18.7854      0.00000
     11      20.6489      0.00000
     12      20.8092      0.00000

 k-point  50 :      -0.3125   -0.3125    0.1875
  band No.  band energies     occupation 
      1      -3.5833      1.00000
      2       2.6620      1.00000
      3       3.7084      1.00000
      4       5.1407      1.00000
      5       7.3336      1.00000
      6      11.9024      0.00000
      7      12.3528      0.00000
      8      13.4024      0.00000
      9      15.9562      0.00000
     10      17.7370      0.00000
     11      20.1366      0.00000
     12      20.8070      0.00000

 k-point  51 :       0.3125    0.3125    0.3125
  band No.  band energies     occupation 
      1      -3.9436      1.00000
      2       2.2197      1.00000
      3       3.8695      1.00000
      4       3.8695      1.00000
      5       9.6229      0.00000
      6       9.6229      0.00000
      7      10.0136      0.00000
      8      15.5986      0.00000
      9      15.5986      0.00000
     10      16.7687      0.00000
     11      20.7864      0.00000
     12      21.5987      0.00000

 k-point  52 :       0.4375    0.3125    0.3125
  band No.  band energies     occupation 
      1      -3.2932      1.00000
      2       1.4525      1.00000
      3       3.4747      1.00000
      4       3.7767      1.00000
      5       9.5632      0.00000
      6      10.2293      0.00000
      7      11.5028      0.00000
      8      14.5151      0.00000
      9      16.5446      0.00000
     10      17.7467      0.00000
     11      20.7868      0.00000
     12      21.8947      0.00000

 k-point  53 :      -0.4375    0.3125    0.3125
  band No.  band energies     occupation 
      1      -2.8208      1.00000
      2       1.2309      1.00000
      3       3.5613      1.00000
      4       3.6020      1.00000
      5      10.1279      0.00000
      6      10.7317      0.00000
      7      11.6370      0.00000
      8      13.6918      0.00000
      9      17.9012      0.00000
     10      17.9608      0.00000
     11      20.7835      0.00000
     12      21.2131      0.00000

 k-point  54 :      -0.3125    0.3125    0.3125
  band No.  band energies     occupation 
      1      -3.0623      1.00000
      2       1.9614      1.00000
      3       3.5332      1.00000
      4       4.1909      1.00000
      5       8.7683      0.00000
      6      11.1366      0.00000
      7      12.1835      0.00000
      8      14.4996      0.00000
      9      15.9188      0.00000
     10      19.2121      0.00000
     11      20.5228      0.00000
     12      20.8148      0.00000

 k-point  55 :       0.4375    0.4375    0.3125
  band No.  band energies     occupation 
      1      -2.9456      1.00000
      2       1.0442      1.00000
      3       3.3612      1.00000
      4       3.7634      1.00000
      5       9.1142      0.00000
      6      11.2089      0.00000
      7      11.7888      0.00000
      8      15.5931      0.00000
      9      15.7432      0.00000
     10      18.2406      0.00000
     11      20.7562      0.00000
     12      21.1083      0.00000

 k-point  56 :      -0.4375    0.4375    0.3125
  band No.  band energies     occupation 
      1      -2.8102      1.00000
      2       1.2194      1.00000
      3       3.4618      1.00000
      4       3.7816      1.00000
      5       9.4675      0.00000
      6      10.9712      0.00000
      7      11.9418      0.00000
      8      14.9544      0.00000
      9      16.4557      0.00000
     10      18.3537      0.00000
     11      20.7106      0.00000
     12      20.9521      0.00000

 k-point  57 :      -0.3125    0.4375    0.3125
  band No.  band energies     occupation 
      1      -3.1064      1.00000
      2       2.2272      1.00000
      3       3.5261      1.00000
      4       4.0192      1.00000
      5       9.3706      0.00000
      6      10.5373      0.00000
      7      12.3672      0.00000
      8      14.2409      0.00000
      9      15.3040      0.00000
     10      20.1494      0.00000
     11      20.7445      0.00000
     12      20.9455      0.00000

 k-point  58 :      -0.4375   -0.4375    0.3125
  band No.  band energies     occupation 
      1      -2.9363      1.00000
      2       1.5616      1.00000
      3       3.4863      1.00000
      4       4.0628      1.00000
      5       8.8458      0.00000
      6      11.3301      0.00000
      7      11.9863      0.00000
      8      15.5425      0.00000
      9      15.8379      0.00000
     10      18.2770      0.00000
     11      20.3092      0.00000
     12      20.8213      0.00000

 k-point  59 :       0.4375    0.4375    0.4375
  band No.  band energies     occupation 
      1      -2.3728      1.00000
      2       0.3149      1.00000
      3       3.1848      1.00000
      4       3.1848      1.00000
      5      10.9132      0.00000
      6      10.9132      0.00000
      7      11.5336      0.00000
      8      14.5972      0.00000
      9      17.8511      0.00000
     10      17.8511      0.00000
     11      20.7971      0.00000
     12      21.2826      0.00000

 k-point  60 :      -0.4375    0.4375    0.4375
  band No.  band energies     occupation 
      1      -2.2776      1.00000
      2       0.3276      1.00000
      3       3.2996      1.00000
      4       3.3035      1.00000
      5      10.5993      0.00000
      6      10.9400      0.00000
      7      11.7283      0.00000
      8      15.1736      0.00000
      9      17.1990      0.00000
     10      17.8660      0.00000
     11      20.7792      0.00000
     12      21.1255      0.00000


--------------------------------------------------------------------------------------------------------


 soft charge-density along one line, spin component           1
         0         1         2         3         4         5         6         7         8         9
 total charge-density along one line
 
 soft charge-density along one line, spin component           2
         0         1         2         3         4         5         6         7         8         9
 total charge-density along one line
 
 pseudopotential strength for first ion, spin component:           1
  9.512  -0.003   0.000   0.000   0.000   0.000   0.000   0.000
 -0.003  -0.002   0.000   0.000   0.000   0.000   0.000   0.000
  0.000   0.000  -3.724   0.000   0.000  -0.007   0.000   0.000
  0.000   0.000   0.000  -3.724   0.000   0.000  -0.007   0.000
  0.000   0.000   0.000   0.000  -3.724   0.000   0.000  -0.007
  0.000   0.000  -0.007   0.000   0.000  -0.758   0.000   0.000
  0.000   0.000   0.000  -0.007   0.000   0.000  -0.758   0.000
  0.000   0.000   0.000   0.000  -0.007   0.000   0.000  -0.758
 pseudopotential strength for first ion, spin component:           2
  9.512  -0.003   0.000   0.000   0.000   0.000   0.000   0.000
 -0.003  -0.002   0.000   0.000   0.000   0.000   0.000   0.000
  0.000   0.000  -3.724   0.000   0.000  -0.007   0.000   0.000
  0.000   0.000   0.000  -3.724   0.000   0.000  -0.007   0.000
  0.000   0.000   0.000   0.000  -3.724   0.000   0.000  -0.007
  0.000   0.000  -0.007   0.000   0.000  -0.758   0.000   0.000
  0.000   0.000   0.000  -0.007   0.000   0.000  -0.758   0.000
  0.000   0.000   0.000   0.000  -0.007   0.000   0.000  -0.758
 total augmentation occupancy for first ion, spin component:           1
  1.520  -0.816   0.000   0.000   0.000   0.000   0.000   0.000
 -0.816   0.501   0.000   0.000   0.000   0.000   0.000   0.000
  0.000   0.000   1.026   0.000   0.000   0.129   0.000   0.000
  0.000   0.000   0.000   1.026   0.000   0.000   0.129   0.000
  0.000   0.000   0.000   0.000   1.026   0.000   0.000   0.129
  0.000   0.000   0.129   0.000   0.000   0.018   0.000   0.000
  0.000   0.000   0.000   0.129   0.000   0.000   0.018   0.000
  0.000   0.000   0.000   0.000   0.129   0.000   0.000   0.018
 total augmentation occupancy for first ion, spin component:           2
  0.000   0.000   0.000   0.000   0.000   0.000   0.000   0.000
  0.000   0.000   0.000   0.000   0.000   0.000   0.000   0.000
  0.000   0.000   0.000   0.000   0.000   0.000   0.000   0.000
  0.000   0.000   0.000   0.000   0.000   0.000   0.000   0.000
  0.000   0.000   0.000   0.000   0.000   0.000   0.000   0.000
  0.000   0.000   0.000   0.000   0.000   0.000   0.000   0.000
  0.000   0.000   0.000   0.000   0.000   0.000   0.000   0.000
  0.000   0.000   0.000   0.000   0.000   0.000   0.000   0.000


------------------------ aborting loop because EDIFF is reached ----------------------------------------


 


 total charge     
 
# of ion     s       p       d       tot
----------------------------------------
  1        0.866   1.575   0.000   2.442
  2        0.587   0.983   3.519   5.089
------------------------------------------------
tot        1.453   2.558   3.519   7.530
 


 magnetization (x)
 
# of ion     s       p       d       tot
----------------------------------------
  1        0.000   0.000   0.000   0.000
  2        0.000   0.000   0.000  -0.001
------------------------------------------------
tot        0.000   0.000   0.000   0.000
 
    CHARGE:  cpu time    0.50: real time    0.50
    FORLOC:  cpu time    0.01: real time    0.01
    FORNL :  cpu time    0.86: real time    0.86
    STRESS:  cpu time    1.60: real time    1.60
    FORCOR:  cpu time    0.40: real time    0.40
    FORHAR:  cpu time    0.05: real time    0.05
    MIXING:  cpu time    0.01: real time    0.01

  FORCE on cell =-STRESS in cart. coord.  units (eV):
  Direction    XX          YY          ZZ          XY          YZ          ZX
  --------------------------------------------------------------------------------------
  Alpha Z    52.73762    52.73762    52.73762
  Ewald    -124.19145  -124.19145  -124.19145     0.00000     0.00000     0.00000
  Hartree     7.49862     7.49862     7.49862     0.00000     0.00000     0.00000
  E(xc)     -37.73040   -37.73040   -37.73040     0.00000     0.00000     0.00000
  Local     -13.29805   -13.29805   -13.29805     0.00000     0.00000     0.00000
  n-local    -5.88845    -9.00676    -2.32381     0.76313    -0.81185    -0.01332
  augment     2.60455     2.60455     2.60455     0.00000     0.00000     0.00000
  Kinetic   121.10887   124.12341   109.07892     3.63329    -4.15606     0.00532
  Fock        0.00000     0.00000     0.00000     0.00000     0.00000     0.00000
  -------------------------------------------------------------------------------------
  Total      -0.01504    -0.01504    -0.01504     0.00000     0.00000     0.00000
  in kB      -1.07561    -1.07561    -1.07561     0.00000     0.00000     0.00000
  external pressure =       -1.08 kB  Pullay stress =        0.00 kB


 VOLUME and BASIS-vectors are now :
 -----------------------------------------------------------------------------
  energy-cutoff  :      450.00
  volume of cell :       22.40
      direct lattice vectors                 reciprocal lattice vectors
     0.000000000  2.237500000  2.237500000    -0.223463687  0.223463687  0.223463687
     2.237500000  0.000000000  2.237500000     0.223463687 -0.223463687  0.223463687
     2.237500000  2.237500000  0.000000000     0.223463687  0.223463687 -0.223463687

  length of vectors
     3.164302846  3.164302846  3.164302846     0.387050460  0.387050460  0.387050460


 FORCES acting on ions
    electron-ion (+dipol)            ewald-force                    non-local-force                 convergence-correction
 -----------------------------------------------------------------------------------------------
   -.314E-13 -.208E-12 0.888E-13   0.107E-14 0.512E-17 0.372E-15   -.207E-24 0.207E-24 -.207E-24   -.418E-14 -.339E-14 -.355E-14
   -.277E-14 -.191E-14 -.884E-15   -.133E-14 0.142E-15 -.299E-15   0.000E+00 0.000E+00 0.000E+00   0.600E-15 0.812E-15 0.939E-16
 -----------------------------------------------------------------------------------------------
   -.342E-13 -.210E-12 0.879E-13   -.253E-15 0.147E-15 0.730E-16   -.207E-24 0.207E-24 -.207E-24   -.358E-14 -.258E-14 -.346E-14
 
 
 POSITION                                       TOTAL-FORCE (eV/Angst)
 -----------------------------------------------------------------------------------
      2.23750      2.23750      2.23750         0.000000      0.000000      0.000000
      0.00000      0.00000      0.00000         0.000000      0.000000      0.000000
 -----------------------------------------------------------------------------------
    total drift:                                0.000000      0.000000      0.000000


--------------------------------------------------------------------------------------------------------



  FREE ENERGIE OF THE ION-ELECTRON SYSTEM (eV)
  ---------------------------------------------------
  free  energy   TOTEN  =       -22.251056 eV

  energy  without entropy=      -22.251293  energy(sigma->0) =      -22.251135
 


--------------------------------------------------------------------------------------------------------


    POTLOK:  cpu time    0.50: real time    0.50


--------------------------------------------------------------------------------------------------------


 writing wavefunctions
     LOOP+:  cpu time   96.85: real time   97.20
    4ORBIT:  cpu time    0.00: real time    0.00
 


 total charge     
 
# of ion     s       p       d       tot
----------------------------------------
  1        0.866   1.575   0.000   2.442
  2        0.587   0.983   3.519   5.089
------------------------------------------------
tot        1.453   2.558   3.519   7.530
 


 magnetization (x)
 
# of ion     s       p       d       tot
----------------------------------------
  1        0.000   0.000   0.000   0.000
  2        0.000   0.000   0.000  -0.001
------------------------------------------------
tot        0.000   0.000   0.000   0.000
 

 total amount of memory used by VASP on root node    65663. kBytes
========================================================================

   base      :      30000. kBytes
   nonl-proj :       8932. kBytes
   fftplans  :       3916. kBytes
   grid      :      10266. kBytes
   one-center:         62. kBytes
   wavefun   :      12487. kBytes
 
  
  
 General timing and accounting informations for this job:
 ========================================================
  
                  Total CPU time used (sec):       98.193
                            User time (sec):       97.968
                          System time (sec):        0.225
                         Elapsed time (sec):       98.706
  
                   Maximum memory used (kb):           0.
                   Average memory used (kb):           0.
  
                          Minor page faults:        23580
                          Major page faults:            0
                 Voluntary context switches:          687
