PROCAR lm decomposed
# of k-points:   60         # of bands:  12         # of ions:   2

 k-point    1 :    0.06250000 0.06250000 0.06250000     weight = 0.00390625

band   1 # energy   -6.10292507 # occ.  1.00000000
 
ion      s     py     pz     px    dxy    dyz    dz2    dxz    dx2    tot
  1  0.315  0.000  0.000  0.000  0.000  0.000  0.000  0.000  0.000  0.316
  2  0.432  0.002  0.002  0.002  0.000  0.000  0.000  0.000  0.000  0.439
tot  0.747  0.002  0.002  0.002  0.000  0.000  0.000  0.000  0.000  0.755
 
band   2 # energy    6.58647170 # occ.  1.00000000
 
ion      s     py     pz     px    dxy    dyz    dz2    dxz    dx2    tot
  1  0.005  0.049  0.049  0.049  0.000  0.000  0.000  0.000  0.000  0.151
  2  0.004  0.012  0.012  0.012  0.218  0.218  0.000  0.218  0.000  0.693
tot  0.009  0.061  0.061  0.061  0.218  0.218  0.000  0.218  0.000  0.844
 
band   3 # energy    6.92713154 # occ.  1.00000000
 
ion      s     py     pz     px    dxy    dyz    dz2    dxz    dx2    tot
  1  0.000  0.107  0.006  0.061  0.000  0.000  0.000  0.000  0.000  0.175
  2  0.000  0.017  0.001  0.010  0.020  0.187  0.006  0.326  0.101  0.667
tot  0.000  0.124  0.007  0.071  0.020  0.187  0.006  0.326  0.101  0.842
 
band   4 # energy    6.92713154 # occ.  1.00000000
 
ion      s     py     pz     px    dxy    dyz    dz2    dxz    dx2    tot
  1  0.000  0.009  0.110  0.055  0.000  0.000  0.000  0.000  0.000  0.175
  2  0.000  0.001  0.017  0.009  0.336  0.168  0.101  0.029  0.006  0.667
tot  0.000  0.011  0.127  0.064  0.336  0.168  0.101  0.029  0.006  0.842
 
band   5 # energy    7.66729726 # occ.  1.00000000
 
ion      s     py     pz     px    dxy    dyz    dz2    dxz    dx2    tot
  1  0.000  0.121  0.007  0.069  0.000  0.000  0.000  0.000  0.000  0.198
  2  0.000  0.011  0.001  0.006  0.015  0.137  0.013  0.241  0.208  0.632
tot  0.000  0.133  0.008  0.075  0.015  0.137  0.013  0.241  0.208  0.830
 
band   6 # energy    7.66729726 # occ.  1.00000000
 
ion      s     py     pz     px    dxy    dyz    dz2    dxz    dx2    tot
  1  0.000  0.010  0.124  0.063  0.000  0.000  0.000  0.000  0.000  0.198
  2  0.000  0.001  0.012  0.006  0.247  0.125  0.208  0.021  0.013  0.632
tot  0.000  0.011  0.136  0.069  0.247  0.125  0.208  0.021  0.013  0.830
 
band   7 # energy    8.39459386 # occ. -0.03529163
 
ion      s     py     pz     px    dxy    dyz    dz2    dxz    dx2    tot
  1  0.014  0.121  0.121  0.121  0.000  0.000  0.000  0.000  0.000  0.377
  2  0.012  0.014  0.014  0.014  0.090  0.090  0.000  0.090  0.000  0.324
tot  0.026  0.135  0.135  0.135  0.090  0.090  0.000  0.090  0.000  0.701
 
band   8 # energy    9.95690505 # occ.  0.00000000
 
ion      s     py     pz     px    dxy    dyz    dz2    dxz    dx2    tot
  1  0.000  0.101  0.006  0.058  0.000  0.000  0.000  0.000  0.000  0.165
  2  0.000  0.022  0.001  0.012  0.000  0.002  0.036  0.003  0.616  0.693
tot  0.000  0.123  0.007  0.070  0.000  0.002  0.036  0.003  0.616  0.858
 
band   9 # energy    9.95690505 # occ.  0.00000000
 
ion      s     py     pz     px    dxy    dyz    dz2    dxz    dx2    tot
  1  0.000  0.009  0.104  0.052  0.000  0.000  0.000  0.000  0.000  0.165
  2  0.000  0.002  0.022  0.011  0.003  0.002  0.616  0.000  0.036  0.693
tot  0.000  0.011  0.127  0.064  0.003  0.002  0.616  0.000  0.036  0.858
 
band  10 # energy   15.15284071 # occ.  0.00000000
 
ion      s     py     pz     px    dxy    dyz    dz2    dxz    dx2    tot
  1  0.395  0.010  0.010  0.010  0.000  0.000  0.000  0.000  0.000  0.425
  2  0.270  0.003  0.003  0.003  0.000  0.000  0.000  0.000  0.000  0.279
tot  0.664  0.013  0.013  0.013  0.000  0.000  0.000  0.000  0.000  0.704
 
band  11 # energy   18.81408733 # occ.  0.00000000
 
ion      s     py     pz     px    dxy    dyz    dz2    dxz    dx2    tot
  1  0.000  0.000  0.000  0.000  0.000  0.000  0.000  0.000  0.000  0.000
  2  0.000  0.000  0.000  0.000  0.005  0.005  0.000  0.005  0.000  0.015
tot  0.000  0.000  0.000  0.000  0.005  0.005  0.000  0.005  0.000  0.015
 
band  12 # energy   20.79844363 # occ.  0.00000000
 
ion      s     py     pz     px    dxy    dyz    dz2    dxz    dx2    tot
  1  0.000  0.000  0.000  0.000  0.000  0.000  0.000  0.000  0.000  0.000
  2 43.971  0.000  0.000  0.000  0.000  0.000  0.000  0.000  0.000 43.971
tot 43.971  0.000  0.000  0.000  0.000  0.000  0.000  0.000  0.000 43.971
 

 k-point    2 :    0.18750000 0.06250000 0.06250000     weight = 0.01171875

band   1 # energy   -5.57589126 # occ.  1.00000000
 
ion      s     py     pz     px    dxy    dyz    dz2    dxz    dx2    tot
  1  0.322  0.002  0.002  0.000  0.000  0.000  0.000  0.000  0.000  0.326
  2  0.394  0.019  0.019  0.002  0.000  0.001  0.000  0.000  0.001  0.436
tot  0.716  0.021  0.021  0.002  0.000  0.001  0.000  0.000  0.001  0.763
 
band   2 # energy    5.04009520 # occ.  1.00000000
 
ion      s     py     pz     px    dxy    dyz    dz2    dxz    dx2    tot
  1  0.036  0.110  0.110  0.011  0.000  0.000  0.000  0.000  0.000  0.268
  2  0.035  0.021  0.021  0.008  0.054  0.222  0.028  0.054  0.085  0.528
tot  0.072  0.131  0.131  0.019  0.054  0.222  0.028  0.054  0.085  0.796
 
band   3 # energy    5.50193853 # occ.  1.00000000
 
ion      s     py     pz     px    dxy    dyz    dz2    dxz    dx2    tot
  1  0.000  0.147  0.147  0.000  0.000  0.000  0.000  0.000  0.000  0.295
  2  0.000  0.007  0.007  0.000  0.015  0.000  0.366  0.015  0.122  0.532
tot  0.000  0.154  0.154  0.000  0.015  0.000  0.366  0.015  0.122  0.826
 
band   4 # energy    5.66538933 # occ.  1.00000000
 
ion      s     py     pz     px    dxy    dyz    dz2    dxz    dx2    tot
  1  0.000  0.014  0.014  0.166  0.000  0.000  0.000  0.000  0.000  0.195
  2  0.001  0.001  0.001  0.054  0.228  0.027  0.025  0.228  0.074  0.638
tot  0.001  0.015  0.015  0.221  0.228  0.027  0.025  0.228  0.074  0.833
 
band   5 # energy    7.64325364 # occ.  1.00000000
 
ion      s     py     pz     px    dxy    dyz    dz2    dxz    dx2    tot
  1  0.000  0.003  0.003  0.000  0.000  0.000  0.000  0.000  0.000  0.007
  2  0.000  0.000  0.000  0.000  0.447  0.000  0.017  0.447  0.006  0.917
tot  0.000  0.003  0.003  0.000  0.447  0.000  0.017  0.447  0.006  0.924
 
band   6 # energy    8.55461056 # occ.  0.00000000
 
ion      s     py     pz     px    dxy    dyz    dz2    dxz    dx2    tot
  1  0.000  0.011  0.011  0.042  0.000  0.000  0.000  0.000  0.000  0.064
  2  0.001  0.001  0.001  0.001  0.045  0.493  0.063  0.045  0.189  0.839
tot  0.001  0.012  0.012  0.043  0.045  0.493  0.063  0.045  0.189  0.903
 
band   7 # energy    9.19933965 # occ.  0.00000000
 
ion      s     py     pz     px    dxy    dyz    dz2    dxz    dx2    tot
  1  0.025  0.026  0.026  0.232  0.000  0.000  0.000  0.000  0.000  0.310
  2  0.026  0.000  0.000  0.021  0.113  0.138  0.000  0.113  0.001  0.413
tot  0.051  0.027  0.027  0.253  0.113  0.138  0.000  0.113  0.001  0.723
 
band   8 # energy   11.05431771 # occ.  0.00000000
 
ion      s     py     pz     px    dxy    dyz    dz2    dxz    dx2    tot
  1  0.029  0.046  0.046  0.083  0.000  0.000  0.000  0.000  0.000  0.204
  2  0.024  0.009  0.009  0.018  0.005  0.040  0.128  0.005  0.384  0.623
tot  0.053  0.055  0.055  0.101  0.005  0.040  0.128  0.005  0.384  0.827
 
band   9 # energy   12.58635776 # occ.  0.00000000
 
ion      s     py     pz     px    dxy    dyz    dz2    dxz    dx2    tot
  1  0.000  0.125  0.125  0.000  0.000  0.000  0.000  0.000  0.000  0.251
  2  0.000  0.034  0.034  0.000  0.001  0.000  0.366  0.001  0.122  0.557
tot  0.000  0.159  0.159  0.000  0.001  0.000  0.366  0.001  0.122  0.808
 
band  10 # energy   16.14854215 # occ.  0.00000000
 
ion      s     py     pz     px    dxy    dyz    dz2    dxz    dx2    tot
  1  0.295  0.073  0.073  0.006  0.000  0.000  0.000  0.000  0.000  0.447
  2  0.193  0.027  0.027  0.002  0.000  0.004  0.001  0.000  0.004  0.261
tot  0.489  0.100  0.100  0.008  0.000  0.004  0.001  0.000  0.004  0.708
 
band  11 # energy   20.10300141 # occ.  0.00000000
 
ion      s     py     pz     px    dxy    dyz    dz2    dxz    dx2    tot
  1  0.000  0.000  0.000  0.000  0.000  0.000  0.000  0.000  0.000  0.001
  2  0.001  0.000  0.000  0.003  0.045  0.006  0.000  0.045  0.000  0.100
tot  0.002  0.000  0.000  0.003  0.045  0.006  0.000  0.045  0.000  0.101
 
band  12 # energy   20.79851885 # occ.  0.00000000
 
ion      s     py     pz     px    dxy    dyz    dz2    dxz    dx2    tot
  1  0.000  0.000  0.000  0.000  0.000  0.000  0.000  0.000  0.000  0.000
  2 43.936  0.000  0.000  0.000  0.000  0.000  0.000  0.000  0.000 43.937
tot 43.937  0.000  0.000  0.000  0.000  0.000  0.000  0.000  0.000 43.937
 

 k-point    3 :    0.31250000 0.06250000 0.06250000     weight = 0.01171875

band   1 # energy   -4.39024623 # occ.  1.00000000
 
ion      s     py     pz     px    dxy    dyz    dz2    dxz    dx2    tot
  1  0.341  0.005  0.005  0.003  0.000  0.000  0.000  0.000  0.000  0.353
  2  0.301  0.047  0.047  0.017  0.002  0.005  0.001  0.002  0.003  0.425
tot  0.642  0.052  0.052  0.020  0.002  0.005  0.001  0.002  0.003  0.779
 
band   2 # energy    2.85342651 # occ.  1.00000000
 
ion      s     py     pz     px    dxy    dyz    dz2    dxz    dx2    tot
  1  0.074  0.084  0.084  0.021  0.000  0.000  0.000  0.000  0.000  0.264
  2  0.093  0.020  0.020  0.026  0.083  0.151  0.017  0.083  0.050  0.542
tot  0.167  0.104  0.104  0.047  0.083  0.151  0.017  0.083  0.050  0.806
 
band   3 # energy    4.07903295 # occ.  1.00000000
 
ion      s     py     pz     px    dxy    dyz    dz2    dxz    dx2    tot
  1  0.000  0.136  0.136  0.000  0.000  0.000  0.000  0.000  0.000  0.272
  2  0.000  0.001  0.001  0.000  0.034  0.000  0.400  0.034  0.133  0.604
tot  0.000  0.137  0.137  0.000  0.034  0.000  0.400  0.034  0.133  0.876
 
band   4 # energy    4.38030734 # occ.  1.00000000
 
ion      s     py     pz     px    dxy    dyz    dz2    dxz    dx2    tot
  1  0.000  0.024  0.024  0.192  0.000  0.000  0.000  0.000  0.000  0.240
  2  0.000  0.000  0.000  0.051  0.109  0.035  0.079  0.109  0.236  0.619
tot  0.000  0.024  0.024  0.243  0.109  0.035  0.079  0.109  0.236  0.859
 
band   5 # energy    8.77941373 # occ.  0.00000000
 
ion      s     py     pz     px    dxy    dyz    dz2    dxz    dx2    tot
  1  0.000  0.007  0.007  0.000  0.000  0.000  0.000  0.000  0.000  0.014
  2  0.000  0.002  0.002  0.000  0.424  0.000  0.038  0.424  0.013  0.904
tot  0.000  0.009  0.009  0.000  0.424  0.000  0.038  0.424  0.013  0.918
 
band   6 # energy    9.35403337 # occ.  0.00000000
 
ion      s     py     pz     px    dxy    dyz    dz2    dxz    dx2    tot
  1  0.024  0.002  0.002  0.095  0.000  0.000  0.000  0.000  0.000  0.122
  2  0.027  0.001  0.001  0.000  0.207  0.115  0.039  0.207  0.116  0.713
tot  0.051  0.003  0.003  0.095  0.207  0.115  0.039  0.207  0.116  0.836
 
band   7 # energy   10.12338279 # occ.  0.00000000
 
ion      s     py     pz     px    dxy    dyz    dz2    dxz    dx2    tot
  1  0.031  0.031  0.031  0.029  0.000  0.000  0.000  0.000  0.000  0.121
  2  0.054  0.004  0.004  0.001  0.013  0.587  0.008  0.013  0.023  0.708
tot  0.085  0.035  0.035  0.030  0.013  0.587  0.008  0.013  0.023  0.829
 
band   8 # energy   13.75263712 # occ.  0.00000000
 
ion      s     py     pz     px    dxy    dyz    dz2    dxz    dx2    tot
  1  0.023  0.025  0.025  0.194  0.000  0.000  0.000  0.000  0.000  0.268
  2  0.017  0.007  0.007  0.058  0.011  0.021  0.106  0.011  0.319  0.555
tot  0.040  0.032  0.032  0.252  0.011  0.021  0.106  0.011  0.319  0.824
 
band   9 # energy   15.47009737 # occ.  0.00000000
 
ion      s     py     pz     px    dxy    dyz    dz2    dxz    dx2    tot
  1  0.000  0.149  0.149  0.000  0.000  0.000  0.000  0.000  0.000  0.298
  2  0.000  0.035  0.035  0.000  0.003  0.000  0.344  0.003  0.115  0.535
tot  0.000  0.184  0.184  0.000  0.003  0.000  0.344  0.003  0.115  0.833
 
band  10 # energy   17.11141723 # occ.  0.00000000
 
ion      s     py     pz     px    dxy    dyz    dz2    dxz    dx2    tot
  1  0.155  0.106  0.106  0.018  0.000  0.000  0.000  0.000  0.000  0.383
  2  0.053  0.086  0.086  0.025  0.014  0.025  0.003  0.014  0.008  0.314
tot  0.207  0.192  0.192  0.043  0.014  0.025  0.003  0.014  0.008  0.698
 
band  11 # energy   20.79075983 # occ.  0.00000000
 
ion      s     py     pz     px    dxy    dyz    dz2    dxz    dx2    tot
  1  0.000  0.000  0.000  0.000  0.000  0.000  0.000  0.000  0.000  0.001
  2 43.104  0.000  0.000  0.000  0.001  0.000  0.000  0.001  0.000 43.107
tot 43.104  0.001  0.001  0.000  0.001  0.000  0.000  0.001  0.000 43.108
 
band  12 # energy   21.53776084 # occ.  0.00000000
 
ion      s     py     pz     px    dxy    dyz    dz2    dxz    dx2    tot
  1  0.020  0.020  0.020  0.005  0.000  0.000  0.000  0.000  0.000  0.065
  2  0.901  0.012  0.012  0.024  0.099  0.048  0.001  0.099  0.002  1.197
tot  0.921  0.032  0.032  0.029  0.099  0.048  0.001  0.099  0.002  1.262
 

 k-point    4 :    0.43750000 0.06250000 0.06250000     weight = 0.01171875

band   1 # energy   -2.87107411 # occ.  1.00000000
 
ion      s     py     pz     px    dxy    dyz    dz2    dxz    dx2    tot
  1  0.389  0.005  0.005  0.006  0.000  0.000  0.000  0.000  0.000  0.406
  2  0.150  0.077  0.077  0.043  0.007  0.008  0.003  0.007  0.010  0.384
tot  0.539  0.083  0.083  0.050  0.007  0.008  0.003  0.007  0.010  0.789
 
band   2 # energy    0.89619510 # occ.  1.00000000
 
ion      s     py     pz     px    dxy    dyz    dz2    dxz    dx2    tot
  1  0.075  0.065  0.065  0.033  0.000  0.000  0.000  0.000  0.000  0.238
  2  0.201  0.013  0.013  0.034  0.089  0.118  0.006  0.089  0.019  0.583
tot  0.276  0.077  0.077  0.067  0.089  0.118  0.006  0.089  0.019  0.820
 
band   3 # energy    3.29616743 # occ.  1.00000000
 
ion      s     py     pz     px    dxy    dyz    dz2    dxz    dx2    tot
  1  0.000  0.132  0.132  0.000  0.000  0.000  0.000  0.000  0.000  0.264
  2  0.000  0.000  0.000  0.000  0.045  0.000  0.413  0.045  0.138  0.641
tot  0.000  0.132  0.132  0.000  0.045  0.000  0.413  0.045  0.138  0.905
 
band   4 # energy    3.46122559 # occ.  1.00000000
 
ion      s     py     pz     px    dxy    dyz    dz2    dxz    dx2    tot
  1  0.001  0.033  0.033  0.186  0.000  0.000  0.000  0.000  0.000  0.254
  2  0.000  0.002  0.002  0.034  0.050  0.055  0.111  0.050  0.334  0.639
tot  0.001  0.035  0.035  0.220  0.050  0.055  0.111  0.050  0.334  0.893
 
band   5 # energy   10.26671921 # occ.  0.00000000
 
ion      s     py     pz     px    dxy    dyz    dz2    dxz    dx2    tot
  1  0.000  0.011  0.011  0.000  0.000  0.000  0.000  0.000  0.000  0.022
  2  0.000  0.003  0.003  0.000  0.424  0.000  0.047  0.424  0.016  0.916
tot  0.000  0.014  0.014  0.000  0.424  0.000  0.047  0.424  0.016  0.938
 
band   6 # energy   10.46449102 # occ.  0.00000000
 
ion      s     py     pz     px    dxy    dyz    dz2    dxz    dx2    tot
  1  0.024  0.002  0.002  0.069  0.000  0.000  0.000  0.000  0.000  0.096
  2  0.040  0.001  0.001  0.008  0.251  0.108  0.024  0.251  0.072  0.755
tot  0.064  0.003  0.003  0.077  0.251  0.108  0.024  0.251  0.072  0.851
 
band   7 # energy   11.39631972 # occ.  0.00000000
 
ion      s     py     pz     px    dxy    dyz    dz2    dxz    dx2    tot
  1  0.014  0.038  0.038  0.012  0.000  0.000  0.000  0.000  0.000  0.102
  2  0.072  0.006  0.006  0.001  0.011  0.662  0.006  0.011  0.019  0.793
tot  0.086  0.044  0.044  0.013  0.011  0.662  0.006  0.011  0.019  0.895
 
band   8 # energy   15.46049069 # occ.  0.00000000
 
ion      s     py     pz     px    dxy    dyz    dz2    dxz    dx2    tot
  1  0.089  0.015  0.015  0.060  0.000  0.000  0.000  0.000  0.000  0.179
  2  0.000  0.087  0.087  0.100  0.060  0.005  0.008  0.060  0.024  0.432
tot  0.089  0.102  0.102  0.160  0.060  0.005  0.008  0.060  0.024  0.611
 
band   9 # energy   16.49613171 # occ.  0.00000000
 
ion      s     py     pz     px    dxy    dyz    dz2    dxz    dx2    tot
  1  0.000  0.050  0.050  0.172  0.000  0.000  0.000  0.000  0.000  0.271
  2  0.009  0.044  0.044  0.032  0.000  0.016  0.105  0.000  0.315  0.566
tot  0.009  0.094  0.094  0.204  0.000  0.016  0.105  0.000  0.315  0.838
 
band  10 # energy   17.80979759 # occ.  0.00000000
 
ion      s     py     pz     px    dxy    dyz    dz2    dxz    dx2    tot
  1  0.000  0.173  0.173  0.000  0.000  0.000  0.000  0.000  0.000  0.345
  2  0.000  0.011  0.011  0.000  0.003  0.000  0.395  0.003  0.132  0.555
tot  0.000  0.184  0.184  0.000  0.003  0.000  0.395  0.003  0.132  0.900
 
band  11 # energy   20.78813273 # occ.  0.00000000
 
ion      s     py     pz     px    dxy    dyz    dz2    dxz    dx2    tot
  1  0.000  0.001  0.001  0.000  0.000  0.000  0.000  0.000  0.000  0.003
  2 42.989  0.000  0.000  0.000  0.000  0.000  0.000  0.000  0.000 42.990
tot 42.989  0.001  0.001  0.000  0.000  0.000  0.000  0.000  0.000 42.993
 
band  12 # energy   21.85740356 # occ.  0.00000000
 
ion      s     py     pz     px    dxy    dyz    dz2    dxz    dx2    tot
  1  0.002  0.055  0.055  0.000  0.000  0.000  0.000  0.000  0.000  0.112
  2  0.408  0.052  0.052  0.181  0.005  0.011  0.019  0.005  0.058  0.792
tot  0.410  0.107  0.107  0.181  0.005  0.011  0.019  0.005  0.058  0.903
 

 k-point    5 :   -0.43750000 0.06250000 0.06250000     weight = 0.01171875

band   1 # energy   -2.09355052 # occ.  1.00000000
 
ion      s     py     pz     px    dxy    dyz    dz2    dxz    dx2    tot
  1  0.469  0.001  0.001  0.000  0.000  0.000  0.000  0.000  0.000  0.472
  2  0.013  0.087  0.087  0.093  0.001  0.001  0.007  0.001  0.022  0.314
tot  0.482  0.089  0.089  0.093  0.001  0.001  0.007  0.001  0.022  0.786
 
band   2 # energy    0.03495181 # occ.  1.00000000
 
ion      s     py     pz     px    dxy    dyz    dz2    dxz    dx2    tot
  1  0.009  0.055  0.055  0.060  0.000  0.000  0.000  0.000  0.000  0.180
  2  0.324  0.007  0.007  0.001  0.103  0.106  0.000  0.103  0.001  0.652
tot  0.333  0.062  0.062  0.061  0.103  0.106  0.000  0.103  0.001  0.832
 
band   3 # energy    3.14034543 # occ.  1.00000000
 
ion      s     py     pz     px    dxy    dyz    dz2    dxz    dx2    tot
  1  0.002  0.044  0.044  0.169  0.000  0.000  0.000  0.000  0.000  0.259
  2  0.000  0.005  0.005  0.017  0.018  0.084  0.125  0.018  0.376  0.647
tot  0.002  0.048  0.048  0.187  0.018  0.084  0.125  0.018  0.376  0.906
 
band   4 # energy    3.18895706 # occ.  1.00000000
 
ion      s     py     pz     px    dxy    dyz    dz2    dxz    dx2    tot
  1  0.000  0.131  0.131  0.000  0.000  0.000  0.000  0.000  0.000  0.261
  2  0.000  0.003  0.003  0.000  0.055  0.000  0.399  0.055  0.133  0.648
tot  0.000  0.133  0.133  0.000  0.055  0.000  0.399  0.055  0.133  0.909
 
band   5 # energy   10.77594909 # occ.  0.00000000
 
ion      s     py     pz     px    dxy    dyz    dz2    dxz    dx2    tot
  1  0.009  0.015  0.015  0.012  0.000  0.000  0.000  0.000  0.000  0.049
  2  0.006  0.004  0.004  0.000  0.074  0.628  0.021  0.074  0.062  0.872
tot  0.015  0.018  0.018  0.012  0.074  0.628  0.021  0.074  0.062  0.921
 
band   6 # energy   11.17497728 # occ.  0.00000000
 
ion      s     py     pz     px    dxy    dyz    dz2    dxz    dx2    tot
  1  0.000  0.015  0.015  0.000  0.000  0.000  0.000  0.000  0.000  0.030
  2  0.000  0.000  0.000  0.000  0.432  0.000  0.062  0.432  0.021  0.945
tot  0.000  0.015  0.015  0.000  0.432  0.000  0.062  0.432  0.021  0.975
 
band   7 # energy   12.00737946 # occ.  0.00000000
 
ion      s     py     pz     px    dxy    dyz    dz2    dxz    dx2    tot
  1  0.001  0.045  0.045  0.064  0.000  0.000  0.000  0.000  0.000  0.155
  2  0.127  0.001  0.001  0.000  0.282  0.074  0.001  0.282  0.003  0.770
tot  0.128  0.046  0.046  0.064  0.282  0.074  0.001  0.282  0.003  0.925
 
band   8 # energy   14.30563019 # occ.  0.00000000
 
ion      s     py     pz     px    dxy    dyz    dz2    dxz    dx2    tot
  1  0.094  0.003  0.003  0.001  0.000  0.000  0.000  0.000  0.000  0.100
  2  0.001  0.096  0.096  0.115  0.001  0.064  0.001  0.001  0.003  0.379
tot  0.095  0.099  0.099  0.116  0.001  0.064  0.001  0.001  0.003  0.479
 
band   9 # energy   17.84478467 # occ.  0.00000000
 
ion      s     py     pz     px    dxy    dyz    dz2    dxz    dx2    tot
  1  0.000  0.155  0.155  0.000  0.000  0.000  0.000  0.000  0.000  0.311
  2  0.000  0.028  0.028  0.000  0.003  0.000  0.397  0.003  0.132  0.591
tot  0.000  0.184  0.184  0.000  0.003  0.000  0.397  0.003  0.132  0.902
 
band  10 # energy   18.20001252 # occ.  0.00000000
 
ion      s     py     pz     px    dxy    dyz    dz2    dxz    dx2    tot
  1  0.003  0.050  0.050  0.232  0.000  0.000  0.000  0.000  0.000  0.334
  2  0.000  0.005  0.005  0.005  0.001  0.000  0.141  0.001  0.423  0.580
tot  0.003  0.054  0.054  0.237  0.001  0.000  0.141  0.001  0.423  0.914
 
band  11 # energy   20.77872002 # occ.  0.00000000
 
ion      s     py     pz     px    dxy    dyz    dz2    dxz    dx2    tot
  1  0.000  0.005  0.005  0.001  0.000  0.000  0.000  0.000  0.000  0.011
  2 38.480  0.007  0.006  0.026  0.000  0.001  0.000  0.000  0.000 38.520
tot 38.480  0.012  0.012  0.026  0.000  0.001  0.000  0.000  0.000 38.532
 
band  12 # energy   20.91579587 # occ.  0.00000000
 
ion      s     py     pz     px    dxy    dyz    dz2    dxz    dx2    tot
  1  0.001  0.020  0.020  0.000  0.000  0.000  0.000  0.000  0.000  0.041
  2  4.891  0.069  0.072  0.265  0.000  0.014  0.001  0.000  0.002  5.314
tot  4.891  0.090  0.092  0.265  0.000  0.014  0.001  0.000  0.002  5.355
 

 k-point    6 :   -0.31250000 0.06250000 0.06250000     weight = 0.01171875

band   1 # energy   -3.39547882 # occ.  1.00000000
 
ion      s     py     pz     px    dxy    dyz    dz2    dxz    dx2    tot
  1  0.366  0.006  0.006  0.005  0.000  0.000  0.000  0.000  0.000  0.383
  2  0.208  0.044  0.044  0.077  0.007  0.006  0.003  0.007  0.009  0.405
tot  0.575  0.050  0.050  0.083  0.007  0.006  0.003  0.007  0.009  0.788
 
band   2 # energy    1.50978499 # occ.  1.00000000
 
ion      s     py     pz     px    dxy    dyz    dz2    dxz    dx2    tot
  1  0.082  0.039  0.039  0.091  0.000  0.000  0.000  0.000  0.000  0.251
  2  0.155  0.030  0.030  0.008  0.108  0.085  0.010  0.108  0.031  0.565
tot  0.237  0.069  0.069  0.099  0.108  0.085  0.010  0.108  0.031  0.816
 
band   3 # energy    3.48805573 # occ.  1.00000000
 
ion      s     py     pz     px    dxy    dyz    dz2    dxz    dx2    tot
  1  0.002  0.057  0.057  0.142  0.000  0.000  0.000  0.000  0.000  0.258
  2  0.000  0.010  0.010  0.006  0.001  0.125  0.120  0.001  0.360  0.634
tot  0.003  0.067  0.067  0.148  0.001  0.125  0.120  0.001  0.360  0.892
 
band   4 # energy    3.75123561 # occ.  1.00000000
 
ion      s     py     pz     px    dxy    dyz    dz2    dxz    dx2    tot
  1  0.000  0.131  0.131  0.000  0.000  0.000  0.000  0.000  0.000  0.262
  2  0.000  0.009  0.009  0.000  0.068  0.000  0.356  0.068  0.119  0.626
tot  0.000  0.140  0.140  0.000  0.068  0.000  0.356  0.068  0.119  0.888
 
band   5 # energy    9.39274026 # occ.  0.00000000
 
ion      s     py     pz     px    dxy    dyz    dz2    dxz    dx2    tot
  1  0.016  0.027  0.027  0.002  0.000  0.000  0.000  0.000  0.000  0.071
  2  0.023  0.002  0.002  0.001  0.026  0.644  0.017  0.026  0.051  0.791
tot  0.039  0.028  0.028  0.003  0.026  0.644  0.017  0.026  0.051  0.862
 
band   6 # energy   10.52368734 # occ.  0.00000000
 
ion      s     py     pz     px    dxy    dyz    dz2    dxz    dx2    tot
  1  0.000  0.013  0.013  0.000  0.000  0.000  0.000  0.000  0.000  0.025
  2  0.000  0.004  0.004  0.000  0.394  0.000  0.095  0.394  0.032  0.923
tot  0.000  0.016  0.016  0.000  0.394  0.000  0.095  0.394  0.032  0.948
 
band   7 # energy   10.87704263 # occ.  0.00000000
 
ion      s     py     pz     px    dxy    dyz    dz2    dxz    dx2    tot
  1  0.032  0.029  0.029  0.036  0.000  0.000  0.000  0.000  0.000  0.125
  2  0.081  0.002  0.002  0.010  0.301  0.000  0.001  0.301  0.003  0.701
tot  0.113  0.031  0.031  0.046  0.301  0.000  0.001  0.301  0.003  0.826
 
band   8 # energy   15.70945290 # occ.  0.00000000
 
ion      s     py     pz     px    dxy    dyz    dz2    dxz    dx2    tot
  1  0.000  0.144  0.144  0.000  0.000  0.000  0.000  0.000  0.000  0.289
  2  0.000  0.048  0.048  0.000  0.016  0.000  0.331  0.016  0.110  0.568
tot  0.000  0.192  0.192  0.000  0.016  0.000  0.331  0.016  0.110  0.857
 
band   9 # energy   16.05252492 # occ.  0.00000000
 
ion      s     py     pz     px    dxy    dyz    dz2    dxz    dx2    tot
  1  0.101  0.071  0.071  0.003  0.000  0.000  0.000  0.000  0.000  0.246
  2  0.003  0.087  0.087  0.058  0.023  0.054  0.023  0.023  0.070  0.431
tot  0.105  0.158  0.158  0.061  0.023  0.054  0.023  0.023  0.070  0.677
 
band  10 # energy   17.27836343 # occ.  0.00000000
 
ion      s     py     pz     px    dxy    dyz    dz2    dxz    dx2    tot
  1  0.002  0.025  0.025  0.251  0.000  0.000  0.000  0.000  0.000  0.303
  2  0.004  0.002  0.002  0.095  0.011  0.001  0.098  0.011  0.293  0.516
tot  0.005  0.027  0.027  0.346  0.011  0.001  0.098  0.011  0.293  0.820
 
band  11 # energy   20.78592765 # occ.  0.00000000
 
ion      s     py     pz     px    dxy    dyz    dz2    dxz    dx2    tot
  1  0.000  0.001  0.001  0.002  0.000  0.000  0.000  0.000  0.000  0.004
  2 42.696  0.000  0.000  0.000  0.000  0.000  0.000  0.000  0.000 42.698
tot 42.697  0.001  0.001  0.002  0.000  0.000  0.000  0.000  0.000 42.702
 
band  12 # energy   21.78516673 # occ.  0.00000000
 
ion      s     py     pz     px    dxy    dyz    dz2    dxz    dx2    tot
  1  0.032  0.055  0.055  0.124  0.000  0.000  0.000  0.000  0.000  0.265
  2  1.609  0.000  0.000  0.031  0.040  0.039  0.006  0.040  0.017  1.783
tot  1.640  0.055  0.055  0.155  0.040  0.039  0.006  0.040  0.017  2.048
 

 k-point    7 :   -0.18750000 0.06250000 0.06250000     weight = 0.01171875

band   1 # energy   -4.84865078 # occ.  1.00000000
 
ion      s     py     pz     px    dxy    dyz    dz2    dxz    dx2    tot
  1  0.334  0.002  0.002  0.004  0.000  0.000  0.000  0.000  0.000  0.343
  2  0.338  0.018  0.018  0.048  0.002  0.001  0.001  0.002  0.003  0.431
tot  0.671  0.020  0.020  0.052  0.002  0.001  0.001  0.002  0.003  0.774
 
band   2 # energy    3.50131296 # occ.  1.00000000
 
ion      s     py     pz     px    dxy    dyz    dz2    dxz    dx2    tot
  1  0.057  0.022  0.022  0.167  0.000  0.000  0.000  0.000  0.000  0.268
  2  0.067  0.018  0.018  0.011  0.109  0.055  0.038  0.109  0.115  0.542
tot  0.124  0.040  0.040  0.178  0.109  0.055  0.038  0.109  0.115  0.810
 
band   3 # energy    4.53348742 # occ.  1.00000000
 
ion      s     py     pz     px    dxy    dyz    dz2    dxz    dx2    tot
  1  0.003  0.077  0.077  0.086  0.000  0.000  0.000  0.000  0.000  0.243
  2  0.001  0.020  0.020  0.001  0.013  0.203  0.085  0.013  0.254  0.609
tot  0.004  0.097  0.097  0.087  0.013  0.203  0.085  0.013  0.254  0.852
 
band   4 # energy    4.92156792 # occ.  1.00000000
 
ion      s     py     pz     px    dxy    dyz    dz2    dxz    dx2    tot
  1  0.000  0.132  0.132  0.000  0.000  0.000  0.000  0.000  0.000  0.264
  2  0.000  0.018  0.018  0.000  0.096  0.000  0.267  0.096  0.089  0.583
tot  0.000  0.150  0.150  0.000  0.096  0.000  0.267  0.096  0.089  0.847
 
band   5 # energy    8.08941006 # occ.  1.00000000
 
ion      s     py     pz     px    dxy    dyz    dz2    dxz    dx2    tot
  1  0.008  0.025  0.025  0.002  0.000  0.000  0.000  0.000  0.000  0.060
  2  0.007  0.000  0.000  0.003  0.065  0.614  0.016  0.065  0.047  0.819
tot  0.015  0.026  0.026  0.005  0.065  0.614  0.016  0.065  0.047  0.879
 
band   6 # energy    9.19365016 # occ.  0.00000000
 
ion      s     py     pz     px    dxy    dyz    dz2    dxz    dx2    tot
  1  0.000  0.014  0.014  0.000  0.000  0.000  0.000  0.000  0.000  0.028
  2  0.000  0.003  0.003  0.000  0.343  0.000  0.153  0.343  0.051  0.896
tot  0.000  0.017  0.017  0.000  0.343  0.000  0.153  0.343  0.051  0.924
 
band   7 # energy    9.75114981 # occ.  0.00000000
 
ion      s     py     pz     px    dxy    dyz    dz2    dxz    dx2    tot
  1  0.047  0.059  0.059  0.026  0.000  0.000  0.000  0.000  0.000  0.191
  2  0.062  0.000  0.000  0.001  0.254  0.008  0.000  0.254  0.000  0.581
tot  0.109  0.060  0.060  0.027  0.254  0.008  0.000  0.254  0.000  0.772
 
band   8 # energy   12.97059612 # occ.  0.00000000
 
ion      s     py     pz     px    dxy    dyz    dz2    dxz    dx2    tot
  1  0.000  0.131  0.131  0.000  0.000  0.000  0.000  0.000  0.000  0.262
  2  0.000  0.035  0.035  0.000  0.025  0.000  0.327  0.025  0.109  0.555
tot  0.000  0.166  0.166  0.000  0.025  0.000  0.327  0.025  0.109  0.818
 
band   9 # energy   14.26363369 # occ.  0.00000000
 
ion      s     py     pz     px    dxy    dyz    dz2    dxz    dx2    tot
  1  0.041  0.065  0.065  0.108  0.000  0.000  0.000  0.000  0.000  0.280
  2  0.026  0.019  0.019  0.026  0.000  0.006  0.108  0.000  0.325  0.530
tot  0.067  0.085  0.085  0.134  0.000  0.006  0.108  0.000  0.325  0.810
 
band  10 # energy   17.09715833 # occ.  0.00000000
 
ion      s     py     pz     px    dxy    dyz    dz2    dxz    dx2    tot
  1  0.185  0.027  0.027  0.193  0.000  0.000  0.000  0.000  0.000  0.433
  2  0.096  0.023  0.023  0.085  0.010  0.004  0.008  0.010  0.024  0.284
tot  0.281  0.051  0.051  0.278  0.010  0.004  0.008  0.010  0.024  0.717
 
band  11 # energy   20.79460409 # occ.  0.00000000
 
ion      s     py     pz     px    dxy    dyz    dz2    dxz    dx2    tot
  1  0.000  0.000  0.000  0.000  0.000  0.000  0.000  0.000  0.000  0.000
  2 43.410  0.000  0.000  0.000  0.000  0.001  0.000  0.000  0.000 43.413
tot 43.410  0.000  0.000  0.000  0.000  0.001  0.000  0.000  0.000 43.413
 
band  12 # energy   21.29885191 # occ.  0.00000000
 
ion      s     py     pz     px    dxy    dyz    dz2    dxz    dx2    tot
  1  0.008  0.001  0.001  0.005  0.000  0.000  0.000  0.000  0.000  0.015