<?xml version="1.0" encoding="ISO-8859-1"?>
<modeling>
 <generator>
  <i name="program" type="string">vasp </i>
  <i name="version" type="string">5.2.12  </i>
  <i name="subversion" type="string">11Nov11 complex                                                      parallel </i>
  <i name="platform" type="string">LinuxIFC </i>
  <i name="date" type="string">2012 10 17 </i>
  <i name="time" type="string">13:24:43 </i>
 </generator>
 <incar>
  <i type="int" name="ISTART">     0</i>
  <i type="string" name="PREC">accurate</i>
  <i type="int" name="ISPIN">     2</i>
  <i name="ENCUT">    450.00000000</i>
  <v name="MAGMOM">      2.00000000      6.00000000</v>
  <i type="logical" name="LREAL"> F  </i>
  <i type="int" name="ISMEAR">     1</i>
  <i name="SIGMA">      0.05000000</i>
  <i type="logical" name="LORBIT"> F  </i>
 </incar>
 <kpoints>
  <generation param="Monkhorst-Pack">
   <v type="int" name="divisions">       8        8        8 </v>
   <v name="usershift">      0.00000000       0.00000000       0.00000000 </v>
   <v name="genvec1">      0.12500000       0.00000000       0.00000000 </v>
   <v name="genvec2">      0.00000000       0.12500000       0.00000000 </v>
   <v name="genvec3">      0.00000000       0.00000000       0.12500000 </v>
   <v name="shift">      0.50000000       0.50000000       0.50000000 </v>
  </generation>
  <varray name="kpointlist" >
   <v>       0.06250000       0.06250000       0.06250000 </v>
   <v>       0.18750000       0.06250000       0.06250000 </v>
   <v>       0.31250000       0.06250000       0.06250000 </v>
   <v>       0.43750000       0.06250000       0.06250000 </v>
   <v>      -0.43750000       0.06250000       0.06250000 </v>
   <v>      -0.31250000       0.06250000       0.06250000 </v>
   <v>      -0.18750000       0.06250000       0.06250000 </v>
   <v>      -0.06250000       0.06250000       0.06250000 </v>
   <v>       0.18750000       0.18750000       0.06250000 </v>
   <v>       0.31250000       0.18750000       0.06250000 </v>
   <v>       0.43750000       0.18750000       0.06250000 </v>
   <v>      -0.43750000       0.18750000       0.06250000 </v>
   <v>      -0.31250000       0.18750000       0.06250000 </v>
   <v>      -0.18750000       0.18750000       0.06250000 </v>
   <v>      -0.06250000       0.18750000       0.06250000 </v>
   <v>       0.31250000       0.31250000       0.06250000 </v>
   <v>       0.43750000       0.31250000       0.06250000 </v>
   <v>      -0.43750000       0.31250000       0.06250000 </v>
   <v>      -0.31250000       0.31250000       0.06250000 </v>
   <v>      -0.18750000       0.31250000       0.06250000 </v>
   <v>      -0.06250000       0.31250000       0.06250000 </v>
   <v>       0.43750000       0.43750000       0.06250000 </v>
   <v>      -0.43750000       0.43750000       0.06250000 </v>
   <v>      -0.31250000       0.43750000       0.06250000 </v>
   <v>      -0.18750000       0.43750000       0.06250000 </v>
   <v>      -0.06250000       0.43750000       0.06250000 </v>
   <v>      -0.43750000      -0.43750000       0.06250000 </v>
   <v>      -0.31250000      -0.43750000       0.06250000 </v>
   <v>      -0.18750000      -0.43750000       0.06250000 </v>
   <v>      -0.31250000      -0.31250000       0.06250000 </v>
   <v>      -0.18750000      -0.31250000       0.06250000 </v>
   <v>      -0.18750000      -0.18750000       0.06250000 </v>
   <v>       0.18750000       0.18750000       0.18750000 </v>
   <v>       0.31250000       0.18750000       0.18750000 </v>
   <v>       0.43750000       0.18750000       0.18750000 </v>
   <v>      -0.43750000       0.18750000       0.18750000 </v>
   <v>      -0.31250000       0.18750000       0.18750000 </v>
   <v>      -0.18750000       0.18750000       0.18750000 </v>
   <v>       0.31250000       0.31250000       0.18750000 </v>
   <v>       0.43750000       0.31250000       0.18750000 </v>
   <v>      -0.43750000       0.31250000       0.18750000 </v>
   <v>      -0.31250000       0.31250000       0.18750000 </v>
   <v>      -0.18750000       0.31250000       0.18750000 </v>
   <v>       0.43750000       0.43750000       0.18750000 </v>
   <v>      -0.43750000       0.43750000       0.18750000 </v>
   <v>      -0.31250000       0.43750000       0.18750000 </v>
   <v>      -0.18750000       0.43750000       0.18750000 </v>
   <v>      -0.43750000      -0.43750000       0.18750000 </v>
   <v>      -0.31250000      -0.43750000       0.18750000 </v>
   <v>      -0.31250000      -0.31250000       0.18750000 </v>
   <v>       0.31250000       0.31250000       0.31250000 </v>
   <v>       0.43750000       0.31250000       0.31250000 </v>
   <v>      -0.43750000       0.31250000       0.31250000 </v>
   <v>      -0.31250000       0.31250000       0.31250000 </v>
   <v>       0.43750000       0.43750000       0.31250000 </v>
   <v>      -0.43750000       0.43750000       0.31250000 </v>
   <v>      -0.31250000       0.43750000       0.31250000 </v>
   <v>      -0.43750000      -0.43750000       0.31250000 </v>
   <v>       0.43750000       0.43750000       0.43750000 </v>
   <v>      -0.43750000       0.43750000       0.43750000 </v>
  </varray>
  <varray name="weights" >
   <v>       0.00390625 </v>
   <v>       0.01171875 </v>
   <v>       0.01171875 </v>
   <v>       0.01171875 </v>
   <v>       0.01171875 </v>
   <v>       0.01171875 </v>
   <v>       0.01171875 </v>
   <v>       0.01171875 </v>
   <v>       0.01171875 </v>
   <v>       0.02343750 </v>
   <v>       0.02343750 </v>
   <v>       0.02343750 </v>
   <v>       0.02343750 </v>
   <v>       0.02343750 </v>
   <v>       0.02343750 </v>
   <v>       0.01171875 </v>
   <v>       0.02343750 </v>
   <v>       0.02343750 </v>
   <v>       0.02343750 </v>
   <v>       0.02343750 </v>
   <v>       0.02343750 </v>
   <v>       0.01171875 </v>
   <v>       0.02343750 </v>
   <v>       0.02343750 </v>
   <v>       0.02343750 </v>
   <v>       0.02343750 </v>
   <v>       0.01171875 </v>
   <v>       0.02343750 </v>
   <v>       0.02343750 </v>
   <v>       0.01171875 </v>
   <v>       0.02343750 </v>
   <v>       0.01171875 </v>
   <v>       0.00390625 </v>
   <v>       0.01171875 </v>
   <v>       0.01171875 </v>
   <v>       0.01171875 </v>
   <v>       0.01171875 </v>
   <v>       0.01171875 </v>
   <v>       0.01171875 </v>
   <v>       0.02343750 </v>
   <v>       0.02343750 </v>
   <v>       0.02343750 </v>
   <v>       0.02343750 </v>
   <v>       0.01171875 </v>
   <v>       0.02343750 </v>
   <v>       0.02343750 </v>
   <v>       0.02343750 </v>
   <v>       0.01171875 </v>
   <v>       0.02343750 </v>
   <v>       0.01171875 </v>
   <v>       0.00390625 </v>
   <v>       0.01171875 </v>
   <v>       0.01171875 </v>
   <v>       0.01171875 </v>
   <v>       0.01171875 </v>
   <v>       0.02343750 </v>
   <v>       0.02343750 </v>
   <v>       0.01171875 </v>
   <v>       0.00390625 </v>
   <v>       0.01171875 </v>
  </varray>
 </kpoints>
 <parameters>
  <separator name="general" >
   <i type="string" name="SYSTEM">unknown system</i>
   <i type="logical" name="LCOMPAT"> F  </i>
  </separator>
  <separator name="electronic" >
   <i type="string" name="PREC">accura</i>
   <i name="ENMAX">    450.00000000</i>
   <i name="ENAUG">    644.87300000</i>
   <i name="EDIFF">      0.00010000</i>
   <i type="int" name="IALGO">    38</i>
   <i type="int" name="IWAVPR">    10</i>
   <i type="int" name="NBANDS">    12</i>
   <i name="NELECT">      9.00000000</i>
   <i type="int" name="TURBO">     0</i>
   <i type="int" name="IRESTART">     0</i>
   <i type="int" name="NREBOOT">     0</i>
   <i type="int" name="NMIN">     0</i>
   <i name="EREF">      0.00000000</i>
   <separator name="electronic smearing" >
    <i type="int" name="ISMEAR">     1</i>
    <i name="SIGMA">      0.05000000</i>
    <i name="KSPACING">      0.50000000</i>
    <i type="logical" name="KGAMMA"> T  </i>
   </separator>
   <separator name="electronic projectors" >
    <i type="logical" name="LREAL"> F  </i>
    <v name="ROPT">      0.00000000      0.00000000</v>
    <i type="int" name="LMAXPAW">  -100</i>
    <i type="int" name="LMAXMIX">     2</i>
    <i type="logical" name="NLSPLINE"> F  </i>
   </separator>
   <separator name="electronic startup" >
    <i type="int" name="ISTART">     0</i>
    <i type="int" name="ICHARG">     2</i>
    <i type="int" name="INIWAV">     1</i>
   </separator>
   <separator name="electronic spin" >
    <i type="int" name="ISPIN">     2</i>
    <i type="logical" name="LNONCOLLINEAR"> F  </i>
    <v name="MAGMOM">      2.00000000      6.00000000</v>
    <i name="NUPDOWN">     -1.00000000</i>
    <i type="logical" name="LSORBIT"> F  </i>
    <v name="SAXIS">      0.00000000      0.00000000      1.00000000</v>
    <i type="logical" name="LSPIRAL"> F  </i>
    <v name="QSPIRAL">      0.00000000      0.00000000      0.00000000</v>
    <i type="logical" name="LZEROZ"> F  </i>
   </separator>
   <separator name="electronic exchange-correlation" >
    <i type="logical" name="LASPH"> F  </i>
    <i type="logical" name="LMETAGGA"> F  </i>
   </separator>
   <separator name="electronic convergence" >
    <i type="int" name="NELM">    60</i>
    <i type="int" name="NELMDL">    -5</i>
    <i type="int" name="NELMIN">     2</i>
    <i name="ENINI">    450.00000000</i>
    <separator name="electronic convergence detail" >
     <i type="logical" name="LDIAG"> T  </i>
     <i type="logical" name="LSUBROT"> T  </i>
     <i name="WEIMIN">      0.00000000</i>
     <i name="EBREAK">      0.00000208</i>
     <i name="DEPER">      0.30000000</i>
     <i type="int" name="NRMM">     4</i>
     <i name="TIME">      0.40000000</i>
    </separator>
   </separator>
   <separator name="electronic mixer" >
    <i name="AMIX">      0.40000000</i>
    <i name="BMIX">      1.00000000</i>
    <i name="AMIN">      0.10000000</i>
    <i name="AMIX_MAG">      1.60000000</i>
    <i name="BMIX_MAG">      1.00000000</i>
    <separator name="electronic mixer details" >
     <i type="int" name="IMIX">     4</i>
     <i type="int" name="MAXMIX">   -45</i>
     <i name="WC">    100.00000000</i>
     <i type="int" name="INIMIX">     1</i>
     <i type="int" name="MIXPRE">     1</i>
     <i type="int" name="MREMOVE">     5</i>
    </separator>
   </separator>
   <separator name="electronic dipolcorrection" >
    <i type="logical" name="LDIPOL"> F  </i>
    <i type="logical" name="LMONO"> F  </i>
    <i type="int" name="IDIPOL">     0</i>
    <i name="EPSILON">      1.00000000</i>
    <v name="DIPOL">   -100.00000000   -100.00000000   -100.00000000</v>
    <i name="EFIELD">      0.00000000</i>
   </separator>
  </separator>
  <separator name="grids" >
   <i type="int" name="NGX">    24</i>
   <i type="int" name="NGY">    24</i>
   <i type="int" name="NGZ">    24</i>
   <i type="int" name="NGXF">    48</i>
   <i type="int" name="NGYF">    48</i>
   <i type="int" name="NGZF">    48</i>
   <i type="logical" name="ADDGRID"> F  </i>
  </separator>
  <separator name="ionic" >
   <i type="int" name="NSW">     0</i>
   <i type="int" name="IBRION">    -1</i>
   <i type="int" name="ISIF">     2</i>
   <i name="PSTRESS">      0.00000000</i>
   <i name="EDIFFG">      0.00100000</i>
   <i type="int" name="NFREE">     0</i>
   <i name="POTIM">      0.50000000</i>
   <i name="SMASS">     -3.00000000</i>
   <i name="SCALEE">      1.00000000</i>
  </separator>
  <separator name="ionic md" >
   <i name="TEBEG">      0.00010000</i>
   <i name="TEEND">      0.00010000</i>
   <i type="int" name="NBLOCK">     1</i>
   <i type="int" name="KBLOCK">     1</i>
   <i type="int" name="NPACO">   256</i>
   <i name="APACO">     16.00000000</i>
  </separator>
  <separator name="symmetry" >
   <i type="int" name="ISYM">     2</i>
   <i name="SYMPREC">      0.00001000</i>
  </separator>
  <separator name="dos" >
   <i type="logical" name="LORBIT"> F  </i>
   <v name="RWIGS">     -1.00000000     -1.00000000</v>
   <i type="int" name="NEDOS">   301</i>
   <i name="EMIN">     10.00000000</i>
   <i name="EMAX">    -10.00000000</i>
   <i name="EFERMI">      0.00000000</i>
  </separator>
  <separator name="writing" >
   <i type="int" name="NWRITE">     2</i>
   <i type="logical" name="LWAVE"> T  </i>
   <i type="logical" name="LCHARG"> T  </i>
   <i type="logical" name="LPARD"> F  </i>
   <i type="logical" name="LVTOT"> F  </i>
   <i type="logical" name="LVHAR"> F  </i>
   <i type="logical" name="LELF"> F  </i>
   <i type="logical" name="LOPTICS"> F  </i>
   <v name="STM">      0.00000000      0.00000000      0.00000000      0.00000000      0.00000000      0.00000000      0.00000000</v>
  </separator>
  <separator name="performance" >
   <i type="int" name="NPAR">     1</i>
   <i type="int" name="NSIM">     4</i>
   <i type="int" name="NBLK">    -1</i>
   <i type="logical" name="LPLANE"> T  </i>
   <i type="logical" name="LSCALAPACK"> F  </i>
   <i type="logical" name="LSCAAWARE"> F  </i>
   <i type="logical" name="LSCALU"> F  </i>
   <i type="logical" name="LASYNC"> F  </i>
   <i type="logical" name="LORBITALREAL"> F  </i>
  </separator>
  <separator name="miscellaneous" >
   <i type="int" name="IDIOT">     3</i>
   <i type="logical" name="LMUSIC"> F  </i>
   <v name="POMASS">     12.01100000    180.94800000</v>
   <v name="DARWINR">      0.00000000      0.00000000</v>
   <v name="DARWINV">      1.00000000      1.00000000</v>
   <i type="logical" name="LCORR"> T  </i>
  </separator>
  <i type="logical" name="GGA_COMPAT"> T  </i>
  <i type="logical" name="LBERRY"> F  </i>
  <i type="int" name="ICORELEVEL">     0</i>
  <i type="logical" name="LDAU"> F  </i>
  <i type="int" name="I_CONSTRAINED_M">     0</i>
  <separator name="electronic exchange-correlation" >
   <i type="string" name="GGA">--</i>
   <i type="int" name="VOSKOWN">     0</i>
   <i type="logical" name="LHFCALC"> F  </i>
   <i type="string" name="PRECFOCK"></i>
   <i type="logical" name="LHFONE"> F  </i>
   <i type="logical" name="LRHFCALC"> F  </i>
   <i type="logical" name="LTHOMAS"> F  </i>
   <i type="logical" name="LMODELHF"> F  </i>
   <i name="ENCUT4O">     -1.00000000</i>
   <i type="int" name="EXXOEP">     0</i>
   <i type="int" name="FOURORBIT">     0</i>
   <i name="AEXX">      0.00000000</i>
   <i name="HFALPHA">      0.00000000</i>
   <i name="ALDAX">      1.00000000</i>
   <i name="AGGAX">      1.00000000</i>
   <i name="ALDAC">      1.00000000</i>
   <i name="AGGAC">      1.00000000</i>
   <i type="int" name="NKREDX">     1</i>
   <i type="int" name="NKREDY">     1</i>
   <i type="int" name="NKREDZ">     1</i>
   <i type="logical" name="SHIFTRED"> F  </i>
   <i type="logical" name="ODDONLY"> F  </i>
   <i type="logical" name="EVENONLY"> F  </i>
   <i type="int" name="LMAXFOCK">     0</i>
   <i type="int" name="NMAXFOCKAE">     0</i>
   <i type="logical" name="LFOCKAEDFT"> F  </i>
   <i name="HFSCREEN">      0.00000000</i>
   <i name="HFSCREENC">      0.00000000</i>
  </separator>
  <separator name="vdW DFT" >
   <i type="logical" name="LUSE_VDW"> F  </i>
   <i name="Zab_VDW">     -0.84910000</i>
   <i name="PARAM1">      0.12340000</i>
   <i name="PARAM2">      1.00000000</i>
   <i name="PARAM3">      0.00000000</i>
  </separator>
  <separator name="model GW" >
   <i type="int" name="MODEL_GW">     0</i>
   <i name="MODEL_EPS0">      6.72110039</i>
   <i name="MODEL_ALPHA">      1.00000000</i>
  </separator>
  <separator name="linear response parameters" >
   <i type="logical" name="LEPSILON"> F  </i>
   <i type="logical" name="LRPA"> F  </i>
   <i type="logical" name="LNABLA"> F  </i>
   <i type="logical" name="LVEL"> F  </i>
   <i type="int" name="KINTER">     0</i>
   <i name="CSHIFT">      0.10000000</i>
   <i name="OMEGAMAX">     -1.00000000</i>
  </separator>
  <separator name="orbital magnetization" >
   <i type="logical" name="NUCIND"> F  </i>
   <v name="MAGPOS">      0.00000000      0.00000000      0.00000000</v>
   <i type="logical" name="LNICSALL"> T  </i>
   <i type="logical" name="ORBITALMAG"> F  </i>
   <i type="logical" name="LMAGBLOCH"> F  </i>
   <i type="logical" name="LCHIMAG"> F  </i>
   <i type="logical" name="LGAUGE"> T  </i>
   <i type="int" name="MAGATOM">     0</i>
   <v name="MAGDIPOL">      0.00000000      0.00000000      0.00000000</v>
   <v name="AVECCONST">      0.00000000      0.00000000      0.00000000</v>
  </separator>
  <separator name="response functions" >
   <i type="logical" name="LADDER"> F  </i>
   <i type="logical" name="LHARTREE"> T  </i>
   <i type="int" name="IBSE">     0</i>
   <i type="logical" name="LTCTE"> F  </i>
   <i type="logical" name="LTETE"> F  </i>
   <i type="logical" name="LFXCEPS"> F  </i>
   <i type="logical" name="L2ORDER"> F  </i>
   <i type="logical" name="LUSEW"> F  </i>
   <i name="ENCUTGW">     -2.00000000</i>
   <i name="ENCUTGWSOFT">     -2.00000000</i>
   <i name="ENCUTLF">     -1.00000000</i>
   <i type="int" name="LMAXMP2">    -1</i>
   <i name="SCISSOR">      0.00000000</i>
   <i type="int" name="NOMEGA">     0</i>
   <i type="int" name="NOMEGAR">     0</i>
   <i type="int" name="NBANDSGW">    -1</i>
   <i type="int" name="NBANDSO">    -1</i>
   <i type="int" name="NBANDSV">    -1</i>
   <i name="OPTEMAX">      0.00000000</i>
   <i type="int" name="NELM">     1</i>
   <i type="int" name="DIM">     3</i>
   <i type="int" name="ANTIRES">     0</i>
   <i name="OMEGAMAX">    -30.00000000</i>
   <i name="OMEGATL">   -200.00000000</i>
   <i type="int" name="OMEGAGRID">     0</i>
   <i name="CSHIFT">     -0.10000000</i>
   <i type="logical" name="SELFENERGY"> F  </i>
   <i type="logical" name="LSPECTRAL"> F  </i>
   <i type="logical" name="ODDONLYGW"> F  </i>
   <i type="logical" name="EVENONLYGW"> F  </i>
   <i type="int" name="NKREDLFX">     1</i>
   <i type="int" name="NKREDLFY">     1</i>
   <i type="int" name="NKREDLFZ">     1</i>
   <i type="int" name="MAXMEM">  1800</i>
   <i type="int" name="TELESCOPE">     0</i>
  </separator>
 </parameters>
 <atominfo>
  <atoms>       2 </atoms>
  <types>       2 </types>
  <array name="atoms" >
   <dimension dim="1">ion</dimension>
   <field type="string">element</field>
   <field type="int">atomtype</field>
   <set>
    <rc><c>C </c><c>   1</c></rc>
    <rc><c>Ta</c><c>   2</c></rc>
   </set>
  </array>
  <array name="atomtypes" >
   <dimension dim="1">type</dimension>
   <field type="int">atomspertype</field>
   <field type="string">element</field>
   <field>mass</field>
   <field>valence</field>
   <field type="string">pseudopotential</field>
   <set>
    <rc><c>   1</c><c>C </c><c>     12.01100000</c><c>      4.00000000</c><c> PAW_PBE C 08Apr2002                    </c></rc>
    <rc><c>   1</c><c>Ta</c><c>    180.94800000</c><c>      5.00000000</c><c>  PAW_PBE Ta 17Jan2003                  </c></rc>
   </set>
  </array>
 </atominfo>
 <structure name="initialpos" >
  <crystal>
   <varray name="basis" >
    <v>       0.00000000       2.23750000       2.23750000 </v>
    <v>       2.23750000       0.00000000       2.23750000 </v>
    <v>       2.23750000       2.23750000       0.00000000 </v>
   </varray>
   <i name="volume">     22.40366797 </i>
   <varray name="rec_basis" >
    <v>      -0.22346369       0.22346369       0.22346369 </v>
    <v>       0.22346369      -0.22346369       0.22346369 </v>
    <v>       0.22346369       0.22346369      -0.22346369 </v>
   </varray>
  </crystal>
  <varray name="positions" >
   <v>       0.50000000       0.50000000       0.50000000 </v>
   <v>       0.00000000       0.00000000       0.00000000 </v>
  </varray>
 </structure>
 <calculation>
  <scstep>
   <time name="dav">    6.49    6.49</time>
   <time name="total">    6.95    6.95</time>
   <energy>
    <i name="alphaZ">     52.73762451 </i>
    <i name="ewald">   -372.57424044 </i>
    <i name="hartreedc">    -15.75199326 </i>
    <i name="XCdc">    -48.23111199 </i>
    <i name="pawpsdc">    180.96821906 </i>
    <i name="pawaedc">   -107.89329025 </i>
    <i name="eentropy">      0.00013844 </i>
    <i name="bandstr">     44.72539079 </i>
    <i name="atom">    277.79342126 </i>
    <i name="e_fr_energy">     11.77415810 </i>
    <i name="e_wo_entrp">     11.77401967 </i>
    <i name="e_0_energy">     11.77411196 </i>
   </energy>
  </scstep>
  <scstep>
   <time name="dav">    7.90    7.90</time>
   <time name="total">    7.91    7.91</time>
   <energy>
    <i name="e_fr_energy">    -18.12572914 </i>
    <i name="e_wo_entrp">    -18.12561025 </i>
    <i name="e_0_energy">    -18.12568951 </i>
   </energy>
  </scstep>
  <scstep>
   <time name="dav">    7.36    7.37</time>
   <time name="total">    7.38    7.39</time>
   <energy>
    <i name="e_fr_energy">    -19.08978528 </i>
    <i name="e_wo_entrp">    -19.08980007 </i>
    <i name="e_0_energy">    -19.08979021 </i>
   </energy>
  </scstep>
  <scstep>
   <time name="dav">    7.22    7.23</time>
   <time name="total">    7.24    7.25</time>
   <energy>
    <i name="e_fr_energy">    -19.09298861 </i>
    <i name="e_wo_entrp">    -19.09300443 </i>
    <i name="e_0_energy">    -19.09299388 </i>
   </energy>
  </scstep>
  <scstep>
   <time name="dav">    7.38    7.39</time>
   <time name="total">    7.86    7.88</time>
   <energy>
    <i name="e_fr_energy">    -19.09299808 </i>
    <i name="e_wo_entrp">    -19.09301393 </i>
    <i name="e_0_energy">    -19.09300336 </i>
   </energy>
  </scstep>
  <scstep>
   <time name="dav">    7.24    7.24</time>
   <time name="total">    8.28    8.29</time>
   <energy>
    <i name="e_fr_energy">    -22.10847958 </i>
    <i name="e_wo_entrp">    -22.10839055 </i>
    <i name="e_0_energy">    -22.10844990 </i>
   </energy>
  </scstep>
  <scstep>
   <time name="dav">    7.65    7.65</time>
   <time name="total">    8.67    8.69</time>
   <energy>
    <i name="e_fr_energy">    -22.32054124 </i>
    <i name="e_wo_entrp">    -22.32085417 </i>
    <i name="e_0_energy">    -22.32064555 </i>
   </energy>
  </scstep>
  <scstep>
   <time name="dav">    7.27    7.27</time>
   <time name="total">    8.29    8.31</time>
   <energy>
    <i name="e_fr_energy">    -22.26086756 </i>
    <i name="e_wo_entrp">    -22.26117922 </i>
    <i name="e_0_energy">    -22.26097144 </i>
   </energy>
  </scstep>
  <scstep>
   <time name="dav">    7.41    7.41</time>
   <time name="total">    8.43    8.45</time>
   <energy>
    <i name="e_fr_energy">    -22.25337801 </i>
    <i name="e_wo_entrp">    -22.25359509 </i>
    <i name="e_0_energy">    -22.25345037 </i>
   </energy>
  </scstep>
  <scstep>
   <time name="dav">    7.23    7.23</time>
   <time name="total">    8.25    8.27</time>
   <energy>
    <i name="e_fr_energy">    -22.25125325 </i>
    <i name="e_wo_entrp">    -22.25149532 </i>
    <i name="e_0_energy">    -22.25133394 </i>
   </energy>
  </scstep>
  <scstep>
   <time name="dav">    6.64    6.64</time>
   <time name="total">    7.67    7.73</time>
   <energy>
    <i name="e_fr_energy">    -22.25109172 </i>
    <i name="e_wo_entrp">    -22.25133529 </i>
    <i name="e_0_energy">    -22.25117291 </i>
   </energy>
  </scstep>
  <scstep>
   <time name="dav">    4.85    4.85</time>
   <time name="total">    5.37    5.38</time>
   <energy>
    <i name="alphaZ">     52.73762451 </i>
    <i name="ewald">   -372.57424044 </i>
    <i name="hartreedc">    -22.49989968 </i>
    <i name="XCdc">    -51.17587890 </i>
    <i name="pawpsdc">    265.88816651 </i>
    <i name="pawaedc">   -193.90630477 </i>
    <i name="eentropy">      0.00023717 </i>
    <i name="bandstr">     21.48581883 </i>
    <i name="atom">    277.79342126 </i>
    <i name="e_fr_energy">    -22.25105550 </i>
    <i name="e_wo_entrp">    -22.25129267 </i>
    <i name="e_0_energy">    -22.25113456 </i>
   </energy>
  </scstep>
  <parameters_embedded>
   <separator name="dft+d2" >
    <i type="logical" name="LVDW"> F  </i>
   </separator>
  </parameters_embedded>
  <structure>
   <crystal>
    <varray name="basis" >
     <v>       0.00000000       2.23750000       2.23750000 </v>
     <v>       2.23750000       0.00000000       2.23750000 </v>
     <v>       2.23750000       2.23750000       0.00000000 </v>
    </varray>
    <i name="volume">     22.40366797 </i>
    <varray name="rec_basis" >
     <v>      -0.22346369       0.22346369       0.22346369 </v>
     <v>       0.22346369      -0.22346369       0.22346369 </v>
     <v>       0.22346369       0.22346369      -0.22346369 </v>
    </varray>
   </crystal>
   <varray name="positions" >
    <v>       0.50000000       0.50000000       0.50000000 </v>
    <v>       0.00000000       0.00000000       0.00000000 </v>
   </varray>
  </structure>
  <varray name="forces" >
   <v>       0.00000000       0.00000000       0.00000000 </v>
   <v>       0.00000000       0.00000000       0.00000000 </v>
  </varray>
  <varray name="stress" >
   <v>      -1.07560997       0.00000000       0.00000000 </v>
   <v>       0.00000000      -1.07560997       0.00000000 </v>
   <v>       0.00000000       0.00000000      -1.07560997 </v>
  </varray>
  <energy>
   <i name="e_fr_energy">    -22.25105550 </i>
   <i name="e_wo_entrp">    -22.25113456 </i>
   <i name="e_0_energy">      0.00023717 </i>
  </energy>
  <time name="totalsc">   96.85   97.20</time>
  <eigenvalues>
   <array>
    <dimension dim="1">band</dimension>
    <dimension dim="2">kpoint</dimension>
    <dimension dim="3">spin</dimension>
    <field>eigene</field>
    <field>occ</field>
    <set>
     <set comment="spin 1">
      <set comment="kpoint 1">
       <r>   -6.1029    1.0000 </r>
       <r>    6.5865    1.0000 </r>
       <r>    6.9271    1.0000 </r>
       <r>    6.9271    1.0000 </r>
       <r>    7.6673    1.0000 </r>
       <r>    7.6673    1.0000 </r>
       <r>    8.3946   -0.0353 </r>
       <r>    9.9569    0.0000 </r>
       <r>    9.9569    0.0000 </r>
       <r>   15.1528    0.0000 </r>
       <r>   18.8141    0.0000 </r>
       <r>   20.7984    0.0000 </r>
      </set>
      <set comment="kpoint 2">
       <r>   -5.5759    1.0000 </r>
       <r>    5.0401    1.0000 </r>
       <r>    5.5019    1.0000 </r>
       <r>    5.6654    1.0000 </r>
       <r>    7.6433    1.0000 </r>
       <r>    8.5546    0.0000 </r>
       <r>    9.1993    0.0000 </r>
       <r>   11.0543    0.0000 </r>
       <r>   12.5864    0.0000 </r>
       <r>   16.1485    0.0000 </r>
       <r>   20.1030    0.0000 </r>
       <r>   20.7985    0.0000 </r>
      </set>
      <set comment="kpoint 3">
       <r>   -4.3902    1.0000 </r>
       <r>    2.8534    1.0000 </r>
       <r>    4.0790    1.0000 </r>
       <r>    4.3803    1.0000 </r>
       <r>    8.7794    0.0000 </r>
       <r>    9.3540    0.0000 </r>
       <r>   10.1234    0.0000 </r>
       <r>   13.7526    0.0000 </r>
       <r>   15.4701    0.0000 </r>
       <r>   17.1114    0.0000 </r>
       <r>   20.7908    0.0000 </r>
       <r>   21.5378    0.0000 </r>
      </set>
      <set comment="kpoint 4">
       <r>   -2.8711    1.0000 </r>
       <r>    0.8962    1.0000 </r>
       <r>    3.2962    1.0000 </r>
       <r>    3.4612    1.0000 </r>
       <r>   10.2667    0.0000 </r>
       <r>   10.4645    0.0000 </r>
       <r>   11.3963    0.0000 </r>
       <r>   15.4605    0.0000 </r>
       <r>   16.4961    0.0000 </r>
       <r>   17.8098    0.0000 </r>
       <r>   20.7881    0.0000 </r>
       <r>   21.8574    0.0000 </r>
      </set>
      <set comment="kpoint 5">
       <r>   -2.0936    1.0000 </r>
       <r>    0.0350    1.0000 </r>
       <r>    3.1403    1.0000 </r>
       <r>    3.1890    1.0000 </r>
       <r>   10.7759    0.0000 </r>
       <r>   11.1750    0.0000 </r>
       <r>   12.0074    0.0000 </r>
       <r>   14.3056    0.0000 </r>
       <r>   17.8448    0.0000 </r>
       <r>   18.2000    0.0000 </r>
       <r>   20.7787    0.0000 </r>
       <r>   20.9158    0.0000 </r>
      </set>
      <set comment="kpoint 6">
       <r>   -3.3955    1.0000 </r>
       <r>    1.5098    1.0000 </r>
       <r>    3.4881    1.0000 </r>
       <r>    3.7512    1.0000 </r>
       <r>    9.3927    0.0000 </r>
       <r>   10.5237    0.0000 </r>
       <r>   10.8770    0.0000 </r>
       <r>   15.7095    0.0000 </r>
       <r>   16.0525    0.0000 </r>
       <r>   17.2784    0.0000 </r>
       <r>   20.7859    0.0000 </r>
       <r>   21.7852    0.0000 </r>
      </set>
      <set comment="kpoint 7">
       <r>   -4.8487    1.0000 </r>
       <r>    3.5013    1.0000 </r>
       <r>    4.5335    1.0000 </r>
       <r>    4.9216    1.0000 </r>
       <r>    8.0894    1.0000 </r>
       <r>    9.1937    0.0000 </r>
       <r>    9.7511    0.0000 </r>
       <r>   12.9706    0.0000 </r>
       <r>   14.2636    0.0000 </r>
       <r>   17.0972    0.0000 </r>
       <r>   20.7946    0.0000 </r>
       <r>   21.2989    0.0000 </r>
      </set>
      <set comment="kpoint 8">
       <r>   -5.8375    1.0000 </r>
       <r>    5.5586    1.0000 </r>
       <r>    6.1434    1.0000 </r>
       <r>    6.3759    1.0000 </r>
       <r>    7.1959    1.0000 </r>
       <r>    8.4885    0.0000 </r>
       <r>    9.0328    0.0000 </r>
       <r>   10.1877    0.0000 </r>
       <r>   11.5982    0.0000 </r>
       <r>   15.7508    0.0000 </r>
       <r>   19.5027    0.0000 </r>
       <r>   20.7987    0.0000 </r>
      </set>
      <set comment="kpoint 9">
       <r>   -5.3544    1.0000 </r>
       <r>    4.0701    1.0000 </r>
       <r>    5.6396    1.0000 </r>
       <r>    6.0266    1.0000 </r>
       <r>    6.8173    1.0000 </r>
       <r>    9.2570    0.0000 </r>
       <r>   10.0257    0.0000 </r>
       <r>   10.6986    0.0000 </r>
       <r>   12.9064    0.0000 </r>
       <r>   17.0043    0.0000 </r>
       <r>   20.7260    0.0000 </r>
       <r>   20.7987    0.0000 </r>
      </set>
      <set comment="kpoint 10">
       <r>   -4.5170    1.0000 </r>
       <r>    2.7717    1.0000 </r>
       <r>    4.6144    1.0000 </r>
       <r>    5.0751    1.0000 </r>
       <r>    7.3475    1.0000 </r>
       <r>   10.1337    0.0000 </r>
       <r>   10.9399    0.0000 </r>
       <r>   12.0512    0.0000 </r>
       <r>   14.7247    0.0000 </r>
       <r>   18.3667    0.0000 </r>
       <r>   20.7950    0.0000 </r>
       <r>   22.1211    0.0000 </r>
      </set>
      <set comment="kpoint 11">
       <r>   -3.3599    1.0000 </r>
       <r>    1.5643    1.0000 </r>
       <r>    3.5955    1.0000 </r>
       <r>    4.1386    1.0000 </r>
       <r>    8.4434   -0.0035 </r>
       <r>   11.0991    0.0000 </r>
       <r>   11.7671    0.0000 </r>
       <r>   14.2916    0.0000 </r>
       <r>   16.0562    0.0000 </r>
       <r>   18.4564    0.0000 </r>
       <r>   20.7411    0.0000 </r>
       <r>   21.0478    0.0000 </r>
      </set>
      <set comment="kpoint 12">
       <r>   -2.4843    1.0000 </r>
       <r>    0.6695    1.0000 </r>
       <r>    3.3428    1.0000 </r>
       <r>    3.5401    1.0000 </r>
       <r>    9.9415    0.0000 </r>
       <r>   11.0139    0.0000 </r>
       <r>   11.9240    0.0000 </r>
       <r>   15.5768    0.0000 </r>
       <r>   16.7754    0.0000 </r>
       <r>   17.7259    0.0000 </r>
       <r>   20.7448    0.0000 </r>
       <r>   20.9953    0.0000 </r>
      </set>
      <set comment="kpoint 13">
       <r>   -2.8843    1.0000 </r>
       <r>    1.0684    1.0000 </r>
       <r>    3.4218    1.0000 </r>
       <r>    3.6718    1.0000 </r>
       <r>    9.5794    0.0000 </r>
       <r>   10.9677    0.0000 </r>
       <r>   11.6768    0.0000 </r>
       <r>   14.7785    0.0000 </r>
       <r>   16.3814    0.0000 </r>
       <r>   18.3228    0.0000 </r>
       <r>   20.7808    0.0000 </r>
       <r>   21.5250    0.0000 </r>
      </set>
      <set comment="kpoint 14">
       <r>   -4.0653    1.0000 </r>
       <r>    2.3984    1.0000 </r>
       <r>    4.0065    1.0000 </r>
       <r>    4.2720    1.0000 </r>
       <r>    8.3544    0.1556 </r>
       <r>   10.4957    0.0000 </r>
       <r>   11.0306    0.0000 </r>
       <r>   12.5484    0.0000 </r>
       <r>   16.1926    0.0000 </r>
       <r>   17.8781    0.0000 </r>
       <r>   20.7909    0.0000 </r>
       <r>   21.9479    0.0000 </r>
      </set>
      <set comment="kpoint 15">
       <r>   -5.0991    1.0000 </r>
       <r>    3.8483    1.0000 </r>
       <r>    4.9722    1.0000 </r>
       <r>    5.2453    1.0000 </r>
       <r>    7.5969    1.0000 </r>
       <r>    9.3048    0.0000 </r>
       <r>    9.9374    0.0000 </r>
       <r>   11.5363    0.0000 </r>
       <r>   13.8886    0.0000 </r>
       <r>   17.0788    0.0000 </r>
       <r>   20.7975    0.0000 </r>
       <r>   21.1143    0.0000 </r>
      </set>
      <set comment="kpoint 16">
       <r>   -4.2594    1.0000 </r>
       <r>    2.3936    1.0000 </r>
       <r>    4.8002    1.0000 </r>
       <r>    5.9219    1.0000 </r>
       <r>    6.3830    1.0000 </r>
       <r>   10.3625    0.0000 </r>
       <r>   11.9367    0.0000 </r>
       <r>   12.1341    0.0000 </r>
       <r>   14.5766    0.0000 </r>
       <r>   19.7201    0.0000 </r>
       <r>   20.7896    0.0000 </r>
       <r>   21.7752    0.0000 </r>
      </set>
      <set comment="kpoint 17">
       <r>   -3.7852    1.0000 </r>
       <r>    2.3632    1.0000 </r>
       <r>    4.0742    1.0000 </r>
       <r>    5.2421    1.0000 </r>
       <r>    7.1537    1.0000 </r>
       <r>   11.4197    0.0000 </r>
       <r>   12.3392    0.0000 </r>
       <r>   12.6817    0.0000 </r>
       <r>   15.7739    0.0000 </r>
       <r>   18.9065    0.0000 </r>
       <r>   20.1461    0.0000 </r>
       <r>   20.8107    0.0000 </r>
      </set>
      <set comment="kpoint 18">
       <r>   -3.2501    1.0000 </r>
       <r>    2.1617    1.0000 </r>
       <r>    3.5663    1.0000 </r>
       <r>    4.4270    1.0000 </r>
       <r>    8.2203    1.0036 </r>
       <r>   11.5175    0.0000 </r>
       <r>   12.2414    0.0000 </r>
       <r>   14.4059    0.0000 </r>
       <r>   15.7699    0.0000 </r>
       <r>   18.5638    0.0000 </r>
       <r>   20.0870    0.0000 </r>
       <r>   20.8122    0.0000 </r>
      </set>
      <set comment="kpoint 19">
       <r>   -2.8798    1.0000 </r>
       <r>    1.5531    1.0000 </r>
       <r>    3.5176    1.0000 </r>
       <r>    3.8401    1.0000 </r>
       <r>    9.8696    0.0000 </r>
       <r>   10.4302    0.0000 </r>
       <r>   12.0629    0.0000 </r>
       <r>   14.0680    0.0000 </r>
       <r>   16.7915    0.0000 </r>
       <r>   19.1054    0.0000 </r>
       <r>   20.7660    0.0000 </r>
       <r>   21.0549    0.0000 </r>
      </set>
      <set comment="kpoint 20">
       <r>   -3.1101    1.0000 </r>
       <r>    1.4376    1.0000 </r>
       <r>    3.5962    1.0000 </r>
       <r>    3.7271    1.0000 </r>
       <r>    9.3420    0.0000 </r>
       <r>   11.2751    0.0000 </r>
       <r>   11.6242    0.0000 </r>
       <r>   13.2851    0.0000 </r>
       <r>   16.9879    0.0000 </r>
       <r>   18.4661    0.0000 </r>
       <r>   20.7817    0.0000 </r>
       <r>   21.6015    0.0000 </r>
      </set>
      <set comment="kpoint 21">
       <r>   -3.8289    1.0000 </r>
       <r>    2.0582    1.0000 </r>
       <r>    3.7395    1.0000 </r>
       <r>    4.1556    1.0000 </r>
       <r>    8.6821    0.0000 </r>
       <r>   10.2101    0.0000 </r>
       <r>   10.9897    0.0000 </r>
       <r>   14.0945    0.0000 </r>
       <r>   16.2052    0.0000 </r>
       <r>   17.5602    0.0000 </r>
       <r>   20.7865    0.0000 </r>
       <r>   21.6875    0.0000 </r>
      </set>
      <set comment="kpoint 22">
       <r>   -3.9955    1.0000 </r>
       <r>    3.1574    1.0000 </r>
       <r>    4.1322    1.0000 </r>
       <r>    6.3159    1.0000 </r>
       <r>    6.6296    1.0000 </r>
       <r>   11.1434    0.0000 </r>
       <r>   12.5223    0.0000 </r>
       <r>   12.5371    0.0000 </r>
       <r>   15.9691    0.0000 </r>
       <r>   16.7633    0.0000 </r>
       <r>   20.6391    0.0000 </r>
       <r>   20.8076    0.0000 </r>
      </set>
      <set comment="kpoint 23">
       <r>   -3.8488    1.0000 </r>
       <r>    3.6037    1.0000 </r>
       <r>    3.7847    1.0000 </r>
       <r>    5.4474    1.0000 </r>
       <r>    7.3037    1.0000 </r>
       <r>   12.1038    0.0000 </r>
       <r>   12.3083    0.0000 </r>
       <r>   12.4906    0.0000 </r>
       <r>   15.3136    0.0000 </r>
       <r>   17.2634    0.0000 </r>
       <r>   20.4478    0.0000 </r>
       <r>   20.8054    0.0000 </r>
      </set>
      <set comment="kpoint 24">
       <r>   -3.3476    1.0000 </r>
       <r>    2.6286    1.0000 </r>
       <r>    3.5881    1.0000 </r>
       <r>    4.5202    1.0000 </r>
       <r>    8.1563    1.0000 </r>
       <r>   11.4364    0.0000 </r>
       <r>   12.3781    0.0000 </r>
       <r>   14.3563    0.0000 </r>
       <r>   14.9227    0.0000 </r>
       <r>   18.9675    0.0000 </r>
       <r>   20.4869    0.0000 </r>
       <r>   20.8100    0.0000 </r>
      </set>
      <set comment="kpoint 25">
       <r>   -2.7090    1.0000 </r>
       <r>    1.1555    1.0000 </r>
       <r>    3.4630    1.0000 </r>
       <r>    3.7232    1.0000 </r>
       <r>    9.8980    0.0000 </r>
       <r>   10.6238    0.0000 </r>
       <r>   11.8694    0.0000 </r>
       <r>   15.3053    0.0000 </r>
       <r>   16.6455    0.0000 </r>
       <r>   18.0187    0.0000 </r>
       <r>   20.7542    0.0000 </r>
       <r>   21.0580    0.0000 </r>
      </set>
      <set comment="kpoint 26">
       <r>   -2.4866    1.0000 </r>
       <r>    0.5173    1.0000 </r>
       <r>    3.2438    1.0000 </r>
       <r>    3.4221    1.0000 </r>
       <r>   10.0994    0.0000 </r>
       <r>   11.0964    0.0000 </r>
       <r>   11.8167    0.0000 </r>
       <r>   15.1551    0.0000 </r>
       <r>   16.6650    0.0000 </r>
       <r>   18.2487    0.0000 </r>
       <r>   20.7805    0.0000 </r>
       <r>   21.2759    0.0000 </r>
      </set>
      <set comment="kpoint 27">
       <r>   -4.0458    1.0000 </r>
       <r>    3.7400    1.0000 </r>
       <r>    3.9781    1.0000 </r>
       <r>    6.4743    1.0000 </r>
       <r>    6.7423    1.0000 </r>
       <r>   11.3487    0.0000 </r>
       <r>   12.4313    0.0000 </r>
       <r>   12.4819    0.0000 </r>
       <r>   15.3945    0.0000 </r>
       <r>   16.5195    0.0000 </r>
       <r>   20.4543    0.0000 </r>
       <r>   20.8051    0.0000 </r>
      </set>
      <set comment="kpoint 28">
       <r>   -3.7879    1.0000 </r>
       <r>    2.9887    1.0000 </r>
       <r>    3.8902    1.0000 </r>
       <r>    5.3955    1.0000 </r>
       <r>    7.2319    1.0000 </r>
       <r>   11.8406    0.0000 </r>
       <r>   12.3994    0.0000 </r>
       <r>   12.5969    0.0000 </r>
       <r>   16.0666    0.0000 </r>
       <r>   17.2944    0.0000 </r>
       <r>   20.4265    0.0000 </r>
       <r>   20.8073    0.0000 </r>
      </set>
      <set comment="kpoint 29">
       <r>   -3.1829    1.0000 </r>
       <r>    1.6506    1.0000 </r>
       <r>    3.5582    1.0000 </r>
       <r>    4.2616    1.0000 </r>
       <r>    8.2975    0.9541 </r>
       <r>   11.5549    0.0000 </r>
       <r>   12.1215    0.0000 </r>
       <r>   14.3597    0.0000 </r>
       <r>   16.1190    0.0000 </r>
       <r>   18.8515    0.0000 </r>
       <r>   19.8361    0.0000 </r>
       <r>   20.8150    0.0000 </r>
      </set>
      <set comment="kpoint 30">
       <r>   -4.0105    1.0000 </r>
       <r>    2.5353    1.0000 </r>
       <r>    4.4186    1.0000 </r>
       <r>    6.0941    1.0000 </r>
       <r>    6.4661    1.0000 </r>
       <r>   10.7966    0.0000 </r>
       <r>   12.4220    0.0000 </r>
       <r>   12.5098    0.0000 </r>
       <r>   15.3042    0.0000 </r>
       <r>   18.8113    0.0000 </r>
       <r>   20.6696    0.0000 </r>
       <r>   20.8170    0.0000 </r>
      </set>
      <set comment="kpoint 31">
       <r>   -4.0190    1.0000 </r>
       <r>    2.2292    1.0000 </r>
       <r>    4.3191    1.0000 </r>
       <r>    5.0982    1.0000 </r>
       <r>    7.1755    1.0000 </r>
       <r>   10.8503    0.0000 </r>
       <r>   11.8335    0.0000 </r>
       <r>   12.5129    0.0000 </r>
       <r>   15.2624    0.0000 </r>
       <r>   19.4090    0.0000 </r>
       <r>   20.7644    0.0000 </r>
       <r>   21.1922    0.0000 </r>
      </set>
      <set comment="kpoint 32">
       <r>   -4.7657    1.0000 </r>
       <r>    2.9394    1.0000 </r>
       <r>    5.2166    1.0000 </r>
       <r>    5.8827    1.0000 </r>
       <r>    6.4956    1.0000 </r>
       <r>    9.8636    0.0000 </r>
       <r>   11.0695    0.0000 </r>
       <r>   11.4408    0.0000 </r>
       <r>   13.8208    0.0000 </r>
       <r>   18.5577    0.0000 </r>
       <r>   20.7974    0.0000 </r>
       <r>   22.2382    0.0000 </r>
      </set>
      <set comment="kpoint 33">
       <r>   -5.3186    1.0000 </r>
       <r>    4.4412    1.0000 </r>
       <r>    5.2022    1.0000 </r>
       <r>    5.2022    1.0000 </r>
       <r>    8.2838    1.0201 </r>
       <r>    8.2838    1.0201 </r>
       <r>    9.1357    0.0000 </r>
       <r>   12.7229    0.0000 </r>
       <r>   12.7229    0.0000 </r>
       <r>   16.4285    0.0000 </r>
       <r>   20.5760    0.0000 </r>
       <r>   20.8001    0.0000 </r>
      </set>
      <set comment="kpoint 34">
       <r>   -4.6331    1.0000 </r>
       <r>    3.2715    1.0000 </r>
       <r>    4.2616    1.0000 </r>
       <r>    4.6133    1.0000 </r>
       <r>    8.2485    1.0201 </r>
       <r>    9.7615    0.0000 </r>
       <r>   10.2568    0.0000 </r>
       <r>   12.0752    0.0000 </r>
       <r>   15.3907    0.0000 </r>
       <r>   17.2532    0.0000 </r>
       <r>   20.7954    0.0000 </r>
       <r>   21.6533    0.0000 </r>
      </set>
      <set comment="kpoint 35">
       <r>   -3.5251    1.0000 </r>
       <r>    1.8150    1.0000 </r>
       <r>    3.6172    1.0000 </r>
       <r>    3.9019    1.0000 </r>
       <r>    9.1146    0.0000 </r>
       <r>   10.7486    0.0000 </r>
       <r>   11.4646    0.0000 </r>
       <r>   12.9613    0.0000 </r>
       <r>   17.0976    0.0000 </r>
       <r>   17.7045    0.0000 </r>
       <r>   20.7887    0.0000 </r>
       <r>   21.8535    0.0000 </r>
      </set>
      <set comment="kpoint 36">
       <r>   -2.6122    1.0000 </r>
       <r>    0.8515    1.0000 </r>
       <r>    3.4731    1.0000 </r>
       <r>    3.4883    1.0000 </r>
       <r>   10.4734    0.0000 </r>
       <r>   10.6193    0.0000 </r>
       <r>   11.4288    0.0000 </r>
       <r>   15.0839    0.0000 </r>
       <r>   16.9546    0.0000 </r>
       <r>   17.9206    0.0000 </r>
       <r>   20.7830    0.0000 </r>
       <r>   21.3758    0.0000 </r>
      </set>
      <set comment="kpoint 37">
       <r>   -2.8161    1.0000 </r>
       <r>    1.1103    1.0000 </r>
       <r>    3.3995    1.0000 </r>
       <r>    3.8883    1.0000 </r>
       <r>    8.9414    0.0000 </r>
       <r>   11.4618    0.0000 </r>
       <r>   12.0651    0.0000 </r>
       <r>   15.7575    0.0000 </r>
       <r>   15.7620    0.0000 </r>
       <r>   18.3029    0.0000 </r>
       <r>   20.2135    0.0000 </r>
       <r>   20.8223    0.0000 </r>
      </set>
      <set comment="kpoint 38">
       <r>   -3.7826    1.0000 </r>
       <r>    1.9946    1.0000 </r>
       <r>    3.9308    1.0000 </r>
       <r>    4.8059    1.0000 </r>
       <r>    7.5169    1.0000 </r>
       <r>   10.9883    0.0000 </r>
       <r>   11.7434    0.0000 </r>
       <r>   13.4659    0.0000 </r>
       <r>   15.5706    0.0000 </r>
       <r>   18.9568    0.0000 </r>
       <r>   20.7089    0.0000 </r>
       <r>   20.9604    0.0000 </r>
      </set>
      <set comment="kpoint 39">
       <r>   -4.2734    1.0000 </r>
       <r>    2.5276    1.0000 </r>
       <r>    4.1525    1.0000 </r>
       <r>    4.7848    1.0000 </r>
       <r>    7.7692    1.0000 </r>
       <r>   10.1457    0.0000 </r>
       <r>   10.7817    0.0000 </r>
       <r>   13.2610    0.0000 </r>
       <r>   15.1531    0.0000 </r>
       <r>   18.0961    0.0000 </r>
       <r>   20.7904    0.0000 </r>
       <r>   21.7572    0.0000 </r>
      </set>
      <set comment="kpoint 40">
       <r>   -3.5907    1.0000 </r>
       <r>    1.8897    1.0000 </r>
       <r>    3.8872    1.0000 </r>
       <r>    4.1898    1.0000 </r>
       <r>    8.2544    1.0256 </r>
       <r>   11.2556    0.0000 </r>
       <r>   11.7581    0.0000 </r>
       <r>   12.9090    0.0000 </r>
       <r>   16.2354    0.0000 </r>
       <r>   18.8157    0.0000 </r>
       <r>   20.7571    0.0000 </r>
       <r>   21.1415    0.0000 </r>
      </set>
      <set comment="kpoint 41">
       <r>   -3.0152    1.0000 </r>
       <r>    1.6275    1.0000 </r>
       <r>    3.5756    1.0000 </r>
       <r>    3.8387    1.0000 </r>
       <r>    9.3685    0.0000 </r>
       <r>   10.9823    0.0000 </r>
       <r>   12.0889    0.0000 </r>
       <r>   13.5672    0.0000 </r>
       <r>   16.7970    0.0000 </r>
       <r>   19.0139    0.0000 </r>
       <r>   20.7107    0.0000 </r>
       <r>   20.9572    0.0000 </r>
      </set>
      <set comment="kpoint 42">
       <r>   -2.9673    1.0000 </r>
       <r>    1.7505    1.0000 </r>
       <r>    3.5041    1.0000 </r>
       <r>    3.9580    1.0000 </r>
       <r>    9.4129    0.0000 </r>
       <r>   10.6044    0.0000 </r>
       <r>   12.2031    0.0000 </r>
       <r>   15.0854    0.0000 </r>
       <r>   15.5309    0.0000 </r>
       <r>   19.0304    0.0000 </r>
       <r>   20.6674    0.0000 </r>
       <r>   20.8967    0.0000 </r>
      </set>
      <set comment="kpoint 43">
       <r>   -3.3993    1.0000 </r>
       <r>    2.0206    1.0000 </r>
       <r>    3.7547    1.0000 </r>
       <r>    4.3204    1.0000 </r>
       <r>    8.2089    1.0014 </r>
       <r>   11.6340    0.0000 </r>
       <r>   12.1944    0.0000 </r>
       <r>   13.0474    0.0000 </r>
       <r>   16.3511    0.0000 </r>
       <r>   19.1774    0.0000 </r>
       <r>   19.9503    0.0000 </r>
       <r>   20.8151    0.0000 </r>
      </set>
      <set comment="kpoint 44">
       <r>   -3.5632    1.0000 </r>
       <r>    2.0994    1.0000 </r>
       <r>    3.7929    1.0000 </r>
       <r>    4.9493    1.0000 </r>
       <r>    7.3912    1.0000 </r>
       <r>   11.6030    0.0000 </r>
       <r>   12.2611    0.0000 </r>
       <r>   13.4810    0.0000 </r>
       <r>   15.9199    0.0000 </r>
       <r>   18.9968    0.0000 </r>
       <r>   19.6422    0.0000 </r>
       <r>   20.8103    0.0000 </r>
      </set>
      <set comment="kpoint 45">
       <r>   -3.4467    1.0000 </r>
       <r>    2.6437    1.0000 </r>
       <r>    3.6613    1.0000 </r>
       <r>    4.4317    1.0000 </r>
       <r>    8.2434    1.0158 </r>
       <r>   11.5729    0.0000 </r>
       <r>   12.4032    0.0000 </r>
       <r>   13.1130    0.0000 </r>
       <r>   15.9408    0.0000 </r>
       <r>   18.5874    0.0000 </r>
       <r>   20.3766    0.0000 </r>
       <r>   20.8119    0.0000 </r>
      </set>
      <set comment="kpoint 46">
       <r>   -3.2716    1.0000 </r>
       <r>    2.9371    1.0000 </r>
       <r>    3.5365    1.0000 </r>
       <r>    3.8359    1.0000 </r>
       <r>    9.4445    0.0000 </r>
       <r>   10.5955    0.0000 </r>
       <r>   12.4681    0.0000 </r>
       <r>   13.5515    0.0000 </r>
       <r>   14.8452    0.0000 </r>
       <r>   20.4242    0.0000 </r>
       <r>   20.8301    0.0000 </r>
       <r>   21.1671    0.0000 </r>
      </set>
      <set comment="kpoint 47">
       <r>   -3.1458    1.0000 </r>
       <r>    2.2583    1.0000 </r>
       <r>    3.5416    1.0000 </r>
       <r>    3.9708    1.0000 </r>
       <r>    9.4044    0.0000 </r>
       <r>   10.5966    0.0000 </r>
       <r>   12.3874    0.0000 </r>
       <r>   13.7371    0.0000 </r>
       <r>   15.7000    0.0000 </r>
       <r>   19.8705    0.0000 </r>
       <r>   20.6847    0.0000 </r>
       <r>   20.8901    0.0000 </r>
      </set>
      <set comment="kpoint 48">
       <r>   -3.6555    1.0000 </r>
       <r>    3.1741    1.0000 </r>
       <r>    3.6846    1.0000 </r>
       <r>    5.2781    1.0000 </r>
       <r>    7.2673    1.0000 </r>
       <r>   11.9458    0.0000 </r>
       <r>   12.4297    0.0000 </r>
       <r>   13.3827    0.0000 </r>
       <r>   15.1379    0.0000 </r>
       <r>   17.8105    0.0000 </r>
       <r>   20.3817    0.0000 </r>
       <r>   20.8060    0.0000 </r>
      </set>
      <set comment="kpoint 49">
       <r>   -3.5324    1.0000 </r>
       <r>    3.3024    1.0000 </r>
       <r>    3.6272    1.0000 </r>
       <r>    4.3495    1.0000 </r>
       <r>    8.2903    0.9966 </r>
       <r>   11.5481    0.0000 </r>
       <r>   12.4661    0.0000 </r>
       <r>   13.0900    0.0000 </r>
       <r>   15.0851    0.0000 </r>
       <r>   18.7852    0.0000 </r>
       <r>   20.6496    0.0000 </r>
       <r>   20.8096    0.0000 </r>
      </set>
      <set comment="kpoint 50">
       <r>   -3.5838    1.0000 </r>
       <r>    2.6621    1.0000 </r>
       <r>    3.7087    1.0000 </r>
       <r>    5.1405    1.0000 </r>
       <r>    7.3338    1.0000 </r>
       <r>   11.9035    0.0000 </r>
       <r>   12.3539    0.0000 </r>
       <r>   13.4024    0.0000 </r>
       <r>   15.9559    0.0000 </r>
       <r>   17.7371    0.0000 </r>
       <r>   20.1369    0.0000 </r>
       <r>   20.8074    0.0000 </r>
      </set>
      <set comment="kpoint 51">
       <r>   -3.9440    1.0000 </r>
       <r>    2.2198    1.0000 </r>
       <r>    3.8695    1.0000 </r>
       <r>    3.8695    1.0000 </r>
       <r>    9.6238    0.0000 </r>
       <r>    9.6238    0.0000 </r>
       <r>   10.0143    0.0000 </r>
       <r>   15.5982    0.0000 </r>
       <r>   15.5982    0.0000 </r>
       <r>   16.7691    0.0000 </r>
       <r>   20.7867    0.0000 </r>
       <r>   21.5997    0.0000 </r>
      </set>
      <set comment="kpoint 52">
       <r>   -3.2937    1.0000 </r>
       <r>    1.4526    1.0000 </r>
       <r>    3.4746    1.0000 </r>
       <r>    3.7768    1.0000 </r>
       <r>    9.5642    0.0000 </r>
       <r>   10.2300    0.0000 </r>
       <r>   11.5037    0.0000 </r>
       <r>   14.5149    0.0000 </r>
       <r>   16.5451    0.0000 </r>
       <r>   17.7460    0.0000 </r>
       <r>   20.7871    0.0000 </r>
       <r>   21.8951    0.0000 </r>
      </set>
      <set comment="kpoint 53">
       <r>   -2.8214    1.0000 </r>
       <r>    1.2310    1.0000 </r>
       <r>    3.5614    1.0000 </r>
       <r>    3.6019    1.0000 </r>
       <r>   10.1290    0.0000 </r>
       <r>   10.7326    0.0000 </r>
       <r>   11.6375    0.0000 </r>
       <r>   13.6918    0.0000 </r>
       <r>   17.9017    0.0000 </r>
       <r>   17.9602    0.0000 </r>
       <r>   20.7838    0.0000 </r>
       <r>   21.2141    0.0000 </r>
      </set>
      <set comment="kpoint 54">
       <r>   -3.0629    1.0000 </r>
       <r>    1.9616    1.0000 </r>
       <r>    3.5332    1.0000 </r>
       <r>    4.1908    1.0000 </r>
       <r>    8.7690    0.0000 </r>
       <r>   11.1378    0.0000 </r>
       <r>   12.1843    0.0000 </r>
       <r>   14.4996    0.0000 </r>
       <r>   15.9185    0.0000 </r>
       <r>   19.2123    0.0000 </r>
       <r>   20.5231    0.0000 </r>
       <r>   20.8152    0.0000 </r>
      </set>
      <set comment="kpoint 55">
       <r>   -2.9461    1.0000 </r>
       <r>    1.0444    1.0000 </r>
       <r>    3.3612    1.0000 </r>
       <r>    3.7634    1.0000 </r>
       <r>    9.1150    0.0000 </r>
       <r>   11.2100    0.0000 </r>
       <r>   11.7897    0.0000 </r>
       <r>   15.5936    0.0000 </r>
       <r>   15.7429    0.0000 </r>
       <r>   18.2402    0.0000 </r>
       <r>   20.7563    0.0000 </r>
       <r>   21.1085    0.0000 </r>
      </set>
      <set comment="kpoint 56">
       <r>   -2.8107    1.0000 </r>
       <r>    1.2196    1.0000 </r>
       <r>    3.4619    1.0000 </r>
       <r>    3.7816    1.0000 </r>
       <r>    9.4682    0.0000 </r>
       <r>   10.9722    0.0000 </r>
       <r>   11.9428    0.0000 </r>
       <r>   14.9542    0.0000 </r>
       <r>   16.4557    0.0000 </r>
       <r>   18.3538    0.0000 </r>
       <r>   20.7104    0.0000 </r>
       <r>   20.9525    0.0000 </r>
      </set>
      <set comment="kpoint 57">
       <r>   -3.1070    1.0000 </r>
       <r>    2.2274    1.0000 </r>
       <r>    3.5261    1.0000 </r>
       <r>    4.0191    1.0000 </r>
       <r>    9.3712    0.0000 </r>
       <r>   10.5380    0.0000 </r>
       <r>   12.3684    0.0000 </r>
       <r>   14.2410    0.0000 </r>
       <r>   15.3038    0.0000 </r>
       <r>   20.1497    0.0000 </r>
       <r>   20.7446    0.0000 </r>
       <r>   20.9458    0.0000 </r>
      </set>
      <set comment="kpoint 58">
       <r>   -2.9368    1.0000 </r>
       <r>    1.5618    1.0000 </r>
       <r>    3.4863    1.0000 </r>
       <r>    4.0627    1.0000 </r>
       <r>    8.8464    0.0000 </r>
       <r>   11.3313    0.0000 </r>
       <r>   11.9872    0.0000 </r>
       <r>   15.5424    0.0000 </r>
       <r>   15.8376    0.0000 </r>
       <r>   18.2775    0.0000 </r>
       <r>   20.3090    0.0000 </r>
       <r>   20.8218    0.0000 </r>
      </set>
      <set comment="kpoint 59">
       <r>   -2.3734    1.0000 </r>
       <r>    0.3150    1.0000 </r>
       <r>    3.1848    1.0000 </r>
       <r>    3.1848    1.0000 </r>
       <r>   10.9143    0.0000 </r>
       <r>   10.9143    0.0000 </r>
       <r>   11.5345    0.0000 </r>
       <r>   14.5979    0.0000 </r>
       <r>   17.8505    0.0000 </r>
       <r>   17.8505    0.0000 </r>
       <r>   21.2824    0.0000 </r>
       <r>   21.2824    0.0000 </r>
      </set>
      <set comment="kpoint 60">
       <r>   -2.2782    1.0000 </r>
       <r>    0.3278    1.0000 </r>
       <r>    3.2996    1.0000 </r>
       <r>    3.3035    1.0000 </r>
       <r>   10.6002    0.0000 </r>
       <r>   10.9411    0.0000 </r>
       <r>   11.7291    0.0000 </r>
       <r>   15.1743    0.0000 </r>
       <r>   17.1987    0.0000 </r>
       <r>   17.8654    0.0000 </r>
       <r>   20.7795    0.0000 </r>
       <r>   21.1254    0.0000 </r>
      </set>
     </set>
     <set comment="spin 2">
      <set comment="kpoint 1">
       <r>   -6.1027    1.0000 </r>
       <r>    6.5861    1.0000 </r>
       <r>    6.9268    1.0000 </r>
       <r>    6.9268    1.0000 </r>
       <r>    7.6671    1.0000 </r>
       <r>    7.6671    1.0000 </r>
       <r>    8.3947   -0.0353 </r>
       <r>    9.9569    0.0000 </r>
       <r>    9.9569    0.0000 </r>
       <r>   15.1528    0.0000 </r>
       <r>   18.8120    0.0000 </r>
       <r>   20.7981    0.0000 </r>
      </set>
      <set comment="kpoint 2">
       <r>   -5.5756    1.0000 </r>
       <r>    5.0401    1.0000 </r>
       <r>    5.5020    1.0000 </r>
       <r>    5.6651    1.0000 </r>
       <r>    7.6424    1.0000 </r>
       <r>    8.5540    0.0000 </r>
       <r>    9.1992    0.0000 </r>
       <r>   11.0544    0.0000 </r>
       <r>   12.5866    0.0000 </r>
       <r>   16.1485    0.0000 </r>
       <r>   20.1010    0.0000 </r>
       <r>   20.7982    0.0000 </r>
      </set>
      <set comment="kpoint 3">
       <r>   -4.3899    1.0000 </r>
       <r>    2.8534    1.0000 </r>
       <r>    4.0791    1.0000 </r>
       <r>    4.3802    1.0000 </r>
       <r>    8.7785    0.0000 </r>
       <r>    9.3534    0.0000 </r>
       <r>   10.1226    0.0000 </r>
       <r>   13.7529    0.0000 </r>
       <r>   15.4705    0.0000 </r>
       <r>   17.1112    0.0000 </r>
       <r>   20.7904    0.0000 </r>
       <r>   21.5364    0.0000 </r>
      </set>
      <set comment="kpoint 4">
       <r>   -2.8706    1.0000 </r>
       <r>    0.8961    1.0000 </r>
       <r>    3.2962    1.0000 </r>
       <r>    3.4612    1.0000 </r>
       <r>   10.2657    0.0000 </r>
       <r>   10.4636    0.0000 </r>
       <r>   11.3954    0.0000 </r>
       <r>   15.4599    0.0000 </r>
       <r>   16.4965    0.0000 </r>
       <r>   17.8105    0.0000 </r>
       <r>   20.7878    0.0000 </r>
       <r>   21.8576    0.0000 </r>
      </set>
      <set comment="kpoint 5">
       <r>   -2.0929    1.0000 </r>
       <r>    0.0347    1.0000 </r>
       <r>    3.1404    1.0000 </r>
       <r>    3.1890    1.0000 </r>
       <r>   10.7749    0.0000 </r>
       <r>   11.1739    0.0000 </r>
       <r>   12.0064    0.0000 </r>
       <r>   14.3049    0.0000 </r>
       <r>   17.8454    0.0000 </r>
       <r>   18.2007    0.0000 </r>
       <r>   20.7782    0.0000 </r>
       <r>   20.9157    0.0000 </r>
      </set>
      <set comment="kpoint 6">
       <r>   -3.3950    1.0000 </r>
       <r>    1.5097    1.0000 </r>
       <r>    3.4881    1.0000 </r>
       <r>    3.7513    1.0000 </r>
       <r>    9.3919    0.0000 </r>
       <r>   10.5227    0.0000 </r>
       <r>   10.8762    0.0000 </r>
       <r>   15.7098    0.0000 </r>
       <r>   16.0521    0.0000 </r>
       <r>   17.2787    0.0000 </r>
       <r>   20.7856    0.0000 </r>
       <r>   21.7847    0.0000 </r>
      </set>
      <set comment="kpoint 7">
       <r>   -4.8483    1.0000 </r>
       <r>    3.5013    1.0000 </r>
       <r>    4.5334    1.0000 </r>
       <r>    4.9216    1.0000 </r>
       <r>    8.0887    1.0000 </r>
       <r>    9.1929    0.0000 </r>
       <r>    9.7506    0.0000 </r>
       <r>   12.9708    0.0000 </r>
       <r>   14.2639    0.0000 </r>
       <r>   17.0971    0.0000 </r>
       <r>   20.7943    0.0000 </r>
       <r>   21.2971    0.0000 </r>
      </set>
      <set comment="kpoint 8">
       <r>   -5.8372    1.0000 </r>
       <r>    5.5587    1.0000 </r>
       <r>    6.1431    1.0000 </r>
       <r>    6.3758    1.0000 </r>
       <r>    7.1952    1.0000 </r>
       <r>    8.4881    0.0000 </r>
       <r>    9.0327    0.0000 </r>
       <r>   10.1877    0.0000 </r>
       <r>   11.5983    0.0000 </r>
       <r>   15.7507    0.0000 </r>
       <r>   19.5006    0.0000 </r>
       <r>   20.7984    0.0000 </r>
      </set>
      <set comment="kpoint 9">
       <r>   -5.3541    1.0000 </r>
       <r>    4.0702    1.0000 </r>
       <r>    5.6392    1.0000 </r>
       <r>    6.0266    1.0000 </r>
       <r>    6.8167    1.0000 </r>
       <r>    9.2565    0.0000 </r>
       <r>   10.0253    0.0000 </r>
       <r>   10.6985    0.0000 </r>
       <r>   12.9066    0.0000 </r>
       <r>   17.0044    0.0000 </r>
       <r>   20.7240    0.0000 </r>
       <r>   20.7983    0.0000 </r>
      </set>
      <set comment="kpoint 10">
       <r>   -4.5167    1.0000 </r>
       <r>    2.7717    1.0000 </r>
       <r>    4.6141    1.0000 </r>
       <r>    5.0751    1.0000 </r>
       <r>    7.3470    1.0000 </r>
       <r>   10.1330    0.0000 </r>
       <r>   10.9394    0.0000 </r>
       <r>   12.0511    0.0000 </r>
       <r>   14.7249    0.0000 </r>
       <r>   18.3668    0.0000 </r>
       <r>   20.7946    0.0000 </r>
       <r>   22.1195    0.0000 </r>
      </set>
      <set comment="kpoint 11">
       <r>   -3.3594    1.0000 </r>
       <r>    1.5642    1.0000 </r>
       <r>    3.5955    1.0000 </r>
       <r>    4.1386    1.0000 </r>
       <r>    8.4427   -0.0037 </r>
       <r>   11.0982    0.0000 </r>
       <r>   11.7661    0.0000 </r>
       <r>   14.2918    0.0000 </r>
       <r>   16.0560    0.0000 </r>
       <r>   18.4567    0.0000 </r>
       <r>   20.7411    0.0000 </r>
       <r>   21.0475    0.0000 </r>
      </set>
      <set comment="kpoint 12">
       <r>   -2.4837    1.0000 </r>
       <r>    0.6693    1.0000 </r>
       <r>    3.3428    1.0000 </r>
       <r>    3.5401    1.0000 </r>
       <r>    9.9407    0.0000 </r>
       <r>   11.0129    0.0000 </r>
       <r>   11.9230    0.0000 </r>
       <r>   15.5764    0.0000 </r>
       <r>   16.7758    0.0000 </r>
       <r>   17.7261    0.0000 </r>
       <r>   20.7448    0.0000 </r>
       <r>   20.9952    0.0000 </r>
      </set>
      <set comment="kpoint 13">
       <r>   -2.8838    1.0000 </r>
       <r>    1.0683    1.0000 </r>
       <r>    3.4219    1.0000 </r>
       <r>    3.6717    1.0000 </r>
       <r>    9.5786    0.0000 </r>
       <r>   10.9668    0.0000 </r>
       <r>   11.6758    0.0000 </r>
       <r>   14.7787    0.0000 </r>
       <r>   16.3809    0.0000 </r>
       <r>   18.3234    0.0000 </r>
       <r>   20.7806    0.0000 </r>
       <r>   21.5250    0.0000 </r>
      </set>
      <set comment="kpoint 14">
       <r>   -4.0649    1.0000 </r>
       <r>    2.3984    1.0000 </r>
       <r>    4.0066    1.0000 </r>
       <r>    4.2717    1.0000 </r>
       <r>    8.3536    0.1650 </r>
       <r>   10.4952    0.0000 </r>
       <r>   11.0299    0.0000 </r>
       <r>   12.5483    0.0000 </r>
       <r>   16.1929    0.0000 </r>
       <r>   17.8782    0.0000 </r>
       <r>   20.7906    0.0000 </r>
       <r>   21.9469    0.0000 </r>
      </set>
      <set comment="kpoint 15">
       <r>   -5.0987    1.0000 </r>
       <r>    3.8484    1.0000 </r>
       <r>    4.9721    1.0000 </r>
       <r>    5.2452    1.0000 </r>
       <r>    7.5962    1.0000 </r>
       <r>    9.3042    0.0000 </r>
       <r>    9.9371    0.0000 </r>
       <r>   11.5363    0.0000 </r>
       <r>   13.8888    0.0000 </r>
       <r>   17.0788    0.0000 </r>
       <r>   20.7971    0.0000 </r>
       <r>   21.1123    0.0000 </r>
      </set>
      <set comment="kpoint 16">
       <r>   -4.2590    1.0000 </r>
       <r>    2.3936    1.0000 </r>
       <r>    4.7995    1.0000 </r>
       <r>    5.9220    1.0000 </r>
       <r>    6.3829    1.0000 </r>
       <r>   10.3622    0.0000 </r>
       <r>   11.9360    0.0000 </r>
       <r>   12.1335    0.0000 </r>
       <r>   14.5767    0.0000 </r>
       <r>   19.7204    0.0000 </r>
       <r>   20.7893    0.0000 </r>
       <r>   21.7746    0.0000 </r>
      </set>
      <set comment="kpoint 17">
       <r>   -3.7847    1.0000 </r>
       <r>    2.3632    1.0000 </r>
       <r>    4.0736    1.0000 </r>
       <r>    5.2423    1.0000 </r>
       <r>    7.1535    1.0000 </r>
       <r>   11.4192    0.0000 </r>
       <r>   12.3382    0.0000 </r>
       <r>   12.6812    0.0000 </r>
       <r>   15.7741    0.0000 </r>
       <r>   18.9065    0.0000 </r>
       <r>   20.1460    0.0000 </r>
       <r>   20.8102    0.0000 </r>
      </set>
      <set comment="kpoint 18">
       <r>   -3.2496    1.0000 </r>
       <r>    2.1616    1.0000 </r>
       <r>    3.5662    1.0000 </r>
       <r>    4.4272    1.0000 </r>
       <r>    8.2198    1.0035 </r>
       <r>   11.5164    0.0000 </r>
       <r>   12.2402    0.0000 </r>
       <r>   14.4060    0.0000 </r>
       <r>   15.7700    0.0000 </r>
       <r>   18.5635    0.0000 </r>
       <r>   20.0869    0.0000 </r>
       <r>   20.8118    0.0000 </r>
      </set>
      <set comment="kpoint 19">
       <r>   -2.8793    1.0000 </r>
       <r>    1.5529    1.0000 </r>
       <r>    3.5175    1.0000 </r>
       <r>    3.8402    1.0000 </r>
       <r>    9.8688    0.0000 </r>
       <r>   10.4292    0.0000 </r>
       <r>   12.0621    0.0000 </r>
       <r>   14.0680    0.0000 </r>
       <r>   16.7918    0.0000 </r>
       <r>   19.1049    0.0000 </r>
       <r>   20.7658    0.0000 </r>
       <r>   21.0544    0.0000 </r>
      </set>
      <set comment="kpoint 20">
       <r>   -3.1096    1.0000 </r>
       <r>    1.4375    1.0000 </r>
       <r>    3.5962    1.0000 </r>
       <r>    3.7270    1.0000 </r>
       <r>    9.3411    0.0000 </r>
       <r>   11.2743    0.0000 </r>
       <r>   11.6234    0.0000 </r>
       <r>   13.2851    0.0000 </r>
       <r>   16.9877    0.0000 </r>
       <r>   18.4666    0.0000 </r>
       <r>   20.7815    0.0000 </r>
       <r>   21.5929    0.0000 </r>
      </set>
      <set comment="kpoint 21">
       <r>   -3.8284    1.0000 </r>
       <r>    2.0582    1.0000 </r>
       <r>    3.7395    1.0000 </r>
       <r>    4.1556    1.0000 </r>
       <r>    8.6814    0.0000 </r>
       <r>   10.2093    0.0000 </r>
       <r>   10.9888    0.0000 </r>
       <r>   14.0947    0.0000 </r>
       <r>   16.2053    0.0000 </r>
       <r>   17.5602    0.0000 </r>
       <r>   20.7863    0.0000 </r>
       <r>   21.6868    0.0000 </r>
      </set>
      <set comment="kpoint 22">
       <r>   -3.9951    1.0000 </r>
       <r>    3.1575    1.0000 </r>
       <r>    4.1313    1.0000 </r>
       <r>    6.3163    1.0000 </r>
       <r>    6.6300    1.0000 </r>
       <r>   11.1431    0.0000 </r>
       <r>   12.5210    0.0000 </r>
       <r>   12.5359    0.0000 </r>
       <r>   15.9695    0.0000 </r>
       <r>   16.7630    0.0000 </r>
       <r>   20.6388    0.0000 </r>
       <r>   20.8072    0.0000 </r>
      </set>
      <set comment="kpoint 23">
       <r>   -3.8484    1.0000 </r>
       <r>    3.6037    1.0000 </r>
       <r>    3.7843    1.0000 </r>
       <r>    5.4477    1.0000 </r>
       <r>    7.3038    1.0000 </r>
       <r>   12.1029    0.0000 </r>
       <r>   12.3079    0.0000 </r>
       <r>   12.4893    0.0000 </r>
       <r>   15.3135    0.0000 </r>
       <r>   17.2636    0.0000 </r>
       <r>   20.4471    0.0000 </r>
       <r>   20.8050    0.0000 </r>
      </set>
      <set comment="kpoint 24">
       <r>   -3.3471    1.0000 </r>
       <r>    2.6284    1.0000 </r>
       <r>    3.5881    1.0000 </r>
       <r>    4.5204    1.0000 </r>
       <r>    8.1559    1.0000 </r>
       <r>   11.4353    0.0000 </r>
       <r>   12.3770    0.0000 </r>
       <r>   14.3564    0.0000 </r>
       <r>   14.9229    0.0000 </r>
       <r>   18.9676    0.0000 </r>
       <r>   20.4863    0.0000 </r>
       <r>   20.8096    0.0000 </r>
      </set>
      <set comment="kpoint 25">
       <r>   -2.7084    1.0000 </r>
       <r>    1.1553    1.0000 </r>
       <r>    3.4630    1.0000 </r>
       <r>    3.7233    1.0000 </r>
       <r>    9.8972    0.0000 </r>
       <r>   10.6228    0.0000 </r>
       <r>   11.8684    0.0000 </r>
       <r>   15.3054    0.0000 </r>
       <r>   16.6458    0.0000 </r>
       <r>   18.0182    0.0000 </r>
       <r>   20.7541    0.0000 </r>
       <r>   21.0580    0.0000 </r>
      </set>
      <set comment="kpoint 26">
       <r>   -2.4860    1.0000 </r>
       <r>    0.5171    1.0000 </r>
       <r>    3.2438    1.0000 </r>
       <r>    3.4221    1.0000 </r>
       <r>   10.0985    0.0000 </r>
       <r>   11.0953    0.0000 </r>
       <r>   11.8157    0.0000 </r>
       <r>   15.1545    0.0000 </r>
       <r>   16.6654    0.0000 </r>
       <r>   18.2494    0.0000 </r>
       <r>   20.7803    0.0000 </r>
       <r>   21.2760    0.0000 </r>
      </set>
      <set comment="kpoint 27">
       <r>   -4.0454    1.0000 </r>
       <r>    3.7403    1.0000 </r>
       <r>    3.9772    1.0000 </r>
       <r>    6.4748    1.0000 </r>
       <r>    6.7427    1.0000 </r>
       <r>   11.3485    0.0000 </r>
       <r>   12.4300    0.0000 </r>
       <r>   12.4806    0.0000 </r>
       <r>   15.3942    0.0000 </r>
       <r>   16.5198    0.0000 </r>
       <r>   20.4538    0.0000 </r>
       <r>   20.8047    0.0000 </r>
      </set>
      <set comment="kpoint 28">
       <r>   -3.7875    1.0000 </r>
       <r>    2.9888    1.0000 </r>
       <r>    3.8896    1.0000 </r>
       <r>    5.3958    1.0000 </r>
       <r>    7.2319    1.0000 </r>
       <r>   11.8399    0.0000 </r>
       <r>   12.3984    0.0000 </r>
       <r>   12.5961    0.0000 </r>
       <r>   16.0669    0.0000 </r>
       <r>   17.2942    0.0000 </r>
       <r>   20.4262    0.0000 </r>
       <r>   20.8069    0.0000 </r>
      </set>
      <set comment="kpoint 29">
       <r>   -3.1824    1.0000 </r>
       <r>    1.6505    1.0000 </r>
       <r>    3.5581    1.0000 </r>
       <r>    4.2617    1.0000 </r>
       <r>    8.2969    0.9581 </r>
       <r>   11.5538    0.0000 </r>
       <r>   12.1204    0.0000 </r>
       <r>   14.3598    0.0000 </r>
       <r>   16.1190    0.0000 </r>
       <r>   18.8516    0.0000 </r>
       <r>   19.8361    0.0000 </r>
       <r>   20.8146    0.0000 </r>
      </set>
      <set comment="kpoint 30">
       <r>   -4.0101    1.0000 </r>
       <r>    2.5354    1.0000 </r>
       <r>    4.4177    1.0000 </r>
       <r>    6.0944    1.0000 </r>
       <r>    6.4663    1.0000 </r>
       <r>   10.7963    0.0000 </r>
       <r>   12.4210    0.0000 </r>
       <r>   12.5089    0.0000 </r>
       <r>   15.3044    0.0000 </r>
       <r>   18.8113    0.0000 </r>
       <r>   20.6694    0.0000 </r>
       <r>   20.8166    0.0000 </r>
      </set>
      <set comment="kpoint 31">
       <r>   -4.0186    1.0000 </r>
       <r>    2.2292    1.0000 </r>
       <r>    4.3186    1.0000 </r>
       <r>    5.0983    1.0000 </r>
       <r>    7.1752    1.0000 </r>
       <r>   10.8497    0.0000 </r>
       <r>   11.8327    0.0000 </r>
       <r>   12.5125    0.0000 </r>
       <r>   15.2625    0.0000 </r>
       <r>   19.4092    0.0000 </r>
       <r>   20.7643    0.0000 </r>
       <r>   21.1918    0.0000 </r>
      </set>
      <set comment="kpoint 32">
       <r>   -4.7653    1.0000 </r>
       <r>    2.9394    1.0000 </r>
       <r>    5.2160    1.0000 </r>
       <r>    5.8828    1.0000 </r>
       <r>    6.4952    1.0000 </r>
       <r>    9.8632    0.0000 </r>
       <r>   11.0689    0.0000 </r>
       <r>   11.4405    0.0000 </r>
       <r>   13.8210    0.0000 </r>
       <r>   18.5579    0.0000 </r>
       <r>   20.7971    0.0000 </r>
       <r>   22.2363    0.0000 </r>
      </set>
      <set comment="kpoint 33">
       <r>   -5.3183    1.0000 </r>
       <r>    4.4411    1.0000 </r>
       <r>    5.2022    1.0000 </r>
       <r>    5.2022    1.0000 </r>
       <r>    8.2831    1.0220 </r>
       <r>    8.2831    1.0220 </r>
       <r>    9.1353    0.0000 </r>
       <r>   12.7231    0.0000 </r>
       <r>   12.7231    0.0000 </r>
       <r>   16.4284    0.0000 </r>
       <r>   20.5740    0.0000 </r>
       <r>   20.7997    0.0000 </r>
      </set>
      <set comment="kpoint 34">
       <r>   -4.6328    1.0000 </r>
       <r>    3.2715    1.0000 </r>
       <r>    4.2617    1.0000 </r>
       <r>    4.6130    1.0000 </r>
       <r>    8.2476    1.0193 </r>
       <r>    9.7610    0.0000 </r>
       <r>   10.2563    0.0000 </r>
       <r>   12.0752    0.0000 </r>
       <r>   15.3911    0.0000 </r>
       <r>   17.2531    0.0000 </r>
       <r>   20.7950    0.0000 </r>
       <r>   21.6515    0.0000 </r>
      </set>
      <set comment="kpoint 35">
       <r>   -3.5247    1.0000 </r>
       <r>    1.8150    1.0000 </r>
       <r>    3.6172    1.0000 </r>
       <r>    3.9017    1.0000 </r>
       <r>    9.1136    0.0000 </r>
       <r>   10.7482    0.0000 </r>
       <r>   11.4637    0.0000 </r>
       <r>   12.9612    0.0000 </r>
       <r>   17.0973    0.0000 </r>
       <r>   17.7051    0.0000 </r>
       <r>   20.7884    0.0000 </r>
       <r>   21.8524    0.0000 </r>
      </set>
      <set comment="kpoint 36">
       <r>   -2.6116    1.0000 </r>
       <r>    0.8514    1.0000 </r>
       <r>    3.4732    1.0000 </r>
       <r>    3.4883    1.0000 </r>
       <r>   10.4723    0.0000 </r>
       <r>   10.6184    0.0000 </r>
       <r>   11.4280    0.0000 </r>
       <r>   15.0841    0.0000 </r>
       <r>   16.9540    0.0000 </r>
       <r>   17.9212    0.0000 </r>
       <r>   20.7828    0.0000 </r>
       <r>   21.3759    0.0000 </r>
      </set>
      <set comment="kpoint 37">
       <r>   -2.8156    1.0000 </r>
       <r>    1.1101    1.0000 </r>
       <r>    3.3995    1.0000 </r>
       <r>    3.8884    1.0000 </r>
       <r>    8.9407    0.0000 </r>
       <r>   11.4607    0.0000 </r>
       <r>   12.0641    0.0000 </r>
       <r>   15.7579    0.0000 </r>
       <r>   15.7617    0.0000 </r>
       <r>   18.3030    0.0000 </r>
       <r>   20.2137    0.0000 </r>
       <r>   20.8218    0.0000 </r>
      </set>
      <set comment="kpoint 38">
       <r>   -3.7822    1.0000 </r>
       <r>    1.9945    1.0000 </r>
       <r>    3.9306    1.0000 </r>
       <r>    4.8060    1.0000 </r>
       <r>    7.5164    1.0000 </r>
       <r>   10.9874    0.0000 </r>
       <r>   11.7425    0.0000 </r>
       <r>   13.4659    0.0000 </r>
       <r>   15.5708    0.0000 </r>
       <r>   18.9569    0.0000 </r>
       <r>   20.7090    0.0000 </r>
       <r>   20.9598    0.0000 </r>
      </set>
      <set comment="kpoint 39">
       <r>   -4.2730    1.0000 </r>
       <r>    2.5276    1.0000 </r>
       <r>    4.1524    1.0000 </r>
       <r>    4.7849    1.0000 </r>
       <r>    7.7686    1.0000 </r>
       <r>   10.1449    0.0000 </r>
       <r>   10.7810    0.0000 </r>
       <r>   13.2611    0.0000 </r>
       <r>   15.1533    0.0000 </r>
       <r>   18.0961    0.0000 </r>
       <r>   20.7901    0.0000 </r>
       <r>   21.7561    0.0000 </r>
      </set>
      <set comment="kpoint 40">
       <r>   -3.5903    1.0000 </r>
       <r>    1.8896    1.0000 </r>
       <r>    3.8870    1.0000 </r>
       <r>    4.1898    1.0000 </r>
       <r>    8.2539    1.0251 </r>
       <r>   11.2548    0.0000 </r>
       <r>   11.7573    0.0000 </r>
       <r>   12.9089    0.0000 </r>
       <r>   16.2355    0.0000 </r>
       <r>   18.8159    0.0000 </r>
       <r>   20.7570    0.0000 </r>
       <r>   21.1413    0.0000 </r>
      </set>
      <set comment="kpoint 41">
       <r>   -3.0147    1.0000 </r>
       <r>    1.6274    1.0000 </r>
       <r>    3.5754    1.0000 </r>
       <r>    3.8388    1.0000 </r>
       <r>    9.3679    0.0000 </r>
       <r>   10.9813    0.0000 </r>
       <r>   12.0881    0.0000 </r>
       <r>   13.5672    0.0000 </r>
       <r>   16.7972    0.0000 </r>
       <r>   19.0137    0.0000 </r>
       <r>   20.7109    0.0000 </r>
       <r>   20.9569    0.0000 </r>
      </set>
      <set comment="kpoint 42">
       <r>   -2.9667    1.0000 </r>
       <r>    1.7503    1.0000 </r>
       <r>    3.5041    1.0000 </r>
       <r>    3.9582    1.0000 </r>
       <r>    9.4123    0.0000 </r>
       <r>   10.6035    0.0000 </r>
       <r>   12.2020    0.0000 </r>
       <r>   15.0855    0.0000 </r>
       <r>   15.5311    0.0000 </r>
       <r>   19.0298    0.0000 </r>
       <r>   20.6677    0.0000 </r>
       <r>   20.8963    0.0000 </r>
      </set>
      <set comment="kpoint 43">
       <r>   -3.3988    1.0000 </r>
       <r>    2.0206    1.0000 </r>
       <r>    3.7544    1.0000 </r>
       <r>    4.3206    1.0000 </r>
       <r>    8.2085    1.0014 </r>
       <r>   11.6330    0.0000 </r>
       <r>   12.1934    0.0000 </r>
       <r>   13.0473    0.0000 </r>
       <r>   16.3512    0.0000 </r>
       <r>   19.1774    0.0000 </r>
       <r>   19.9503    0.0000 </r>
       <r>   20.8147    0.0000 </r>
      </set>
      <set comment="kpoint 44">
       <r>   -3.5627    1.0000 </r>
       <r>    2.0993    1.0000 </r>
       <r>    3.7926    1.0000 </r>
       <r>    4.9494    1.0000 </r>
       <r>    7.3909    1.0000 </r>
       <r>   11.6020    0.0000 </r>
       <r>   12.2600    0.0000 </r>
       <r>   13.4809    0.0000 </r>
       <r>   15.9200    0.0000 </r>
       <r>   18.9969    0.0000 </r>
       <r>   19.6420    0.0000 </r>
       <r>   20.8099    0.0000 </r>
      </set>
      <set comment="kpoint 45">
       <r>   -3.4462    1.0000 </r>
       <r>    2.6437    1.0000 </r>
       <r>    3.6609    1.0000 </r>
       <r>    4.4319    1.0000 </r>
       <r>    8.2432    1.0156 </r>
       <r>   11.5719    0.0000 </r>
       <r>   12.4020    0.0000 </r>
       <r>   13.1129    0.0000 </r>
       <r>   15.9410    0.0000 </r>
       <r>   18.5873    0.0000 </r>
       <r>   20.3764    0.0000 </r>
       <r>   20.8115    0.0000 </r>
      </set>
      <set comment="kpoint 46">
       <r>   -3.2711    1.0000 </r>
       <r>    2.9371    1.0000 </r>
       <r>    3.5363    1.0000 </r>
       <r>    3.8360    1.0000 </r>
       <r>    9.4442    0.0000 </r>
       <r>   10.5948    0.0000 </r>
       <r>   12.4668    0.0000 </r>
       <r>   13.5512    0.0000 </r>
       <r>   14.8454    0.0000 </r>
       <r>   20.4246    0.0000 </r>
       <r>   20.8296    0.0000 </r>
       <r>   21.1664    0.0000 </r>
      </set>
      <set comment="kpoint 47">
       <r>   -3.1452    1.0000 </r>
       <r>    2.2582    1.0000 </r>
       <r>    3.5414    1.0000 </r>
       <r>    3.9709    1.0000 </r>
       <r>    9.4039    0.0000 </r>
       <r>   10.5958    0.0000 </r>
       <r>   12.3862    0.0000 </r>
       <r>   13.7370    0.0000 </r>
       <r>   15.7002    0.0000 </r>
       <r>   19.8701    0.0000 </r>
       <r>   20.6849    0.0000 </r>
       <r>   20.8897    0.0000 </r>
      </set>
      <set comment="kpoint 48">
       <r>   -3.6550    1.0000 </r>
       <r>    3.1738    1.0000 </r>
       <r>    3.6846    1.0000 </r>
       <r>    5.2784    1.0000 </r>
       <r>    7.2671    1.0000 </r>
       <r>   11.9445    0.0000 </r>
       <r>   12.4286    0.0000 </r>
       <r>   13.3828    0.0000 </r>
       <r>   15.1378    0.0000 </r>
       <r>   17.8107    0.0000 </r>
       <r>   20.3811    0.0000 </r>
       <r>   20.8056    0.0000 </r>
      </set>
      <set comment="kpoint 49">
       <r>   -3.5320    1.0000 </r>
       <r>    3.3023    1.0000 </r>
       <r>    3.6270    1.0000 </r>
       <r>    4.3496    1.0000 </r>
       <r>    8.2902    0.9971 </r>
       <r>   11.5472    0.0000 </r>
       <r>   12.4648    0.0000 </r>
       <r>   13.0899    0.0000 </r>
       <r>   15.0852    0.0000 </r>
       <r>   18.7854    0.0000 </r>
       <r>   20.6489    0.0000 </r>
       <r>   20.8092    0.0000 </r>
      </set>
      <set comment="kpoint 50">
       <r>   -3.5833    1.0000 </r>
       <r>    2.6620    1.0000 </r>
       <r>    3.7084    1.0000 </r>
       <r>    5.1407    1.0000 </r>
       <r>    7.3336    1.0000 </r>
       <r>   11.9024    0.0000 </r>
       <r>   12.3528    0.0000 </r>
       <r>   13.4024    0.0000 </r>
       <r>   15.9562    0.0000 </r>
       <r>   17.7370    0.0000 </r>
       <r>   20.1366    0.0000 </r>
       <r>   20.8070    0.0000 </r>
      </set>
      <set comment="kpoint 51">
       <r>   -3.9436    1.0000 </r>
       <r>    2.2197    1.0000 </r>
       <r>    3.8695    1.0000 </r>
       <r>    3.8695    1.0000 </r>
       <r>    9.6229    0.0000 </r>
       <r>    9.6229    0.0000 </r>
       <r>   10.0136    0.0000 </r>
       <r>   15.5986    0.0000 </r>
       <r>   15.5986    0.0000 </r>
       <r>   16.7687    0.0000 </r>
       <r>   20.7864    0.0000 </r>
       <r>   21.5987    0.0000 </r>
      </set>
      <set comment="kpoint 52">
       <r>   -3.2932    1.0000 </r>
       <r>    1.4525    1.0000 </r>
       <r>    3.4747    1.0000 </r>
       <r>    3.7767    1.0000 </r>
       <r>    9.5632    0.0000 </r>
       <r>   10.2293    0.0000 </r>
       <r>   11.5028    0.0000 </r>
       <r>   14.5151    0.0000 </r>
       <r>   16.5446    0.0000 </r>
       <r>   17.7467    0.0000 </r>
       <r>   20.7868    0.0000 </r>
       <r>   21.8947    0.0000 </r>
      </set>
      <set comment="kpoint 53">
       <r>   -2.8208    1.0000 </r>
       <r>    1.2309    1.0000 </r>
       <r>    3.5613    1.0000 </r>
       <r>    3.6020    1.0000 </r>
       <r>   10.1279    0.0000 </r>
       <r>   10.7317    0.0000 </r>
       <r>   11.6370    0.0000 </r>
       <r>   13.6918    0.0000 </r>
       <r>   17.9012    0.0000 </r>
       <r>   17.9608    0.0000 </r>
       <r>   20.7835    0.0000 </r>
       <r>   21.2131    0.0000 </r>
      </set>
      <set comment="kpoint 54">
       <r>   -3.0623    1.0000 </r>
       <r>    1.9614    1.0000 </r>
       <r>    3.5332    1.0000 </r>
       <r>    4.1909    1.0000 </r>
       <r>    8.7683    0.0000 </r>
       <r>   11.1366    0.0000 </r>
       <r>   12.1835    0.0000 </r>
       <r>   14.4996    0.0000 </r>
       <r>   15.9188    0.0000 </r>
       <r>   19.2121    0.0000 </r>
       <r>   20.5228    0.0000 </r>
       <r>   20.8148    0.0000 </r>
      </set>
      <set comment="kpoint 55">
       <r>   -2.9456    1.0000 </r>
       <r>    1.0442    1.0000 </r>
       <r>    3.3612    1.0000 </r>
       <r>    3.7634    1.0000 </r>
[...]
        <r>  0.0330  0.0099  0.0099  0.2048  0.1495  0.0083  0.0016  0.1495  0.0049 </r>
       </set>
      </set>
      <set comment="kpoint 54">
       <set comment="band 1">
        <r>  0.4369  0.0011  0.0011  0.0001  0.0000  0.0000  0.0000  0.0000  0.0000 </r>
        <r>  0.0037  0.0486  0.0486  0.0025  0.0000  0.0003  0.0788  0.0000  0.2364 </r>
       </set>
       <set comment="band 2">
        <r>  0.0052  0.0914  0.0914  0.0076  0.0000  0.0000  0.0000  0.0000  0.0000 </r>
        <r>  0.1957  0.0531  0.0531  0.0102  0.0099  0.2696  0.0096  0.0099  0.0288 </r>
       </set>
       <set comment="band 3">
        <r>  0.0009  0.0041  0.0041  0.2176  0.0000  0.0000  0.0000  0.0000  0.0000 </r>
        <r>  0.0000  0.0041  0.0041  0.3343  0.1106  0.0182  0.0055  0.1106  0.0164 </r>
       </set>
       <set comment="band 4">
        <r>  0.0000  0.1515  0.1515  0.0000  0.0000  0.0000  0.0000  0.0000  0.0000 </r>
        <r>  0.0000  0.0359  0.0359  0.0000  0.0026  0.0000  0.3645  0.0026  0.1215 </r>
       </set>
       <set comment="band 5">
        <r>  0.0106  0.0634  0.0634  0.0010  0.0000  0.0000  0.0000  0.0000  0.0000 </r>
        <r>  0.1001  0.0006  0.0006  0.0013  0.0002  0.5462  0.0065  0.0002  0.0195 </r>
       </set>
       <set comment="band 6">
        <r>  0.0000  0.0007  0.0007  0.0000  0.0000  0.0000  0.0000  0.0000  0.0000 </r>
        <r>  0.0000  0.0001  0.0001  0.0000  0.4694  0.0000  0.0028  0.4694  0.0009 </r>
       </set>
       <set comment="band 7">
        <r>  0.0036  0.0006  0.0006  0.1882  0.0000  0.0000  0.0000  0.0000  0.0000 </r>
        <r>  0.0208  0.0001  0.0001  0.0279  0.3099  0.0001  0.0063  0.3099  0.0188 </r>
       </set>
       <set comment="band 8">
        <r>  0.0974  0.0000  0.0000  0.0210  0.0000  0.0000  0.0000  0.0000  0.0000 </r>
        <r>  0.1683  0.0060  0.0060  0.0191  0.0096  0.0003  0.1500  0.0096  0.4501 </r>
       </set>
       <set comment="band 9">
        <r>  0.0000  0.0941  0.0941  0.0000  0.0000  0.0000  0.0000  0.0000  0.0000 </r>
        <r>  0.0000  0.0632  0.0632  0.0000  0.0001  0.0000  0.4530  0.0001  0.1510 </r>
       </set>
       <set comment="band 10">
        <r>  0.0778  0.0284  0.0284  0.0264  0.0000  0.0000  0.0000  0.0000  0.0000 </r>
        <r>  0.1409  0.1401  0.1401  0.0144  0.0142  0.0837  0.0049  0.0142  0.0148 </r>
       </set>
       <set comment="band 11">
        <r>  0.0065  0.0542  0.0542  0.1033  0.0000  0.0000  0.0000  0.0000  0.0000 </r>
        <r>  1.5729  0.0006  0.0006  0.1386  0.0660  0.0020  0.0140  0.0660  0.0420 </r>
       </set>
       <set comment="band 12">
        <r>  0.0012  0.0017  0.0017  0.0061  0.0000  0.0000  0.0000  0.0000  0.0000 </r>
        <r> 42.2375  0.0021  0.0021  0.0086  0.0039  0.0010  0.0004  0.0039  0.0012 </r>
       </set>
      </set>
      <set comment="kpoint 55">
       <set comment="band 1">
        <r>  0.4030  0.0050  0.0018  0.0050  0.0000  0.0000  0.0000  0.0000  0.0000 </r>
        <r>  0.1206  0.0453  0.0899  0.0453  0.0043  0.0045  0.0728  0.0045  0.0000 </r>
       </set>
       <set comment="band 2">
        <r>  0.0477  0.0370  0.1008  0.0370  0.0000  0.0000  0.0000  0.0000  0.0000 </r>
        <r>  0.2106  0.0260  0.0028  0.0260  0.0839  0.0977  0.0617  0.0977  0.0000 </r>
       </set>
       <set comment="band 3">
        <r>  0.0068  0.0567  0.1320  0.0567  0.0000  0.0000  0.0000  0.0000  0.0000 </r>
        <r>  0.0002  0.0228  0.0411  0.0228  0.1535  0.0010  0.3891  0.0010  0.0000 </r>
       </set>
       <set comment="band 4">
        <r>  0.0000  0.1339  0.0000  0.1339  0.0000  0.0000  0.0000  0.0000  0.0000 </r>
        <r>  0.0000  0.0151  0.0000  0.0151  0.0000  0.0614  0.0000  0.0614  0.4655 </r>
       </set>
       <set comment="band 5">
        <r>  0.0197  0.0370  0.0046  0.0370  0.0000  0.0000  0.0000  0.0000  0.0000 </r>
        <r>  0.0301  0.0005  0.0015  0.0005  0.5978  0.0201  0.0680  0.0201  0.0000 </r>
       </set>
       <set comment="band 6">
        <r>  0.0000  0.0119  0.0000  0.0119  0.0000  0.0000  0.0000  0.0000  0.0000 </r>
        <r>  0.0000  0.0017  0.0000  0.0017  0.0000  0.4105  0.0000  0.4105  0.1239 </r>
       </set>
       <set comment="band 7">
        <r>  0.0104  0.0312  0.0424  0.0312  0.0000  0.0000  0.0000  0.0000  0.0000 </r>
        <r>  0.0864  0.0007  0.0043  0.0007  0.0000  0.3514  0.0039  0.3514  0.0000 </r>
       </set>
       <set comment="band 8">
        <r>  0.1125  0.0276  0.0055  0.0276  0.0000  0.0000  0.0000  0.0000  0.0000 </r>
        <r>  0.0002  0.0763  0.1099  0.0763  0.0612  0.0041  0.0959  0.0041  0.0000 </r>
       </set>
       <set comment="band 9">
        <r>  0.0000  0.1288  0.0000  0.1288  0.0000  0.0000  0.0000  0.0000  0.0000 </r>
        <r>  0.0000  0.0601  0.0000  0.0601  0.0000  0.0162  0.0000  0.0162  0.4576 </r>
       </set>
       <set comment="band 10">
        <r>  0.0034  0.0447  0.2294  0.0447  0.0000  0.0000  0.0000  0.0000  0.0000 </r>
        <r>  0.0057  0.0045  0.0303  0.0045  0.0056  0.0022  0.4628  0.0022  0.0000 </r>
       </set>
       <set comment="band 11">
        <r>  0.0014  0.0080  0.0132  0.0080  0.0000  0.0000  0.0000  0.0000  0.0000 </r>
        <r> 36.7454  0.0023  0.0174  0.0023  0.0000  0.0005  0.0051  0.0005  0.0000 </r>
       </set>
       <set comment="band 12">
        <r>  0.0105  0.0558  0.0816  0.0558  0.0000  0.0000  0.0000  0.0000  0.0000 </r>
        <r>  7.5687  0.0218  0.1452  0.0218  0.0004  0.0046  0.0349  0.0046  0.0000 </r>
       </set>
      </set>
      <set comment="kpoint 56">
       <set comment="band 1">
        <r>  0.4401  0.0013  0.0001  0.0017  0.0000  0.0000  0.0000  0.0000  0.0000 </r>
        <r>  0.0268  0.0780  0.0596  0.0186  0.0008  0.0008  0.1664  0.0003  0.0354 </r>
       </set>
       <set comment="band 2">
        <r>  0.0068  0.0780  0.0870  0.0252  0.0000  0.0000  0.0000  0.0000  0.0000 </r>
        <r>  0.2486  0.0024  0.0407  0.0281  0.0767  0.1430  0.0138  0.0438  0.0392 </r>
       </set>
       <set comment="band 3">
        <r>  0.0059  0.0234  0.1205  0.0885  0.0000  0.0000  0.0000  0.0000  0.0000 </r>
        <r>  0.0001  0.0075  0.0846  0.0921  0.1693  0.0347  0.2327  0.0034  0.0000 </r>
       </set>
       <set comment="band 4">
        <r>  0.0001  0.1537  0.0249  0.0941  0.0000  0.0000  0.0000  0.0000  0.0000 </r>
        <r>  0.0012  0.0004  0.0095  0.0651  0.0218  0.0114  0.0722  0.0618  0.3588 </r>
       </set>
       <set comment="band 5">
        <r>  0.0138  0.0111  0.0060  0.0914  0.0000  0.0000  0.0000  0.0000  0.0000 </r>
        <r>  0.0257  0.0003  0.0028  0.0061  0.5625  0.0038  0.0455  0.0598  0.0115 </r>
       </set>
       <set comment="band 6">
        <r>  0.0069  0.0253  0.0441  0.0022  0.0000  0.0000  0.0000  0.0000  0.0000 </r>
        <r>  0.0330  0.0007  0.0000  0.0001  0.0033  0.6488  0.0220  0.0795  0.0453 </r>
       </set>
       <set comment="band 7">
        <r>  0.0030  0.0076  0.0261  0.0556  0.0000  0.0000  0.0000  0.0000  0.0000 </r>
        <r>  0.0731  0.0008  0.0000  0.0001  0.0019  0.0442  0.0014  0.6799  0.0427 </r>
       </set>
       <set comment="band 8">
        <r>  0.0593  0.0190  0.0001  0.1209  0.0000  0.0000  0.0000  0.0000  0.0000 </r>
        <r>  0.0501  0.0108  0.0001  0.0902  0.0161  0.0076  0.0701  0.0272  0.4132 </r>
       </set>
       <set comment="band 9">
        <r>  0.0727  0.0387  0.0248  0.0060  0.0000  0.0000  0.0000  0.0000  0.0000 </r>
        <r>  0.0182  0.0417  0.1672  0.0037  0.0176  0.0524  0.2530  0.0001  0.0727 </r>
       </set>
       <set comment="band 10">
        <r>  0.0023  0.0112  0.1945  0.0102  0.0000  0.0000  0.0000  0.0000  0.0000 </r>
        <r>  0.0107  0.1185  0.0094  0.0297  0.0330  0.0262  0.2888  0.0034  0.0007 </r>
       </set>
       <set comment="band 11">
        <r>  0.0014  0.1088  0.0061  0.0060  0.0000  0.0000  0.0000  0.0000  0.0000 </r>
        <r> 24.9972  0.0054  0.0309  0.0028  0.0000  0.0001  0.0038  0.0006  0.0294 </r>
       </set>
       <set comment="band 12">
        <r>  0.0025  0.1832  0.0100  0.0089  0.0000  0.0000  0.0000  0.0000  0.0000 </r>
        <r> 19.3818  0.0105  0.0593  0.0074  0.0001  0.0002  0.0051  0.0008  0.0476 </r>
       </set>
      </set>
      <set comment="kpoint 57">
       <set comment="band 1">
        <r>  0.4379  0.0002  0.0008  0.0001  0.0000  0.0000  0.0000  0.0000  0.0000 </r>
        <r>  0.0006  0.0740  0.0199  0.0024  0.0000  0.0001  0.1903  0.0000  0.1350 </r>
       </set>
       <set comment="band 2">
        <r>  0.0016  0.1211  0.0743  0.0102  0.0000  0.0000  0.0000  0.0000  0.0000 </r>
        <r>  0.1867  0.0104  0.0885  0.0148  0.0216  0.2172  0.0031  0.0064  0.0793 </r>
       </set>
       <set comment="band 3">
        <r>  0.0009  0.0004  0.0177  0.1953  0.0000  0.0000  0.0000  0.0000  0.0000 </r>
        <r>  0.0000  0.0015  0.0214  0.2971  0.2163  0.0318  0.0121  0.0299  0.0090 </r>
       </set>
       <set comment="band 4">
        <r>  0.0001  0.1552  0.1201  0.0084  0.0000  0.0000  0.0000  0.0000  0.0000 </r>
        <r>  0.0115  0.0019  0.1043  0.0108  0.0015  0.0488  0.2060  0.0074  0.1809 </r>
       </set>
       <set comment="band 5">
        <r>  0.0076  0.0155  0.1345  0.0003  0.0000  0.0000  0.0000  0.0000  0.0000 </r>
        <r>  0.0737  0.0001  0.0154  0.0006  0.0007  0.5344  0.0333  0.0033  0.0014 </r>
       </set>
       <set comment="band 6">
        <r>  0.0018  0.0010  0.0012  0.1230  0.0000  0.0000  0.0000  0.0000  0.0000 </r>
        <r>  0.0061  0.0000  0.0006  0.0297  0.5965  0.0002  0.0059  0.0943  0.0040 </r>
       </set>
       <set comment="band 7">
        <r>  0.0010  0.0005  0.0016  0.0742  0.0000  0.0000  0.0000  0.0000  0.0000 </r>
        <r>  0.0165  0.0000  0.0001  0.0107  0.0158  0.0000  0.0001  0.8154  0.0181 </r>
       </set>
       <set comment="band 8">
        <r>  0.0465  0.0110  0.0155  0.0201  0.0000  0.0000  0.0000  0.0000  0.0000 </r>
        <r>  0.2288  0.0026  0.0238  0.0181  0.0059  0.0009  0.0042  0.0116  0.5531 </r>
       </set>
       <set comment="band 9">
        <r>  0.0888  0.0173  0.0680  0.0004  0.0000  0.0000  0.0000  0.0000  0.0000 </r>
        <r>  0.0194  0.0206  0.0656  0.0007  0.0008  0.0116  0.6287  0.0001  0.0011 </r>
       </set>
       <set comment="band 10">
        <r>  0.0331  0.0929  0.0107  0.0436  0.0000  0.0000  0.0000  0.0000  0.0000 </r>
        <r>  0.2343  0.1402  0.0819  0.0352  0.0484  0.0803  0.0295  0.0056  0.0290 </r>
       </set>
       <set comment="band 11">
        <r>  0.0000  0.0561  0.0149  0.0160  0.0000  0.0000  0.0000  0.0000  0.0000 </r>
        <r> 28.3324  0.0035  0.0024  0.0259  0.0207  0.0095  0.0001  0.0026  0.0330 </r>
       </set>
       <set comment="band 12">
        <r>  0.0016  0.1603  0.0223  0.0310  0.0000  0.0000  0.0000  0.0000  0.0000 </r>
        <r> 15.6992  0.0000  0.0000  0.0558  0.0404  0.0047  0.0021  0.0056  0.0814 </r>
       </set>
      </set>
      <set comment="kpoint 58">
       <set comment="band 1">
        <r>  0.4379  0.0016  0.0003  0.0016  0.0000  0.0000  0.0000  0.0000  0.0000 </r>
        <r>  0.0112  0.0486  0.0231  0.0486  0.0006  0.0001  0.2736  0.0001  0.0000 </r>
       </set>
       <set comment="band 2">
        <r>  0.0056  0.0689  0.0481  0.0689  0.0000  0.0000  0.0000  0.0000  0.0000 </r>
        <r>  0.2256  0.0347  0.0460  0.0347  0.1821  0.0567  0.0022  0.0567  0.0000 </r>
       </set>
       <set comment="band 3">
        <r>  0.0057  0.0260  0.1795  0.0260  0.0000  0.0000  0.0000  0.0000  0.0000 </r>
        <r>  0.0000  0.0227  0.2166  0.0227  0.1043  0.0499  0.1461  0.0499  0.0000 </r>
       </set>
       <set comment="band 4">
        <r>  0.0000  0.1464  0.0000  0.1464  0.0000  0.0000  0.0000  0.0000  0.0000 </r>
        <r>  0.0000  0.0307  0.0000  0.0307  0.0000  0.0203  0.0000  0.0203  0.4771 </r>
       </set>
       <set comment="band 5">
        <r>  0.0157  0.0594  0.0064  0.0594  0.0000  0.0000  0.0000  0.0000  0.0000 </r>
        <r>  0.0683  0.0004  0.0055  0.0004  0.5452  0.0036  0.0472  0.0036  0.0000 </r>
       </set>
       <set comment="band 6">
        <r>  0.0000  0.0053  0.0000  0.0053  0.0000  0.0000  0.0000  0.0000  0.0000 </r>
        <r>  0.0000  0.0002  0.0000  0.0002  0.0000  0.4572  0.0000  0.4572  0.0328 </r>
       </set>
       <set comment="band 7">
        <r>  0.0060  0.0083  0.1114  0.0083  0.0000  0.0000  0.0000  0.0000  0.0000 </r>
        <r>  0.0774  0.0000  0.0027  0.0000  0.0018  0.3225  0.0520  0.3225  0.0000 </r>
       </set>
       <set comment="band 8">
        <r>  0.1066  0.0008  0.0552  0.0008  0.0000  0.0000  0.0000  0.0000  0.0000 </r>
        <r>  0.0588  0.0003  0.1034  0.0003  0.0073  0.0288  0.4985  0.0288  0.0000 </r>
       </set>
       <set comment="band 9">
        <r>  0.0000  0.0979  0.0000  0.0979  0.0000  0.0000  0.0000  0.0000  0.0000 </r>
        <r>  0.0000  0.0662  0.0000  0.0662  0.0000  0.0015  0.0000  0.0015  0.5719 </r>
       </set>
       <set comment="band 10">
        <r>  0.0331  0.0023  0.1133  0.0023  0.0000  0.0000  0.0000  0.0000  0.0000 </r>
        <r>  0.0944  0.1229  0.0145  0.1229  0.0731  0.0173  0.0304  0.0173  0.0000 </r>
       </set>
       <set comment="band 11">
        <r>  0.0184  0.1256  0.0206  0.1255  0.0000  0.0000  0.0000  0.0000  0.0000 </r>
        <r>  1.0572  0.0066  0.0941  0.0066  0.0009  0.0093  0.1072  0.0093  0.0000 </r>
       </set>
       <set comment="band 12">
        <r>  0.0010  0.0048  0.0008  0.0048  0.0000  0.0000  0.0000  0.0000  0.0000 </r>
        <r> 43.2502  0.0011  0.0050  0.0011  0.0001  0.0004  0.0032  0.0004  0.0000 </r>
       </set>
      </set>
      <set comment="kpoint 59">
       <set comment="band 1">
        <r>  0.4187  0.0048  0.0048  0.0048  0.0000  0.0000  0.0000  0.0000  0.0000 </r>
        <r>  0.0918  0.0795  0.0795  0.0795  0.0071  0.0071  0.0000  0.0071  0.0000 </r>
       </set>
       <set comment="band 2">
        <r>  0.0592  0.0530  0.0530  0.0530  0.0000  0.0000  0.0000  0.0000  0.0000 </r>
        <r>  0.2565  0.0155  0.0155  0.0155  0.1006  0.1006  0.0000  0.1006  0.0000 </r>
       </set>
       <set comment="band 3">
        <r>  0.0000  0.0725  0.0605  0.1265  0.0000  0.0000  0.0000  0.0000  0.0000 </r>
        <r>  0.0000  0.0002  0.0002  0.0004  0.0266  0.0557  0.1872  0.0319  0.3482 </r>
       </set>
       <set comment="band 4">
        <r>  0.0000  0.1005  0.1125  0.0465  0.0000  0.0000  0.0000  0.0000  0.0000 </r>
        <r>  0.0000  0.0003  0.0004  0.0002  0.0495  0.0205  0.3482  0.0443  0.1872 </r>
       </set>
       <set comment="band 5">
        <r>  0.0000  0.0115  0.0124  0.0053  0.0000  0.0000  0.0000  0.0000  0.0000 </r>
        <r>  0.0000  0.0010  0.0011  0.0005  0.3586  0.1545  0.0537  0.3344  0.0309 </r>
       </set>
       <set comment="band 6">
        <r>  0.0000  0.0079  0.0071  0.0141  0.0000  0.0000  0.0000  0.0000  0.0000 </r>
        <r>  0.0000  0.0007  0.0006  0.0012  0.2064  0.4105  0.0309  0.2306  0.0537 </r>
       </set>
       <set comment="band 7">
        <r>  0.0259  0.0426  0.0426  0.0426  0.0000  0.0000  0.0000  0.0000  0.0000 </r>
        <r>  0.1167  0.0100  0.0100  0.0100  0.1728  0.1728  0.0000  0.1728  0.0000 </r>
       </set>
       <set comment="band 8">
        <r>  0.0806  0.0173  0.0173  0.0173  0.0000  0.0000  0.0000  0.0000  0.0000 </r>
        <r>  0.0082  0.0970  0.0970  0.0970  0.0369  0.0369  0.0000  0.0369  0.0000 </r>
       </set>
       <set comment="band 9">
        <r>  0.0000  0.1344  0.1427  0.0609  0.0000  0.0000  0.0000  0.0000  0.0000 </r>
        <r>  0.0000  0.0151  0.0160  0.0068  0.0036  0.0016  0.3281  0.0034  0.1900 </r>
       </set>
       <set comment="band 10">
        <r>  0.0000  0.0909  0.0827  0.1645  0.0000  0.0000  0.0000  0.0000  0.0000 </r>
        <r>  0.0000  0.0102  0.0093  0.0185  0.0021  0.0042  0.1900  0.0023  0.3281 </r>
       </set>
       <set comment="band 11">
        <r>  0.0000  0.0004  0.0004  0.0004  0.0000  0.0000  0.0000  0.0000  0.0000 </r>
        <r> 43.4541  0.0002  0.0000  0.0002  0.0000  0.0000  0.0000  0.0000  0.0000 </r>
       </set>
       <set comment="band 12">
        <r>  0.0000  0.0036  0.0039  0.0017  0.0000  0.0000  0.0000  0.0000  0.0000 </r>
        <r>  0.0000  0.1687  0.1856  0.0780  0.0070  0.0029  0.0248  0.0063  0.0137 </r>
       </set>
      </set>
      <set comment="kpoint 60">
       <set comment="band 1">
        <r>  0.4653  0.0000  0.0000  0.0020  0.0000  0.0000  0.0000  0.0000  0.0000 </r>
        <r>  0.0056  0.0886  0.0886  0.0545  0.0004  0.0003  0.0239  0.0004  0.0718 </r>
       </set>
       <set comment="band 2">
        <r>  0.0026  0.0662  0.0662  0.0441  0.0000  0.0000  0.0000  0.0000  0.0000 </r>
        <r>  0.3125  0.0026  0.0026  0.0226  0.0880  0.1277  0.0025  0.0880  0.0075 </r>
       </set>
       <set comment="band 3">
        <r>  0.0048  0.0347  0.0347  0.1787  0.0000  0.0000  0.0000  0.0000  0.0000 </r>
        <r>  0.0000  0.0111  0.0111  0.0788  0.0424  0.0728  0.0937  0.0424  0.2811 </r>
       </set>
       <set comment="band 4">
        <r>  0.0000  0.1342  0.1342  0.0000  0.0000  0.0000  0.0000  0.0000  0.0000 </r>
        <r>  0.0000  0.0063  0.0063  0.0000  0.0415  0.0000  0.4051  0.0415  0.1350 </r>
       </set>
       <set comment="band 5">
        <r>  0.0175  0.0162  0.0162  0.0245  0.0000  0.0000  0.0000  0.0000  0.0000 </r>
        <r>  0.0031  0.0029  0.0029  0.0004  0.0820  0.5311  0.0269  0.0820  0.0806 </r>
       </set>
       <set comment="band 6">
        <r>  0.0000  0.0115  0.0115  0.0000  0.0000  0.0000  0.0000  0.0000  0.0000 </r>
        <r>  0.0000  0.0009  0.0009  0.0000  0.4382  0.0000  0.0424  0.4382  0.0141 </r>
       </set>
       <set comment="band 7">
        <r>  0.0037  0.0409  0.0409  0.0714  0.0000  0.0000  0.0000  0.0000  0.0000 </r>
        <r>  0.1359  0.0001  0.0001  0.0018  0.2156  0.1587  0.0023  0.2156  0.0068 </r>
       </set>
       <set comment="band 8">
        <r>  0.0980  0.0000  0.0000  0.0119  0.0000  0.0000  0.0000  0.0000  0.0000 </r>
        <r>  0.0001  0.0801  0.0801  0.1186  0.0457  0.0638  0.0102  0.0457  0.0307 </r>
       </set>
       <set comment="band 9">
        <r>  0.0026  0.0198  0.0198  0.1929  0.0000  0.0000  0.0000  0.0000  0.0000 </r>
        <r>  0.0193  0.0475  0.0475  0.0284  0.0003  0.0046  0.1147  0.0003  0.3441 </r>
       </set>
       <set comment="band 10">
        <r>  0.0000  0.1450  0.1450  0.0000  0.0000  0.0000  0.0000  0.0000  0.0000 </r>
        <r>  0.0000  0.0280  0.0280  0.0000  0.0005  0.0000  0.4252  0.0005  0.1417 </r>
       </set>
       <set comment="band 11">
        <r>  0.0001  0.0062  0.0062  0.0000  0.0000  0.0000  0.0000  0.0000  0.0000 </r>
        <r> 41.0765  0.0014  0.0015  0.0050  0.0000  0.0001  0.0008  0.0000  0.0025 </r>
       </set>
       <set comment="band 12">
        <r>  0.0025  0.0770  0.0770  0.0077  0.0000  0.0000  0.0000  0.0000  0.0000 </r>
        <r>  2.4474  0.0525  0.0525  0.1847  0.0063  0.0122  0.0158  0.0063  0.0474 </r>
       </set>
      </set>
     </set>
    </set>
   </array>
  </projected>
 </calculation>
 <structure name="finalpos" >
  <crystal>
   <varray name="basis" >
    <v>       0.00000000       2.23750000       2.23750000 </v>
    <v>       2.23750000       0.00000000       2.23750000 </v>
    <v>       2.23750000       2.23750000       0.00000000 </v>
   </varray>
   <i name="volume">     22.40366797 </i>
   <varray name="rec_basis" >
    <v>      -0.22346369       0.22346369       0.22346369 </v>
    <v>       0.22346369      -0.22346369       0.22346369 </v>
    <v>       0.22346369       0.22346369      -0.22346369 </v>
   </varray>
  </crystal>
  <varray name="positions" >
   <v>       0.50000000       0.50000000       0.50000000 </v>
   <v>       0.00000000       0.00000000       0.00000000 </v>
  </varray>
 </structure>
</modeling>
