   1   1   1   0
  0.1761125E+02  0.2920351E-09  0.2920351E-09  0.2920351E-09  0.5000000E-15
  1.000000000000000E-004
  CAR 
 unknown system                          
     25.26562654     -3.04164102  301      6.28249295      1.00000000
     -3.042  0.0000E+00  0.0000E+00  0.0000E+00  0.0000E+00
     -2.947  0.0000E+00  0.0000E+00  0.0000E+00  0.0000E+00
     -2.853  0.0000E+00  0.0000E+00  0.0000E+00  0.0000E+00
     -2.759  0.0000E+00  0.0000E+00  0.0000E+00  0.0000E+00
     -2.664  0.0000E+00  0.0000E+00  0.0000E+00  0.0000E+00
     -2.570  0.0000E+00  0.0000E+00  0.0000E+00  0.0000E+00
     -2.475  0.0000E+00  0.0000E+00  0.0000E+00  0.0000E+00
     -2.381  0.0000E+00  0.0000E+00  0.0000E+00  0.0000E+00
     -2.287  0.0000E+00  0.0000E+00  0.0000E+00  0.0000E+00
     -2.192 -0.1371E-33 -0.2927E-36 -0.1294E-34 -0.2762E-37
     -2.098 -0.6712E-21 -0.5359E-23 -0.6333E-22 -0.5057E-24
     -2.004 -0.2352E-11 -0.7115E-13 -0.2219E-12 -0.6713E-14
     -1.909 -0.5554E-05 -0.6566E-06 -0.5241E-06 -0.6196E-07
     -1.815 -0.3465E-02 -0.2500E-02 -0.3275E-03 -0.2360E-03
     -1.721  0.9718E-01  0.7804E-01  0.8842E-02  0.7127E-02
     -1.626  0.4499E-02  0.2295E-01  0.9267E-02  0.9293E-02
     -1.532 -0.8136E-04 -0.3528E-03  0.9259E-02  0.9259E-02
     -1.438 -0.2684E-09 -0.4799E-08  0.9259E-02  0.9259E-02
     -1.343 -0.1133E-18 -0.4358E-16  0.9259E-02  0.9259E-02
     -1.249 -0.1233E-09 -0.4729E-11  0.9259E-02  0.9259E-02
     -1.154 -0.8720E-04 -0.1312E-04  0.9251E-02  0.9258E-02
     -1.060 -0.3128E-02 -0.1041E-01  0.8956E-02  0.8276E-02
     -0.966  0.3047E+00  0.2869E+00  0.3770E-01  0.3535E-01
     -0.871 -0.7025E-02  0.1816E-01  0.3704E-01  0.3706E-01
     -0.777 -0.5378E-04 -0.2945E-03  0.3704E-01  0.3704E-01
     -0.683 -0.5257E-10 -0.1147E-08  0.3704E-01  0.3704E-01
     -0.588 -0.2358E-09 -0.9686E-11  0.3704E-01  0.3704E-01
     -0.494 -0.1251E-03 -0.2010E-04  0.3703E-01  0.3704E-01
     -0.400  0.1216E-02 -0.1026E-01  0.3714E-01  0.3607E-01
     -0.305  0.3022E+00  0.2947E+00  0.6566E-01  0.6388E-01
     -0.211 -0.8912E-02  0.1013E-01  0.6482E-01  0.6483E-01
     -0.117 -0.3651E-04 -0.2095E-03  0.6481E-01  0.6481E-01
     -0.022 -0.3106E-05 -0.3545E-06  0.6481E-01  0.6481E-01
      0.072 -0.3400E-02 -0.2078E-02  0.6449E-01  0.6462E-01
      0.167  0.9223E-01  0.7071E-01  0.7320E-01  0.7129E-01
      0.261  0.6867E-01  0.3945E-01  0.7968E-01  0.7501E-01
      0.355  0.2431E+00  0.2947E+00  0.1026E+00  0.1028E+00
      0.450 -0.8073E-02 -0.1023E-01  0.1019E+00  0.1019E+00
      0.544 -0.2599E-05 -0.2067E-04  0.1019E+00  0.1019E+00
      0.638 -0.3421E-05 -0.3247E-06  0.1019E+00  0.1019E+00
      0.733 -0.1442E-01 -0.6248E-02  0.1005E+00  0.1013E+00
      0.827  0.4587E+00  0.2898E+00  0.1438E+00  0.1286E+00
      0.921  0.1450E+00  0.3118E+00  0.1575E+00  0.1580E+00
      1.016  0.9771E-01  0.2554E-01  0.1667E+00  0.1604E+00
      1.110  0.2018E+00  0.2721E+00  0.1857E+00  0.1861E+00
      1.204 -0.5636E-02 -0.9851E-02  0.1852E+00  0.1852E+00
      1.299 -0.1028E-02 -0.3324E-03  0.1851E+00  0.1852E+00
      1.393  0.4093E-01  0.1851E-01  0.1890E+00  0.1869E+00
      1.488  0.2716E+00  0.2184E+00  0.2146E+00  0.2075E+00
      1.582  0.2817E+00  0.2760E+00  0.2412E+00  0.2336E+00
      1.676  0.7903E-01  0.1609E+00  0.2486E+00  0.2487E+00
      1.771  0.6707E+00  0.5320E+00  0.3119E+00  0.2989E+00
      1.865  0.2305E+00  0.3751E+00  0.3336E+00  0.3343E+00
      1.959  0.1551E+00  0.6875E-01  0.3483E+00  0.3408E+00
      2.054  0.3478E+00  0.2744E+00  0.3811E+00  0.3667E+00
      2.148  0.8880E+00  0.9179E+00  0.4649E+00  0.4533E+00
      2.242  0.3834E+00  0.5145E+00  0.5011E+00  0.5019E+00
      2.337 -0.2624E-01 -0.3969E-01  0.4986E+00  0.4981E+00
      2.431  0.6315E+00  0.5431E+00  0.5582E+00  0.5494E+00
      2.525  0.3171E+00  0.3542E+00  0.5881E+00  0.5828E+00
      2.620  0.5581E+00  0.6033E+00  0.6408E+00  0.6397E+00
      2.714  0.3014E-01 -0.5839E-02  0.6436E+00  0.6392E+00
      2.809  0.7480E+00  0.6206E+00  0.7142E+00  0.6977E+00
      2.903  0.6578E+00  0.7921E+00  0.7762E+00  0.7725E+00
      2.997  0.3253E+00  0.2109E+00  0.8069E+00  0.7924E+00
      3.092  0.2857E+00  0.4481E+00  0.8339E+00  0.8346E+00
      3.186 -0.2417E-01 -0.2710E-01  0.8316E+00  0.8321E+00
      3.280  0.6701E+00  0.4694E+00  0.8949E+00  0.8764E+00
      3.375  0.3624E+00  0.4930E+00  0.9291E+00  0.9229E+00
      3.469  0.6979E+00  0.6899E+00  0.9949E+00  0.9880E+00
      3.563  0.1089E+01  0.9100E+00  0.1098E+01  0.1074E+01
      3.658  0.1337E+00  0.3981E+00  0.1110E+01  0.1111E+01
      3.752  0.3872E+00  0.2192E+00  0.1147E+01  0.1132E+01
      3.846  0.2662E+00  0.3848E+00  0.1172E+01  0.1168E+01
      3.941  0.3988E+00  0.3619E+00  0.1210E+01  0.1203E+01
      4.035  0.1368E+00  0.2152E+00  0.1223E+01  0.1223E+01
      4.130 -0.2979E-01 -0.3479E-01  0.1220E+01  0.1220E+01
      4.224  0.8969E+00  0.7862E+00  0.1304E+01  0.1294E+01
      4.318  0.2379E+00  0.1724E+00  0.1327E+01  0.1310E+01
      4.413  0.1566E+01  0.1670E+01  0.1475E+01  0.1468E+01
      4.507  0.1969E+00  0.1346E+00  0.1493E+01  0.1480E+01
      4.601  0.4545E+00  0.5418E+00  0.1536E+01  0.1531E+01
      4.696  0.2144E+00  0.2661E+00  0.1556E+01  0.1557E+01
      4.790 -0.1570E-01 -0.1360E-01  0.1555E+01  0.1555E+01
      4.884  0.3368E+00  0.1665E+00  0.1587E+01  0.1571E+01
      4.979  0.8569E+00  0.9578E+00  0.1667E+01  0.1661E+01
      5.073  0.5788E+00  0.6015E+00  0.1722E+01  0.1718E+01
      5.167  0.5889E+00  0.4758E+00  0.1778E+01  0.1763E+01
      5.262  0.5928E+00  0.7423E+00  0.1833E+01  0.1833E+01
      5.356  0.5740E+00  0.4749E+00  0.1888E+01  0.1878E+01
      5.451  0.8918E+00  0.9003E+00  0.1972E+01  0.1963E+01
      5.545 -0.1235E-01  0.9187E-01  0.1971E+01  0.1971E+01
      5.639  0.5443E+00  0.3784E+00  0.2022E+01  0.2007E+01
      5.734  0.2564E+00  0.3382E+00  0.2046E+01  0.2039E+01
      5.828  0.8499E+00  0.7163E+00  0.2126E+01  0.2107E+01
      5.922  0.1130E+01  0.1195E+01  0.2233E+01  0.2219E+01
      6.017  0.5913E+00  0.6057E+00  0.2289E+01  0.2277E+01
      6.111  0.6418E+00  0.5797E+00  0.2349E+01  0.2331E+01
      6.205  0.7887E+00  0.9408E+00  0.2424E+01  0.2420E+01
      6.300  0.1134E+01  0.9995E+00  0.2531E+01  0.2514E+01
      6.394  0.6747E-01  0.2446E+00  0.2537E+01  0.2537E+01
      6.488 -0.2322E-01 -0.2604E-01  0.2535E+01  0.2535E+01
      6.583  0.7940E+00  0.6388E+00  0.2610E+01  0.2595E+01
      6.677  0.3893E+00  0.5286E+00  0.2647E+01  0.2645E+01
      6.772  0.1196E+01  0.9433E+00  0.2759E+01  0.2734E+01
      6.866  0.3936E+00  0.6738E+00  0.2797E+01  0.2798E+01
      6.960  0.1743E+00  0.1251E+00  0.2813E+01  0.2810E+01
      7.055  0.4825E+00  0.4187E+00  0.2859E+01  0.2849E+01
      7.149  0.1079E+00  0.2203E+00  0.2869E+01  0.2870E+01
      7.243  0.5751E+00  0.4083E+00  0.2923E+01  0.2908E+01
      7.338  0.1287E+01  0.1091E+01  0.3044E+01  0.3011E+01
      7.432  0.1553E+01  0.1825E+01  0.3191E+01  0.3183E+01
      7.526  0.3370E+00  0.3907E+00  0.3223E+01  0.3220E+01
      7.621 -0.5548E-02  0.2019E-01  0.3222E+01  0.3222E+01
      7.715 -0.1999E-02 -0.9170E-03  0.3222E+01  0.3222E+01
      7.809  0.1168E+00  0.2951E-01  0.3233E+01  0.3225E+01
      7.904  0.4697E+00  0.5598E+00  0.3277E+01  0.3278E+01
      7.998  0.5718E+00  0.4822E+00  0.3331E+01  0.3323E+01
      8.093  0.1849E+00  0.1508E+00  0.3349E+01  0.3338E+01
      8.187  0.7206E+00  0.8403E+00  0.3417E+01  0.3417E+01
      8.281  0.6230E+00  0.4463E+00  0.3476E+01  0.3459E+01
      8.376  0.2654E+00  0.4480E+00  0.3501E+01  0.3501E+01
      8.470 -0.6337E-02 -0.1239E-01  0.3500E+01  0.3500E+01
      8.564 -0.4191E-05 -0.5143E-05  0.3500E+01  0.3500E+01
      8.659 -0.1166E-01 -0.5444E-02  0.3499E+01  0.3499E+01
      8.753  0.4383E+00  0.2122E+00  0.3540E+01  0.3520E+01
      8.847  0.1439E+01  0.1524E+01  0.3676E+01  0.3663E+01
      8.942  0.8176E+00  0.8087E+00  0.3753E+01  0.3740E+01
      9.036  0.8192E+00  0.8354E+00  0.3831E+01  0.3818E+01
      9.130  0.9128E+00  0.9741E+00  0.3917E+01  0.3910E+01
      9.225 -0.1780E-01  0.5780E-01  0.3915E+01  0.3916E+01
      9.319  0.5221E+00  0.3867E+00  0.3964E+01  0.3952E+01
      9.414  0.8606E-01  0.2153E+00  0.3972E+01  0.3973E+01
      9.508 -0.1236E-02 -0.3906E-02  0.3972E+01  0.3972E+01
      9.602 -0.1361E-04 -0.2444E-05  0.3972E+01  0.3972E+01
      9.697 -0.1043E-01 -0.7854E-02  0.3971E+01  0.3971E+01
      9.791  0.2693E+00  0.2293E+00  0.3997E+01  0.3993E+01
      9.885  0.5672E+00  0.4560E+00  0.4050E+01  0.4036E+01
      9.980  0.2502E+00  0.4069E+00  0.4074E+01  0.4075E+01
     10.074  0.2945E+00  0.2020E+00  0.4102E+01  0.4094E+01
     10.168  0.1994E+00  0.2900E+00  0.4120E+01  0.4121E+01
     10.263  0.3517E+00  0.1080E+00  0.4154E+01  0.4131E+01
     10.357  0.1443E+01  0.1661E+01  0.4290E+01  0.4288E+01
     10.451  0.1975E+00  0.1079E+00  0.4308E+01  0.4298E+01
     10.546  0.6800E+00  0.7806E+00  0.4373E+01  0.4372E+01
     10.640 -0.3036E-01 -0.1797E-01  0.4370E+01  0.4370E+01
     10.735  0.2572E+00  0.1533E+00  0.4394E+01  0.4384E+01
     10.829  0.6196E+00  0.6749E+00  0.4452E+01  0.4448E+01
     10.923  0.1939E+00  0.1741E+00  0.4471E+01  0.4465E+01
     11.018  0.1168E+00  0.1836E+00  0.4482E+01  0.4482E+01
     11.112 -0.2221E-02 -0.4779E-02  0.4481E+01  0.4481E+01
     11.206 -0.8064E-07 -0.4884E-06  0.4481E+01  0.4481E+01
     11.301 -0.8058E-03 -0.2491E-03  0.4481E+01  0.4481E+01
     11.395  0.5184E-01  0.1292E-01  0.4486E+01  0.4483E+01
     11.489  0.4289E+00  0.3644E+00  0.4527E+01  0.4517E+01
     11.584  0.3991E+00  0.4949E+00  0.4564E+01  0.4564E+01
     11.678  0.1148E+01  0.9742E+00  0.4673E+01  0.4656E+01
     11.772  0.8890E+00  0.8771E+00  0.4757E+01  0.4738E+01
     11.867  0.9036E+00  0.8587E+00  0.4842E+01  0.4819E+01
     11.961  0.7660E+00  0.9485E+00  0.4914E+01  0.4909E+01
     12.056  0.1099E+00  0.1763E+00  0.4925E+01  0.4926E+01
     12.150  0.5880E+00  0.4057E+00  0.4980E+01  0.4964E+01
     12.244  0.2126E+00  0.3904E+00  0.5000E+01  0.5001E+01
     12.339  0.1339E+00  0.6474E-01  0.5013E+01  0.5007E+01
     12.433  0.3981E+00  0.4099E+00  0.5050E+01  0.5046E+01
     12.527  0.3007E+00  0.2886E+00  0.5079E+01  0.5073E+01
     12.622  0.4425E+00  0.4435E+00  0.5120E+01  0.5115E+01
     12.716  0.3250E+00  0.3083E+00  0.5151E+01  0.5144E+01
     12.810  0.1043E+01  0.8629E+00  0.5249E+01  0.5225E+01
     12.905  0.1159E+01  0.1302E+01  0.5359E+01  0.5348E+01
     12.999  0.3276E+00  0.4499E+00  0.5390E+01  0.5390E+01
     13.094  0.6236E-02 -0.2106E-01  0.5390E+01  0.5388E+01
     13.188  0.2900E+00  0.3051E+00  0.5418E+01  0.5417E+01
     13.282 -0.1042E-01 -0.5628E-02  0.5417E+01  0.5417E+01
     13.377 -0.1279E-02 -0.4553E-03  0.5417E+01  0.5417E+01
     13.471  0.8793E-01  0.1728E-01  0.5425E+01  0.5418E+01
     13.565  0.5204E+00  0.5922E+00  0.5474E+01  0.5474E+01
     13.660 -0.2566E-01 -0.3062E-01  0.5472E+01  0.5471E+01
     13.754  0.2980E+00  0.2795E+00  0.5500E+01  0.5498E+01
     13.848  0.2203E+00  0.1413E+00  0.5520E+01  0.5511E+01
     13.943  0.7202E+00  0.7629E+00  0.5588E+01  0.5583E+01
     14.037  0.7759E+00  0.7653E+00  0.5662E+01  0.5655E+01
     14.131  0.2531E+00  0.2512E+00  0.5685E+01  0.5679E+01
     14.226  0.9625E-01  0.1693E+00  0.5695E+01  0.5695E+01
     14.320  0.2722E-01 -0.1866E-01  0.5697E+01  0.5693E+01
     14.415  0.6993E+00  0.6550E+00  0.5763E+01  0.5755E+01
     14.509  0.1601E+00  0.2519E+00  0.5778E+01  0.5779E+01
     14.603 -0.8107E-02 -0.1032E-01  0.5777E+01  0.5778E+01
     14.698  0.1966E+00  0.5373E-01  0.5796E+01  0.5783E+01
     14.792  0.1016E+01  0.1143E+01  0.5892E+01  0.5891E+01
     14.886 -0.3177E-01 -0.1759E-01  0.5889E+01  0.5889E+01
     14.981 -0.5487E-04 -0.2566E-03  0.5889E+01  0.5889E+01
     15.075 -0.9412E-08 -0.1321E-08  0.5889E+01  0.5889E+01
     15.169 -0.1219E-02 -0.3495E-03  0.5889E+01  0.5889E+01
     15.264  0.8498E-01  0.1317E-01  0.5897E+01  0.5890E+01
     15.358  0.5235E+00  0.5959E+00  0.5946E+01  0.5946E+01
     15.452 -0.1850E-01 -0.1991E-01  0.5944E+01  0.5944E+01
     15.547 -0.9531E-05 -0.4992E-04  0.5944E+01  0.5944E+01
     15.641 -0.1777E-11 -0.2797E-10  0.5944E+01  0.5944E+01
     15.736 -0.7615E-19 -0.1389E-20  0.5944E+01  0.5944E+01
     15.830 -0.1144E-09 -0.6569E-11  0.5944E+01  0.5944E+01
     15.924 -0.1129E-03 -0.2109E-04  0.5944E+01  0.5944E+01
     16.019 -0.1365E-01 -0.2065E-01  0.5943E+01  0.5942E+01
     16.113  0.6070E+00  0.5441E+00  0.6000E+01  0.5994E+01
     16.207  0.6005E+00  0.6369E+00  0.6057E+01  0.6054E+01
     16.302 -0.3566E-01  0.6352E-02  0.6054E+01  0.6055E+01
     16.396  0.5406E+00  0.4037E+00  0.6105E+01  0.6093E+01
     16.490  0.6854E-01  0.1994E+00  0.6111E+01  0.6111E+01
     16.585 -0.5333E-02 -0.1392E-01  0.6111E+01  0.6110E+01
     16.679  0.2792E+00  0.2713E+00  0.6137E+01  0.6136E+01
     16.773  0.7510E+00  0.5928E+00  0.6208E+01  0.6192E+01
     16.868  0.4514E+00  0.6038E+00  0.6250E+01  0.6249E+01
     16.962 -0.5856E-02  0.1467E-01  0.6250E+01  0.6250E+01
     17.057  0.4693E-01  0.8174E-02  0.6254E+01  0.6251E+01
     17.151  0.2570E+00  0.2962E+00  0.6279E+01  0.6279E+01
     17.245 -0.1498E-01 -0.1249E-01  0.6277E+01  0.6278E+01
     17.340  0.2072E+00  0.1205E+00  0.6297E+01  0.6289E+01
     17.434  0.1384E+00  0.2046E+00  0.6310E+01  0.6308E+01
     17.528  0.6000E+00  0.5149E+00  0.6366E+01  0.6357E+01
     17.623  0.3209E-01  0.1416E+00  0.6369E+01  0.6370E+01
     17.717  0.3824E+00  0.2267E+00  0.6406E+01  0.6392E+01
     17.811  0.1993E+00  0.3590E+00  0.6424E+01  0.6425E+01
     17.906  0.5610E+00  0.4553E+00  0.6477E+01  0.6468E+01
     18.000  0.3587E-01  0.1372E+00  0.6481E+01  0.6481E+01
     18.094  0.3597E+00  0.1966E+00  0.6515E+01  0.6500E+01
     18.189  0.3279E+00  0.4297E+00  0.6546E+01  0.6540E+01
     18.283  0.2104E+00  0.2683E+00  0.6565E+01  0.6566E+01
     18.378 -0.1673E-01 -0.1858E-01  0.6564E+01  0.6564E+01
     18.472  0.2918E+00  0.2476E+00  0.6591E+01  0.6587E+01
     18.566  0.6871E-01  0.6631E-01  0.6598E+01  0.6594E+01
     18.661  0.2467E+00  0.2935E+00  0.6621E+01  0.6621E+01
     18.755 -0.4304E-02 -0.3023E-01  0.6621E+01  0.6618E+01
     18.849  0.6237E+00  0.5895E+00  0.6680E+01  0.6674E+01
     18.944  0.2728E+00  0.3083E+00  0.6705E+01  0.6703E+01
     19.038  0.2870E+00  0.2950E+00  0.6732E+01  0.6731E+01
     19.132  0.1655E-01  0.1062E-01  0.6734E+01  0.6732E+01
     19.227  0.5623E-01  0.8737E-01  0.6739E+01  0.6740E+01
     19.321  0.6132E+00  0.3843E+00  0.6797E+01  0.6777E+01
     19.415  0.2921E+00  0.4965E+00  0.6825E+01  0.6823E+01
     19.510  0.5935E+00  0.5750E+00  0.6881E+01  0.6878E+01
     19.604  0.2274E+00  0.1579E+00  0.6902E+01  0.6893E+01
     19.699  0.2153E+00  0.2970E+00  0.6922E+01  0.6921E+01
     19.793  0.5394E-01  0.5175E-01  0.6928E+01  0.6925E+01
     19.887  0.2878E+00  0.3030E+00  0.6955E+01  0.6954E+01
     19.982 -0.2490E-01 -0.1030E-01  0.6952E+01  0.6953E+01
     20.076  0.2928E+00  0.2394E+00  0.6980E+01  0.6976E+01
     20.170  0.6354E+01  0.3597E+01  0.7580E+01  0.7315E+01
     20.265  0.4467E+01  0.7216E+01  0.8001E+01  0.7996E+01
     20.359  0.9027E-01  0.1498E+00  0.8010E+01  0.8010E+01
     20.453 -0.2223E-01 -0.1875E-01  0.8007E+01  0.8008E+01
     20.548  0.5712E+00  0.3727E+00  0.8061E+01  0.8044E+01
     20.642  0.3409E+00  0.5332E+00  0.8093E+01  0.8094E+01
     20.736  0.4509E-01 -0.1992E-01  0.8098E+01  0.8092E+01
     20.831  0.7105E+00  0.6639E+00  0.8165E+01  0.8155E+01
     20.925  0.3987E+00  0.5151E+00  0.8202E+01  0.8203E+01
     21.020  0.8919E+00  0.7175E+00  0.8287E+01  0.8271E+01
     21.114  0.5993E+00  0.7559E+00  0.8343E+01  0.8342E+01
     21.208  0.5287E+00  0.3521E+00  0.8393E+01  0.8375E+01
     21.303  0.6386E+00  0.7888E+00  0.8453E+01  0.8450E+01
     21.397  0.4990E-02  0.4158E-01  0.8454E+01  0.8454E+01
     21.491 -0.2418E-03 -0.8801E-03  0.8454E+01  0.8454E+01
     21.586 -0.6692E-04 -0.1425E-04  0.8454E+01  0.8454E+01
     21.680 -0.6002E-02 -0.1054E-01  0.8453E+01  0.8453E+01
     21.774  0.3398E+00  0.2884E+00  0.8485E+01  0.8480E+01
     21.869  0.2612E+00  0.3186E+00  0.8510E+01  0.8510E+01
     21.963  0.1182E+00  0.3544E-01  0.8521E+01  0.8513E+01
     22.057  0.1155E+01  0.1045E+01  0.8630E+01  0.8612E+01
     22.152  0.1979E+00  0.3957E+00  0.8649E+01  0.8649E+01
     22.246 -0.5280E-02 -0.1144E-01  0.8648E+01  0.8648E+01
     22.341 -0.6603E-03 -0.1769E-03  0.8648E+01  0.8648E+01
     22.435  0.3866E-01 -0.6514E-02  0.8652E+01  0.8648E+01
     22.529  0.5625E+00  0.5998E+00  0.8705E+01  0.8704E+01
     22.624  0.2910E+00  0.1394E+00  0.8732E+01  0.8717E+01
     22.718  0.2923E+00  0.4595E+00  0.8760E+01  0.8761E+01
     22.812 -0.1635E-01 -0.3259E-01  0.8758E+01  0.8758E+01
     22.907  0.6449E+00  0.5598E+00  0.8819E+01  0.8810E+01
     23.001  0.5315E-01  0.1481E+00  0.8824E+01  0.8824E+01
     23.095 -0.1253E-02 -0.2917E-02  0.8824E+01  0.8824E+01
     23.190  0.9190E-03 -0.2049E-01  0.8824E+01  0.8822E+01
     23.284  0.6157E+00  0.5911E+00  0.8882E+01  0.8878E+01
     23.378  0.7392E-01  0.1198E+00  0.8889E+01  0.8889E+01
     23.473 -0.3445E-02 -0.3407E-02  0.8889E+01  0.8889E+01
     23.567 -0.8391E-02 -0.1035E-01  0.8888E+01  0.8888E+01
     23.662  0.3774E+00  0.2981E+00  0.8924E+01  0.8916E+01
     23.756  0.2271E+00  0.3118E+00  0.8945E+01  0.8945E+01
     23.850 -0.8974E-02 -0.1121E-01  0.8944E+01  0.8944E+01
     23.945  0.1117E+00  0.2699E-01  0.8955E+01  0.8947E+01
     24.039  0.4955E+00  0.5831E+00  0.9002E+01  0.9002E+01
     24.133 -0.1672E-01 -0.2079E-01  0.9000E+01  0.9000E+01
     24.228 -0.5989E-05 -0.3332E-04  0.9000E+01  0.9000E+01
     24.322 -0.8366E-12 -0.1411E-10  0.9000E+01  0.9000E+01
     24.416  0.0000E+00  0.0000E+00  0.9000E+01  0.9000E+01
     24.511  0.0000E+00  0.0000E+00  0.9000E+01  0.9000E+01
     24.605  0.0000E+00  0.0000E+00  0.9000E+01  0.9000E+01
     24.699  0.0000E+00  0.0000E+00  0.9000E+01  0.9000E+01
     24.794  0.0000E+00  0.0000E+00  0.9000E+01  0.9000E+01
     24.888  0.0000E+00  0.0000E+00  0.9000E+01  0.9000E+01
     24.983  0.0000E+00  0.0000E+00  0.9000E+01  0.9000E+01
     25.077  0.0000E+00  0.0000E+00  0.9000E+01  0.9000E+01
     25.171  0.0000E+00  0.0000E+00  0.9000E+01  0.9000E+01
     25.266  0.0000E+00  0.0000E+00  0.9000E+01  0.9000E+01
     25.26562654     -3.04164102  301      6.28249295      1.00000000
     -3.042  0.0000E+00  0.0000E+00  0.0000E+00  0.0000E+00  0.0000E+00  0.0000E+00  0.0000E+00  0.0000E+00  0.0000E+00  0.0000E+00  0.0000E+00  0.0000E+00  0.0000E+00  0.0000E+00  0.0000E+00  0.0000E+00  0.0000E+00  0.0000E+00
     -2.947  0.0000E+00  0.0000E+00  0.0000E+00  0.0000E+00  0.0000E+00  0.0000E+00  0.0000E+00  0.0000E+00  0.0000E+00  0.0000E+00  0.0000E+00  0.0000E+00  0.0000E+00  0.0000E+00  0.0000E+00  0.0000E+00  0.0000E+00  0.0000E+00
     -2.853  0.0000E+00  0.0000E+00  0.0000E+00  0.0000E+00  0.0000E+00  0.0000E+00  0.0000E+00  0.0000E+00  0.0000E+00  0.0000E+00  0.0000E+00  0.0000E+00  0.0000E+00  0.0000E+00  0.0000E+00  0.0000E+00  0.0000E+00  0.0000E+00
     -2.759  0.0000E+00  0.0000E+00  0.0000E+00  0.0000E+00  0.0000E+00  0.0000E+00  0.0000E+00  0.0000E+00  0.0000E+00  0.0000E+00  0.0000E+00  0.0000E+00  0.0000E+00  0.0000E+00  0.0000E+00  0.0000E+00  0.0000E+00  0.0000E+00
     -2.664  0.0000E+00  0.0000E+00  0.0000E+00  0.0000E+00  0.0000E+00  0.0000E+00  0.0000E+00  0.0000E+00  0.0000E+00  0.0000E+00  0.0000E+00  0.0000E+00  0.0000E+00  0.0000E+00  0.0000E+00  0.0000E+00  0.0000E+00  0.0000E+00
     -2.570  0.0000E+00  0.0000E+00  0.0000E+00  0.0000E+00  0.0000E+00  0.0000E+00  0.0000E+00  0.0000E+00  0.0000E+00  0.0000E+00  0.0000E+00  0.0000E+00  0.0000E+00  0.0000E+00  0.0000E+00  0.0000E+00  0.0000E+00  0.0000E+00
     -2.475  0.0000E+00  0.0000E+00  0.0000E+00  0.0000E+00  0.0000E+00  0.0000E+00  0.0000E+00  0.0000E+00  0.0000E+00  0.0000E+00  0.0000E+00  0.0000E+00  0.0000E+00  0.0000E+00  0.0000E+00  0.0000E+00  0.0000E+00  0.0000E+00
     -2.381  0.0000E+00  0.0000E+00  0.0000E+00  0.0000E+00  0.0000E+00  0.0000E+00  0.0000E+00  0.0000E+00  0.0000E+00  0.0000E+00  0.0000E+00  0.0000E+00  0.0000E+00  0.0000E+00  0.0000E+00  0.0000E+00  0.0000E+00  0.0000E+00
     -2.287  0.0000E+00  0.0000E+00  0.0000E+00  0.0000E+00  0.0000E+00  0.0000E+00  0.0000E+00  0.0000E+00  0.0000E+00  0.0000E+00  0.0000E+00  0.0000E+00  0.0000E+00  0.0000E+00  0.0000E+00  0.0000E+00  0.0000E+00  0.0000E+00
     -2.192 -0.1203E-33 -0.2565E-36 -0.1049E-35 -0.2239E-38 -0.1049E-35 -0.2239E-38 -0.1049E-35 -0.2239E-38 -0.4272E-37 -0.9115E-40 -0.4272E-37 -0.9115E-40 -0.1690E-44 -0.4662E-51 -0.4272E-37 -0.9115E-40 -0.3526E-45 -0.2053E-50
     -2.098 -0.5887E-21 -0.4696E-23 -0.5135E-23 -0.4099E-25 -0.5135E-23 -0.4099E-25 -0.5135E-23 -0.4099E-25 -0.2091E-24 -0.1669E-26 -0.2091E-24 -0.1669E-26 -0.8271E-32 -0.8534E-38 -0.2091E-24 -0.1669E-26 -0.1726E-32 -0.3759E-37
     -2.004 -0.2063E-11 -0.6235E-13 -0.1800E-13 -0.5442E-15 -0.1799E-13 -0.5442E-15 -0.1800E-13 -0.5442E-15 -0.7327E-15 -0.2215E-16 -0.7327E-15 -0.2215E-16 -0.2899E-22 -0.1133E-27 -0.7327E-15 -0.2215E-16 -0.6047E-23 -0.4990E-27
     -1.909 -0.4871E-05 -0.5754E-06 -0.4249E-07 -0.5022E-08 -0.4249E-07 -0.5022E-08 -0.4249E-07 -0.5022E-08 -0.1730E-08 -0.2045E-09 -0.1730E-08 -0.2045E-09 -0.6844E-16 -0.1046E-20 -0.1730E-08 -0.2045E-09 -0.1428E-16 -0.4606E-20
     -1.815 -0.3039E-02 -0.2191E-02 -0.2651E-04 -0.1912E-04 -0.2651E-04 -0.1912E-04 -0.2651E-04 -0.1912E-04 -0.1079E-05 -0.7785E-06 -0.1079E-05 -0.7785E-06 -0.4270E-13 -0.3982E-17 -0.1079E-05 -0.7785E-06 -0.8909E-14 -0.1754E-16
     -1.721  0.8524E-01  0.6838E-01  0.7436E-03  0.5968E-03  0.7435E-03  0.5968E-03  0.7435E-03  0.5968E-03  0.3027E-04  0.2430E-04  0.3027E-04  0.2430E-04  0.1198E-11  0.1243E-15  0.3027E-04  0.2430E-04  0.2499E-12  0.5474E-15
     -1.626  0.3947E-02  0.2011E-01  0.3443E-04  0.1755E-03  0.3442E-04  0.1755E-03  0.3442E-04  0.1755E-03  0.1402E-05  0.7145E-05  0.1402E-05  0.7145E-05  0.5545E-13  0.3654E-16  0.1402E-05  0.7145E-05  0.1157E-13  0.1610E-15
     -1.532 -0.7136E-04 -0.3091E-03 -0.6225E-06 -0.2698E-05 -0.6224E-06 -0.2698E-05 -0.6224E-06 -0.2698E-05 -0.2534E-07 -0.1098E-06 -0.2534E-07 -0.1098E-06 -0.1003E-14 -0.5618E-18 -0.2534E-07 -0.1098E-06 -0.2092E-15 -0.2474E-17
     -1.438 -0.2354E-09 -0.4205E-08 -0.2054E-11 -0.3670E-10 -0.2054E-11 -0.3670E-10 -0.2054E-11 -0.3670E-10 -0.8362E-13 -0.1494E-11 -0.8362E-13 -0.1494E-11 -0.3308E-20 -0.7642E-23 -0.8361E-13 -0.1494E-11 -0.6901E-21 -0.3366E-22
     -1.343 -0.9364E-19 -0.3819E-16 -0.7596E-21 -0.3333E-18 -0.7599E-21 -0.3333E-18 -0.7449E-20 -0.3334E-18 -0.2965E-21 -0.1357E-19 -0.5785E-22 -0.1357E-19 -0.1006E-21 -0.1023E-23 -0.2965E-21 -0.1357E-19 -0.3016E-21 -0.3069E-23
     -1.249 -0.1019E-09 -0.3905E-11 -0.8268E-12 -0.3170E-13 -0.8271E-12 -0.3170E-13 -0.8109E-11 -0.3109E-12 -0.3228E-12 -0.1238E-13 -0.6297E-13 -0.2414E-14 -0.1095E-12 -0.4196E-14 -0.3228E-12 -0.1238E-13 -0.3283E-12 -0.1259E-13
     -1.154 -0.7207E-04 -0.1084E-04 -0.5846E-06 -0.8799E-07 -0.5849E-06 -0.8799E-07 -0.5734E-05 -0.8629E-06 -0.2282E-06 -0.3435E-07 -0.4453E-07 -0.6701E-08 -0.7740E-07 -0.1165E-07 -0.2283E-06 -0.3435E-07 -0.2322E-06 -0.3494E-07
     -1.060 -0.2585E-02 -0.8598E-02 -0.2097E-04 -0.6981E-04 -0.2098E-04 -0.6981E-04 -0.2057E-03 -0.6846E-03 -0.8186E-05 -0.2725E-04 -0.1597E-05 -0.5316E-05 -0.2776E-05 -0.9240E-05 -0.8187E-05 -0.2725E-04 -0.8327E-05 -0.2772E-04
     -0.966  0.2518E+00  0.2369E+00  0.2043E-02  0.1924E-02  0.2044E-02  0.1924E-02  0.2003E-01  0.1887E-01  0.7975E-03  0.7511E-03  0.1556E-03  0.1465E-03  0.2704E-03  0.2546E-03  0.7975E-03  0.7511E-03  0.8112E-03  0.7639E-03
     -0.871 -0.5806E-02  0.1500E-01 -0.4710E-04  0.1218E-03 -0.4712E-04  0.1218E-03 -0.4619E-03  0.1194E-02 -0.1839E-04  0.4754E-04 -0.3587E-05  0.9273E-05 -0.6236E-05  0.1612E-04 -0.1839E-04  0.4754E-04 -0.1870E-04  0.4835E-04
     -0.777 -0.4445E-04 -0.2432E-03 -0.3606E-06 -0.1975E-05 -0.3607E-06 -0.1975E-05 -0.3536E-05 -0.1936E-04 -0.1408E-06 -0.7709E-06 -0.2746E-07 -0.1504E-06 -0.4774E-07 -0.2614E-06 -0.1408E-06 -0.7709E-06 -0.1432E-06 -0.7841E-06
     -0.683 -0.4345E-10 -0.9468E-09 -0.3525E-12 -0.7688E-11 -0.3526E-12 -0.7688E-11 -0.3457E-11 -0.7539E-10 -0.1376E-12 -0.3001E-11 -0.2684E-13 -0.5854E-12 -0.4666E-13 -0.1018E-11 -0.1376E-12 -0.3001E-11 -0.1400E-12 -0.3053E-11
     -0.588 -0.1830E-09 -0.7512E-11 -0.1359E-10 -0.5581E-12 -0.1359E-10 -0.5581E-12 -0.1196E-11 -0.4913E-13 -0.1010E-11 -0.4148E-13 -0.5220E-11 -0.2145E-12 -0.1323E-12 -0.5432E-14 -0.1010E-11 -0.4148E-13 -0.3968E-12 -0.1630E-13
     -0.494 -0.9714E-04 -0.1559E-04 -0.7210E-05 -0.1158E-05 -0.7210E-05 -0.1158E-05 -0.6349E-06 -0.1020E-06 -0.5359E-06 -0.8609E-07 -0.2770E-05 -0.4451E-06 -0.7020E-07 -0.1127E-07 -0.5359E-06 -0.8609E-07 -0.2106E-06 -0.3382E-07
     -0.400  0.9437E-03 -0.7958E-02  0.7005E-04 -0.5913E-03  0.7005E-04 -0.5913E-03  0.6168E-05 -0.5205E-04  0.5206E-05 -0.4395E-04  0.2692E-04 -0.2272E-03  0.6820E-06 -0.5755E-05  0.5206E-05 -0.4395E-04  0.2046E-05 -0.1727E-04
     -0.305  0.2346E+00  0.2286E+00  0.1742E-01  0.1698E-01  0.1742E-01  0.1698E-01  0.1534E-02  0.1495E-02  0.1294E-02  0.1262E-02  0.6692E-02  0.6526E-02  0.1696E-03  0.1653E-03  0.1294E-02  0.1262E-02  0.5087E-03  0.4959E-03
     -0.211 -0.6918E-02  0.7857E-02 -0.5135E-03  0.5838E-03 -0.5135E-03  0.5838E-03 -0.4522E-04  0.5139E-04 -0.3817E-04  0.4339E-04 -0.1973E-03  0.2243E-03 -0.5000E-05  0.5682E-05 -0.3817E-04  0.4339E-04 -0.1500E-04  0.1704E-04
     -0.117 -0.2834E-04 -0.1625E-03 -0.2104E-05 -0.1207E-04 -0.2104E-05 -0.1207E-04 -0.1852E-06 -0.1063E-05 -0.1564E-06 -0.8973E-06 -0.8083E-06 -0.4639E-05 -0.2048E-07 -0.1175E-06 -0.1564E-06 -0.8973E-06 -0.6145E-07 -0.3525E-06
     -0.022 -0.2225E-05 -0.2537E-06 -0.1321E-06 -0.1509E-07 -0.1321E-06 -0.1509E-07 -0.1321E-06 -0.1505E-07 -0.1071E-06 -0.1221E-07 -0.1071E-06 -0.1222E-07 -0.1506E-13 -0.3398E-12 -0.1071E-06 -0.1221E-07 -0.4517E-13 -0.1019E-11
      0.072 -0.2436E-02 -0.1488E-02 -0.1446E-03 -0.8841E-04 -0.1446E-03 -0.8841E-04 -0.1446E-03 -0.8841E-04 -0.1173E-03 -0.7168E-04 -0.1173E-03 -0.7168E-04 -0.4317E-09 -0.2451E-10 -0.1173E-03 -0.7168E-04 -0.1146E-16 -0.7780E-21
      0.167  0.6608E-01  0.5061E-01  0.3957E-02  0.3015E-02  0.3819E-02  0.2984E-02  0.3957E-02  0.3015E-02  0.3211E-02  0.2446E-02  0.3207E-02  0.2445E-02 -0.3787E-04 -0.8642E-05  0.3207E-02  0.2445E-02 -0.3500E-14  0.2650E-19
      0.261  0.4885E-01  0.2817E-01  0.6808E-03  0.1318E-02  0.9908E-02  0.2800E-02  0.6808E-03  0.1318E-02  0.3712E-03  0.1040E-02  0.6381E-03  0.1083E-02  0.2539E-02  0.4076E-03  0.6380E-03  0.1083E-02  0.2556E-12  0.1332E-19
      0.355  0.1727E+00  0.2092E+00  0.1280E-02  0.1539E-02  0.3859E-01  0.4683E-01  0.1280E-02  0.1539E-02  0.3065E-03  0.3602E-03  0.1386E-02  0.1670E-02  0.1027E-01  0.1246E-01  0.1386E-02  0.1670E-02  0.1034E-11  0.6609E-19
      0.450 -0.5736E-02 -0.7263E-02 -0.4267E-04 -0.5407E-04 -0.1281E-02 -0.1624E-02 -0.4267E-04 -0.5407E-04 -0.1032E-04 -0.1308E-04 -0.4615E-04 -0.5850E-04 -0.3408E-03 -0.4319E-03 -0.4615E-04 -0.5850E-04 -0.3431E-13 -0.2297E-20
      0.544 -0.1847E-05 -0.1467E-04 -0.1374E-07 -0.1092E-06 -0.4125E-06 -0.3281E-05 -0.1374E-07 -0.1092E-06 -0.3323E-08 -0.2642E-07 -0.1486E-07 -0.1182E-06 -0.1097E-06 -0.8723E-06 -0.1486E-07 -0.1182E-06 -0.4764E-14 -0.1201E-15
      0.638 -0.2277E-05 -0.2160E-06 -0.1531E-06 -0.1453E-07 -0.8655E-08 -0.8227E-09 -0.4832E-06 -0.4587E-07 -0.1759E-06 -0.1670E-07 -0.3629E-07 -0.3445E-08 -0.3175E-07 -0.3014E-08 -0.3390E-07 -0.3218E-08 -0.4772E-07 -0.4529E-08
      0.733 -0.9597E-02 -0.4155E-02 -0.6452E-03 -0.2796E-03 -0.3647E-04 -0.1580E-04 -0.2036E-02 -0.8826E-03 -0.7413E-03 -0.3213E-03 -0.1529E-03 -0.6628E-04 -0.1338E-03 -0.5798E-04 -0.1429E-03 -0.6192E-04 -0.2011E-03 -0.8714E-04
      0.827  0.3054E+00  0.1927E+00  0.2053E-01  0.1297E-01  0.1160E-02  0.7329E-03  0.6479E-01  0.4094E-01  0.2359E-01  0.1490E-01  0.4865E-02  0.3075E-02  0.4257E-02  0.2689E-02  0.4546E-02  0.2873E-02  0.6398E-02  0.4042E-02
      0.921  0.9668E-01  0.2074E+00  0.6535E-02  0.1396E-01  0.3355E-03  0.7800E-03  0.2056E-01  0.4407E-01  0.7414E-02  0.1602E-01  0.1427E-02  0.3278E-02  0.1358E-02  0.2896E-02  0.1321E-02  0.3059E-02  0.2034E-02  0.4351E-02
      1.016  0.5823E-01  0.1476E-01  0.1942E-02  0.3498E-03  0.2039E-02  0.6491E-03  0.9628E-02  0.2246E-02  0.7539E-02  0.2134E-02  0.7424E-02  0.2355E-02  0.2318E-03  0.1676E-04  0.7635E-02  0.2428E-02  0.7273E-03  0.1488E-03
      1.110  0.1206E+00  0.1624E+00  0.4125E-02  0.5562E-02  0.4125E-02  0.5562E-02  0.2008E-01  0.2708E-01  0.1545E-01  0.2083E-01  0.1503E-01  0.2027E-01  0.5106E-03  0.6884E-03  0.1545E-01  0.2083E-01  0.1532E-02  0.2065E-02
      1.204 -0.3368E-02 -0.5879E-02 -0.1152E-03 -0.2014E-03 -0.1152E-03 -0.2014E-03 -0.5609E-03 -0.9803E-03 -0.4315E-03 -0.7543E-03 -0.4198E-03 -0.7337E-03 -0.1426E-04 -0.2492E-04 -0.4315E-03 -0.7543E-03 -0.4279E-04 -0.7477E-04
      1.299 -0.4299E-03 -0.1400E-03 -0.8585E-05 -0.2842E-05 -0.8585E-05 -0.2842E-05 -0.8578E-05 -0.3385E-05 -0.2018E-03 -0.6445E-04 -0.2018E-03 -0.6444E-04 -0.2732E-08 -0.1765E-07 -0.2018E-03 -0.6445E-04 -0.8195E-08 -0.5294E-07
      1.393  0.1662E-01  0.7515E-02  0.7089E-04  0.3785E-04  0.7073E-04  0.3783E-04  0.3869E-03  0.1738E-03  0.8498E-02  0.3832E-02  0.8285E-02  0.3741E-02 -0.3699E-05 -0.1518E-05  0.8498E-02  0.3832E-02 -0.1045E-04 -0.4496E-05
      1.488  0.1288E+00  0.1008E+00  0.1096E-01  0.7265E-02  0.9871E-02  0.6842E-02  0.7228E-03  0.8453E-03  0.3964E-01  0.3403E-01  0.4653E-01  0.3835E-01 -0.1340E-02 -0.4937E-03  0.3963E-01  0.3403E-01  0.3386E-03  0.2123E-03
      1.582  0.1366E+00  0.1341E+00  0.4519E-02  0.7994E-02  0.4286E-01  0.3015E-01  0.9897E-03  0.7170E-03  0.1073E-01  0.2086E-01  0.1326E-01  0.2585E-01  0.5124E-01  0.2966E-01  0.1089E-01  0.2095E-01  0.1166E-03  0.2406E-03
      1.676  0.3840E-01  0.7853E-01 -0.7654E-03 -0.1876E-03  0.1725E-01  0.3392E-01  0.3142E-03  0.5661E-03 -0.9699E-03 -0.2051E-02 -0.2276E-02 -0.3244E-02  0.2305E-01  0.4528E-01 -0.8857E-03 -0.1903E-02 -0.6915E-04 -0.6059E-04