    1    1    1    2
  0.1761125E+02  0.2920351E-09  0.2920351E-09  0.2920351E-09  0.5000000E-15
  1.000000000000000E-004
  CAR 
 unknown system                          
    5   28    9
 
  0.8333333E-01  0.8333333E-01  0.8333333E-01  0.9259259E-02
   1       -1.754947     -1.737609
   2        6.533986      6.550262
   3        6.926625      6.942900
   4        6.926625      6.942900
   5        9.906029      9.919553
   6        9.906029      9.919553
   7       19.603904     19.618582
   8       20.155979     20.173693
   9       22.851019     22.870248
 
  0.2500000E+00  0.8333333E-01  0.8333333E-01  0.2777778E-01
   1       -0.358353     -0.341217
   2        5.615274      5.631378
   3        7.215520      7.231513
   4        7.480326      7.496325
   5        9.045793      9.060100
   6       10.441696     10.455449
   7       20.152654     20.170247
   8       20.571379     20.589411
   9       22.460449     22.475067
 
  0.4166667E+00  0.8333333E-01  0.8333333E-01  0.2777778E-01
   1        1.472588      1.489344
   2        5.838105      5.854318
   3        6.540430      6.556201
   4        7.006921      7.022474
   5       10.759487     10.773764
   6       12.411669     12.425025
   7       18.201605     18.218276
   8       20.159618     20.177307
   9       21.268171     21.283171
 
 -0.4166667E+00  0.8333333E-01  0.8333333E-01  0.2777778E-01
   1        1.722609      1.739179
   2        6.003614      6.019707
   3        6.780714      6.796288
   4        7.051352      7.067398
   5       12.633357     12.646387
   6       12.817755     12.831307
   7       17.079117     17.093308
   8       19.298010     19.314881
   9       20.166412     20.184257
 
 -0.2500000E+00  0.8333333E-01  0.8333333E-01  0.2777778E-01
   1        1.025776      1.042683
   2        5.388481      5.404591
   3        6.745776      6.761476
   4        7.303766      7.319422
   5       10.316907     10.331531
   6       11.415536     11.429158
   7       18.880538     18.897987
   8       20.161694     20.179455
   9       22.888280     22.902071
 
 -0.8333333E-01  0.8333333E-01  0.8333333E-01  0.2777778E-01
   1       -1.015269     -0.998039
   2        5.865298      5.881490
   3        7.294112      7.310242
   4        7.323970      7.340095
   5        9.032855      9.047067
   6       10.263612     10.277015
   7       20.156091     20.173784
   8       20.990923     21.006060
   9       22.064099     22.081895
 
  0.2500000E+00  0.2500000E+00  0.8333333E-01  0.2777778E-01
   1        0.279985      0.297061
   2        4.877827      4.893960
   3        7.245760      7.261190
   4        8.133187      8.149064
   5        8.731655      8.747101
   6       10.916744     10.929905
   7       20.157936     20.175613
   8       21.961983     21.979460
   9       23.677558     23.691725
 
  0.4166667E+00  0.2500000E+00  0.8333333E-01  0.5555556E-01
   1        2.075391      2.092251
   2        4.327036      4.343036
   3        5.922369      5.938161
   4        8.777342      8.792459
   5       10.283471     10.298491
   6       12.732986     12.746122
   7       20.060008     20.075811
   8       20.251707     20.269898
   9       23.231537     23.247864
 
 -0.4166667E+00  0.2500000E+00  0.8333333E-01  0.5555556E-01
   1        2.995795      3.012101
   2        4.514294      4.530725
   3        6.110646      6.126220
   4        8.106479      8.121534
   5       12.138944     12.152882
   6       14.735955     14.750417
   7       16.156183     16.170864
   8       20.165586     20.183379
   9       22.021778     22.037795
 
 -0.2500000E+00  0.2500000E+00  0.8333333E-01  0.5555556E-01
   1        2.816421      2.832964
   2        4.932797      4.948855
   3        5.317768      5.333765
   4        8.254976      8.269878
   5       10.282773     10.297768
   6       13.974195     13.987372
   7       18.795559     18.811427
   8       20.170395     20.188309
   9       22.622791     22.639623
 
 -0.8333333E-01  0.2500000E+00  0.8333333E-01  0.5555556E-01
   1        0.811123      0.828102
   2        5.023524      5.039552
   3        6.730394      6.746194
   4        7.961852      7.977426
   5        9.091367      9.106367
   6       11.501557     11.515074
   7       20.148466     20.165907
   8       20.523255     20.540857
   9       23.964836     23.978933
 
  0.4166667E+00  0.4166667E+00  0.8333333E-01  0.2777778E-01
   1        1.956311      1.973353
   2        3.237992      3.254047
   3        7.368329      7.383656
   4       10.718839     10.733398
   5       11.877584     11.892447
   6       12.569411     12.582162
   7       19.595352     19.611547
   8       20.171177     20.189068
   9       20.976314     20.993371
 
 -0.4166667E+00  0.4166667E+00  0.8333333E-01  0.5555556E-01
   1        2.386577      2.403506
   2        3.433067      3.449013
   3        7.369811      7.385022
   4       10.484838     10.498967
   5       12.909920     12.923687
   6       15.287622     15.301578
   7       16.369611     16.385911
   8       19.457204     19.473518
   9       20.168951     20.186784
 
 -0.2500000E+00  0.4166667E+00  0.8333333E-01  0.5555556E-01
   1        3.543365      3.559819
   2        4.181007      4.197166
   3        5.833269      5.848697
   4        8.838703      8.853387
   5       11.762731     11.777178
   6       14.353504     14.369441
   7       17.875219     17.889124
   8       20.161246     20.178891
   9       20.845337     20.859566
 
 -0.8333333E-01  0.4166667E+00  0.8333333E-01  0.5555556E-01
   1        2.158297      2.174827
   2        5.413427      5.429748
   3        6.275139      6.290864
   4        7.345780      7.361191
   5       11.655357     11.669413
   6       13.494399     13.507651
   7       17.497373     17.512490
   8       20.165340     20.183146
   9       20.764639     20.781216
 
 -0.4166667E+00 -0.4166667E+00  0.8333333E-01  0.2777778E-01
   1        1.785593      1.802675
   2        2.871215      2.887255
   3        8.781171      8.796279
   4       11.881435     11.894491
   5       13.127084     13.140281
   6       13.709657     13.723537
   7       17.328059     17.345306
   8       18.981432     18.999151
   9       20.141088     20.154978
 
 -0.2500000E+00 -0.4166667E+00  0.8333333E-01  0.5555556E-01
   1        2.556854      2.573725
   2        3.743405      3.759380
   3        6.251470      6.267075
   4        9.862783      9.877330
   5       11.855359     11.869792
   6       13.886513     13.899916
   7       18.088558     18.104581
   8       20.166777     20.184582
   9       21.211511     21.228073
 
 -0.2500000E+00 -0.2500000E+00  0.8333333E-01  0.2777778E-01
   1        1.571100      1.588115
   2        3.939780      3.955866
   3        6.592308      6.607719
   4        9.295738      9.311109
   5       10.047428     10.062811
   6       11.766680     11.779586
   7       20.157431     20.175049
   8       22.010687     22.027332
   9       23.617035     23.633774
 
  0.2500000E+00  0.2500000E+00  0.2500000E+00  0.9259259E-02
   1        0.137139      0.154206
   2        5.602098      5.618243
   3        7.208658      7.224458
   4        7.208658      7.224458
   5       10.097031     10.111187
   6       10.097031     10.111187
   7       19.146857     19.164898
   8       20.160890     20.178659
   9       23.311664     23.325233
 
  0.4166667E+00  0.2500000E+00  0.2500000E+00  0.2777778E-01
   1        1.737017      1.753815
   2        5.123415      5.139333
   3        6.169099      6.185192
   4        7.821344      7.836435
   5        9.295178      9.310357
   6       12.823948     12.837160
   7       19.825841     19.841946
   8       20.182908     20.201063
   9       22.857894     22.874453
 
 -0.4166667E+00  0.2500000E+00  0.2500000E+00  0.2777778E-01
   1        3.374631      3.390892
   2        4.616091      4.632627
   3        5.632541      5.648087
   4        8.290155      8.304926
   5       10.797521     10.812261
   6       14.120946     14.135659
   7       18.437025     18.451654
   8       20.168149     20.185989
   9       21.727463     21.741435
 
 -0.2500000E+00  0.2500000E+00  0.2500000E+00  0.2777778E-01
   1        2.732138      2.748785
   2        4.188281      4.204414
   3        6.127200      6.142799
   4        8.766309      8.781272
   5       12.842935     12.855954
   6       13.836342     13.851327
   7       16.630800     16.646064
   8       20.165944     20.183729
   9       22.475869     22.489119
 
  0.4166667E+00  0.4166667E+00  0.2500000E+00  0.2777778E-01
   1        2.060474      2.077184
   2        4.881576      4.897719
   3        6.025467      6.041219
   4        7.838901      7.854304
   5       11.698353     11.713032
   6       12.505571     12.518565
   7       18.586318     18.601985
   8       20.166572     20.184421
   9       21.800679     21.816719
 
 -0.4166667E+00  0.4166667E+00  0.2500000E+00  0.5555556E-01
   1        3.530111      3.546656
   2        4.350831      4.366866
   3        5.198225      5.213971
   4        8.968942      8.983605
   5       11.625035     11.639617
   6       14.709188     14.723548
   7       17.709033     17.724090
   8       20.165752     20.183533
   9       21.055005     21.070226
 
 -0.2500000E+00  0.4166667E+00  0.2500000E+00  0.5555556E-01
   1        3.273591      3.290290
   2        4.371614      4.387349
   3        5.755105      5.770574
   4        8.907580      8.922608
   5       12.803587     12.817506
   6       16.067627     16.082528
   7       16.740633     16.755956
   8       19.315698     19.330606
   9       20.172289     20.190213
 
 -0.4166667E+00 -0.4166667E+00  0.2500000E+00  0.2777778E-01
   1        2.769854      2.786618
   2        3.866438      3.882404
   3        6.774830      6.790098
   4        9.758416      9.772705
   5       12.339475     12.353311
   6       14.420399     14.437526
   7       16.823522     16.837004
   8       20.159099     20.176691
   9       21.173269     21.187058
 
  0.4166667E+00  0.4166667E+00  0.4166667E+00  0.9259259E-02
   1        1.394495      1.411193
   2        6.631021      6.646668
   3        6.631021      6.646668
   4        6.708047      6.724480
   5       12.124359     12.137751
   6       12.124359     12.137751
   7       17.424569     17.440537
   8       19.692804     19.707633
   9       20.175376     20.193376
 
 -0.4166667E+00  0.4166667E+00  0.4166667E+00  0.2777778E-01
   1        2.461431      2.477828
   2        5.145375      5.161781
   3        6.548916      6.564580
   4        7.416544      7.431852
   5       11.959936     11.973675
   6       14.020368     14.034441
   7       16.766136     16.780605
   8       20.166826     20.184647
   9       20.978111     20.994559
