       N       E                     dE             d eps       ncg     rms          rms(c)
DAV:   1     0.166053945373E+01    0.16605E+01   -0.13855E+03  1245   0.214E+02
DAV:   2    -0.191542872872E+01   -0.35760E+01   -0.32910E+01  1167   0.314E+01
DAV:   3    -0.193950430352E+01   -0.24076E-01   -0.23921E-01  1402   0.231E+00
DAV:   4    -0.193951117148E+01   -0.68680E-05   -0.68667E-05  1188   0.344E-02
DAV:   5    -0.193951118087E+01   -0.93885E-08   -0.95085E-08  1339   0.105E-03    0.766E+00
DAV:   6    -0.113010803204E+02   -0.93616E+01   -0.25917E+00  1150   0.459E+00    0.384E+00
DAV:   7    -0.114641031934E+02   -0.16302E+00   -0.59296E-02  1231   0.128E+00    0.327E+00
DAV:   8    -0.112958192872E+02    0.16828E+00   -0.14026E+00  1110   0.580E+00    0.214E+00
DAV:   9    -0.115488520676E+02   -0.25303E+00   -0.17621E-01  1057   0.217E+00    0.742E-01
DAV:  10    -0.115841898205E+02   -0.35338E-01   -0.51819E-02  1105   0.118E+00    0.268E-01
DAV:  11    -0.115846897413E+02   -0.49992E-03   -0.60444E-03  1141   0.394E-01    0.764E-02
DAV:  12    -0.115847700428E+02   -0.80302E-04   -0.49513E-04  1054   0.116E-01
   1 F= -.11584770E+02 E0= -.11584425E+02  d E =-.103460E-02  mag=     0.0193
