PROCAR lm decomposed
# of k-points:   28         # of bands:   9         # of ions:   1

 k-point    1 :    0.08333333 0.08333333 0.08333333     weight = 0.00925926

band   1 # energy   -1.75494704 # occ.  1.00000000
 
ion      s     py     pz     px    dxy    dyz    dz2    dxz    dx2    tot
  1  0.877  0.008  0.008  0.008  0.000  0.000  0.000  0.000  0.000  0.901
 
band   2 # energy    6.53398643 # occ.  0.00000000
 
ion      s     py     pz     px    dxy    dyz    dz2    dxz    dx2    tot
  1  0.000  0.004  0.004  0.004  0.332  0.332  0.000  0.332  0.000  1.007
 
band   3 # energy    6.92662495 # occ.  0.00000000
 
ion      s     py     pz     px    dxy    dyz    dz2    dxz    dx2    tot
  1  0.000  0.000  0.001  0.001  0.559  0.361  0.003  0.087  0.001  1.013
 
band   4 # energy    6.92662495 # occ.  0.00000000
 
ion      s     py     pz     px    dxy    dyz    dz2    dxz    dx2    tot
  1  0.000  0.002  0.000  0.001  0.112  0.310  0.001  0.585  0.003  1.013
 
band   5 # energy    9.90602907 # occ.  0.00000000
 
ion      s     py     pz     px    dxy    dyz    dz2    dxz    dx2    tot
  1  0.000  0.000  0.000  0.000  0.002  0.001  0.806  0.000  0.169  0.979
 
band   6 # energy    9.90602907 # occ.  0.00000000
 
ion      s     py     pz     px    dxy    dyz    dz2    dxz    dx2    tot
  1  0.000  0.000  0.000  0.000  0.000  0.001  0.169  0.002  0.806  0.979
 
band   7 # energy   19.60390380 # occ.  0.00000000
 
ion      s     py     pz     px    dxy    dyz    dz2    dxz    dx2    tot
  1  0.000  0.000  0.000  0.000  0.009  0.009  0.000  0.009  0.000  0.026
 
band   8 # energy   20.15597922 # occ.  0.00000000
 
ion      s     py     pz     px    dxy    dyz    dz2    dxz    dx2    tot
  1 43.825  0.000  0.000  0.000  0.000  0.000  0.000  0.000  0.000 43.825
 
band   9 # energy   22.85101900 # occ.  0.00000000
 
ion      s     py     pz     px    dxy    dyz    dz2    dxz    dx2    tot
  1  0.061  0.031  0.031  0.031  0.005  0.005  0.000  0.005  0.000  0.168
 

 k-point    2 :    0.25000000 0.08333333 0.08333333     weight = 0.02777778

band   1 # energy   -0.35835251 # occ.  1.00000000
 
ion      s     py     pz     px    dxy    dyz    dz2    dxz    dx2    tot
  1  0.776  0.058  0.058  0.005  0.004  0.022  0.001  0.004  0.002  0.930
 
band   2 # energy    5.61527351 # occ.  1.00000000
 
ion      s     py     pz     px    dxy    dyz    dz2    dxz    dx2    tot
  1  0.002  0.008  0.008  0.050  0.447  0.035  0.000  0.447  0.000  0.996
 
band   3 # energy    7.21552003 # occ.  0.00000000
 
ion      s     py     pz     px    dxy    dyz    dz2    dxz    dx2    tot
  1  0.000  0.017  0.017  0.001  0.020  0.708  0.051  0.020  0.154  0.987
 
band   4 # energy    7.48032577 # occ.  0.00000000
 
ion      s     py     pz     px    dxy    dyz    dz2    dxz    dx2    tot
  1  0.000  0.000  0.000  0.000  0.448  0.000  0.071  0.448  0.024  0.990
 
band   5 # energy    9.04579341 # occ.  0.00000000
 
ion      s     py     pz     px    dxy    dyz    dz2    dxz    dx2    tot
  1  0.000  0.002  0.002  0.000  0.046  0.000  0.641  0.046  0.214  0.950
 
band   6 # energy   10.44169584 # occ.  0.00000000
 
ion      s     py     pz     px    dxy    dyz    dz2    dxz    dx2    tot
  1  0.005  0.006  0.006  0.000  0.004  0.186  0.186  0.004  0.559  0.956
 
band   7 # energy   20.15265393 # occ.  0.00000000
 
ion      s     py     pz     px    dxy    dyz    dz2    dxz    dx2    tot
  1 43.017  0.001  0.001  0.000  0.000  0.000  0.000  0.000  0.000 43.019
 
band   8 # energy   20.57137908 # occ.  0.00000000
 
ion      s     py     pz     px    dxy    dyz    dz2    dxz    dx2    tot
  1  0.869  0.021  0.021  0.011  0.000  0.024  0.007  0.000  0.021  0.975
 
band   9 # energy   22.46044929 # occ.  0.00000000
 
ion      s     py     pz     px    dxy    dyz    dz2    dxz    dx2    tot
  1  0.042  0.009  0.009  0.001  0.071  0.032  0.002  0.071  0.005  0.241
 

 k-point    3 :    0.41666667 0.08333333 0.08333333     weight = 0.02777778

band   1 # energy    1.47258771 # occ.  1.00000000
 
ion      s     py     pz     px    dxy    dyz    dz2    dxz    dx2    tot
  1  0.488  0.047  0.047  0.001  0.130  0.161  0.001  0.130  0.002  1.007
 
band   2 # energy    5.83810504 # occ.  1.00000000
 
ion      s     py     pz     px    dxy    dyz    dz2    dxz    dx2    tot
  1  0.043  0.147  0.147  0.168  0.161  0.047  0.015  0.161  0.045  0.933
 
band   3 # energy    6.54042988 # occ.  0.00000000
 
ion      s     py     pz     px    dxy    dyz    dz2    dxz    dx2    tot
  1  0.005  0.000  0.000  0.017  0.099  0.295  0.117  0.099  0.352  0.985
 
band   4 # energy    7.00692103 # occ.  0.00000000
 
ion      s     py     pz     px    dxy    dyz    dz2    dxz    dx2    tot
  1  0.000  0.000  0.000  0.000  0.199  0.000  0.436  0.199  0.145  0.980
 
band   5 # energy   10.75948703 # occ.  0.00000000
 
ion      s     py     pz     px    dxy    dyz    dz2    dxz    dx2    tot
  1  0.000  0.007  0.007  0.000  0.283  0.000  0.267  0.283  0.089  0.936
 
band   6 # energy   12.41166876 # occ.  0.00000000
 
ion      s     py     pz     px    dxy    dyz    dz2    dxz    dx2    tot
  1  0.012  0.025  0.025  0.001  0.031  0.412  0.106  0.031  0.317  0.958
 
band   7 # energy   18.20160501 # occ.  0.00000000
 
ion      s     py     pz     px    dxy    dyz    dz2    dxz    dx2    tot
  1  0.149  0.022  0.022  0.020  0.036  0.097  0.005  0.036  0.016  0.401
 
band   8 # energy   20.15961767 # occ.  0.00000000
 
ion      s     py     pz     px    dxy    dyz    dz2    dxz    dx2    tot
  1 43.523  0.000  0.000  0.000  0.000  0.000  0.000  0.000  0.000 43.523
 
band   9 # energy   21.26817103 # occ.  0.00000000
 
ion      s     py     pz     px    dxy    dyz    dz2    dxz    dx2    tot
  1  0.639  0.087  0.087  0.040  0.093  0.053  0.001  0.093  0.002  1.094
 

 k-point    4 :   -0.41666667 0.08333333 0.08333333     weight = 0.02777778

band   1 # energy    1.72260851 # occ.  1.00000000
 
ion      s     py     pz     px    dxy    dyz    dz2    dxz    dx2    tot
  1  0.358  0.001  0.001  0.021  0.207  0.244  0.000  0.207  0.001  1.040
 
band   2 # energy    6.00361385 # occ.  1.00000000
 
ion      s     py     pz     px    dxy    dyz    dz2    dxz    dx2    tot
  1  0.000  0.061  0.061  0.026  0.051  0.094  0.149  0.051  0.448  0.940
 
band   3 # energy    6.78071439 # occ.  0.00000000
 
ion      s     py     pz     px    dxy    dyz    dz2    dxz    dx2    tot
  1  0.000  0.004  0.004  0.000  0.192  0.000  0.450  0.192  0.150  0.991
 
band   4 # energy    7.05135202 # occ.  0.00000000
 
ion      s     py     pz     px    dxy    dyz    dz2    dxz    dx2    tot
  1  0.007  0.197  0.197  0.229  0.026  0.244  0.007  0.026  0.020  0.952
 
band   5 # energy   12.63335726 # occ.  0.00000000
 
ion      s     py     pz     px    dxy    dyz    dz2    dxz    dx2    tot
  1  0.000  0.000  0.000  0.000  0.302  0.000  0.272  0.302  0.091  0.967
 
band   6 # energy   12.81775479 # occ.  0.00000000
 
ion      s     py     pz     px    dxy    dyz    dz2    dxz    dx2    tot
  1  0.000  0.024  0.024  0.058  0.096  0.310  0.084  0.096  0.252  0.945
 
band   7 # energy   17.07911682 # occ.  0.00000000
 
ion      s     py     pz     px    dxy    dyz    dz2    dxz    dx2    tot
  1  0.434  0.002  0.002  0.003  0.167  0.114  0.000  0.167  0.000  0.890
 
band   8 # energy   19.29801045 # occ.  0.00000000
 
ion      s     py     pz     px    dxy    dyz    dz2    dxz    dx2    tot
  1  0.011  0.016  0.016  0.028  0.000  0.034  0.003  0.000  0.010  0.120
 
band   9 # energy   20.16641171 # occ.  0.00000000
 
ion      s     py     pz     px    dxy    dyz    dz2    dxz    dx2    tot
  1 44.055  0.000  0.000  0.000  0.000  0.000  0.000  0.000  0.000 44.056
 

 k-point    5 :   -0.25000000 0.08333333 0.08333333     weight = 0.02777778

band   1 # energy    1.02577636 # occ.  1.00000000
 
ion      s     py     pz     px    dxy    dyz    dz2    dxz    dx2    tot
  1  0.598  0.020  0.020  0.100  0.077  0.074  0.003  0.077  0.008  0.976
 
band   2 # energy    5.38848089 # occ.  1.00000000
 
ion      s     py     pz     px    dxy    dyz    dz2    dxz    dx2    tot
  1  0.029  0.098  0.098  0.067  0.096  0.462  0.005  0.096  0.015  0.963
 
band   3 # energy    6.74577598 # occ.  0.00000000
 
ion      s     py     pz     px    dxy    dyz    dz2    dxz    dx2    tot
  1  0.004  0.001  0.001  0.000  0.102  0.232  0.132  0.102  0.397  0.972
 
band   4 # energy    7.30376636 # occ.  0.00000000
 
ion      s     py     pz     px    dxy    dyz    dz2    dxz    dx2    tot
  1  0.000  0.010  0.010  0.000  0.279  0.000  0.307  0.279  0.102  0.987
 
band   5 # energy   10.31690747 # occ.  0.00000000
 
ion      s     py     pz     px    dxy    dyz    dz2    dxz    dx2    tot
  1  0.009  0.006  0.006  0.047  0.160  0.172  0.093  0.160  0.279  0.933
 
band   6 # energy   11.41553557 # occ.  0.00000000
 
ion      s     py     pz     px    dxy    dyz    dz2    dxz    dx2    tot
  1  0.000  0.006  0.006  0.000  0.194  0.000  0.407  0.194  0.136  0.943
 
band   7 # energy   18.88053803 # occ.  0.00000000
 
ion      s     py     pz     px    dxy    dyz    dz2    dxz    dx2    tot
  1  0.086  0.023  0.023  0.017  0.042  0.006  0.005  0.042  0.014  0.257
 
band   8 # energy   20.16169435 # occ.  0.00000000
 
ion      s     py     pz     px    dxy    dyz    dz2    dxz    dx2    tot
  1 43.788  0.000  0.000  0.000  0.000  0.000  0.000  0.000  0.000 43.788
 
band   9 # energy   22.88827956 # occ.  0.00000000
 
ion      s     py     pz     px    dxy    dyz    dz2    dxz    dx2    tot
  1  0.308  0.075  0.075  0.091  0.112  0.142  0.002  0.112  0.005  0.921
 

 k-point    6 :   -0.08333333 0.08333333 0.08333333     weight = 0.02777778

band   1 # energy   -1.01526908 # occ.  1.00000000
 
ion      s     py     pz     px    dxy    dyz    dz2    dxz    dx2    tot
  1  0.827  0.007  0.007  0.066  0.003  0.001  0.001  0.003  0.003  0.915
 
band   2 # energy    5.86529786 # occ.  1.00000000
 
ion      s     py     pz     px    dxy    dyz    dz2    dxz    dx2    tot
  1  0.000  0.008  0.008  0.001  0.062  0.859  0.000  0.062  0.000  1.002
 
band   3 # energy    7.29411235 # occ.  0.00000000
 
ion      s     py     pz     px    dxy    dyz    dz2    dxz    dx2    tot
  1  0.000  0.007  0.007  0.004  0.403  0.130  0.011  0.403  0.033  0.999
 
band   4 # energy    7.32397033 # occ.  0.00000000
 
ion      s     py     pz     px    dxy    dyz    dz2    dxz    dx2    tot
  1  0.000  0.011  0.011  0.000  0.477  0.000  0.023  0.477  0.008  1.006
 
band   5 # energy    9.03285543 # occ.  0.00000000
 
ion      s     py     pz     px    dxy    dyz    dz2    dxz    dx2    tot
  1  0.004  0.000  0.000  0.003  0.019  0.005  0.226  0.019  0.677  0.954
 
band   6 # energy   10.26361226 # occ.  0.00000000
 
ion      s     py     pz     px    dxy    dyz    dz2    dxz    dx2    tot
  1  0.000  0.000  0.000  0.000  0.015  0.000  0.709  0.015  0.236  0.975
 
band   7 # energy   20.15609091 # occ.  0.00000000
 
ion      s     py     pz     px    dxy    dyz    dz2    dxz    dx2    tot
  1 43.752  0.000  0.000  0.000  0.000  0.000  0.000  0.000  0.000 43.752
 
band   8 # energy   20.99092344 # occ.  0.00000000
 
ion      s     py     pz     px    dxy    dyz    dz2    dxz    dx2    tot
  1  0.024  0.002  0.002  0.002  0.002  0.056  0.001  0.002  0.002  0.095
 
band   9 # energy   22.06409891 # occ.  0.00000000
 
ion      s     py     pz     px    dxy    dyz    dz2    dxz    dx2    tot
  1  0.124  0.018  0.018  0.028  0.018  0.017  0.009  0.018  0.027  0.278
 

 k-point    7 :    0.25000000 0.25000000 0.08333333     weight = 0.02777778

band   1 # energy    0.27998460 # occ.  1.00000000
 
ion      s     py     pz     px    dxy    dyz    dz2    dxz    dx2    tot
  1  0.711  0.005  0.159  0.005  0.001  0.006  0.042  0.006  0.000  0.935
 
band   2 # energy    4.87782735 # occ.  1.00000000
 
ion      s     py     pz     px    dxy    dyz    dz2    dxz    dx2    tot
  1  0.000  0.009  0.001  0.009  0.953  0.017  0.001  0.017  0.000  1.005
 
band   3 # energy    7.24575992 # occ.  0.00000000
 
ion      s     py     pz     px    dxy    dyz    dz2    dxz    dx2    tot
  1  0.018  0.008  0.009  0.008  0.017  0.128  0.626  0.128  0.000  0.941
 
band   4 # energy    8.13318714 # occ.  0.00000000
 
ion      s     py     pz     px    dxy    dyz    dz2    dxz    dx2    tot
  1  0.000  0.026  0.000  0.026  0.000  0.423  0.000  0.423  0.082  0.980
 
band   5 # energy    8.73165538 # occ.  0.00000000
 
ion      s     py     pz     px    dxy    dyz    dz2    dxz    dx2    tot
  1  0.012  0.020  0.026  0.020  0.028  0.306  0.241  0.306  0.000  0.959
 
band   6 # energy   10.91674416 # occ.  0.00000000
 
ion      s     py     pz     px    dxy    dyz    dz2    dxz    dx2    tot
  1  0.000  0.002  0.000  0.002  0.000  0.040  0.000  0.040  0.889  0.972
 
band   7 # energy   20.15793557 # occ.  0.00000000
 
ion      s     py     pz     px    dxy    dyz    dz2    dxz    dx2    tot
  1 43.720  0.000  0.000  0.000  0.000  0.000  0.000  0.000  0.000 43.721
 
band   8 # energy   21.96198336 # occ.  0.00000000
 
ion      s     py     pz     px    dxy    dyz    dz2    dxz    dx2    tot
  1  0.160  0.029  0.017  0.029  0.001  0.023  0.102  0.023  0.000  0.385
 
band   9 # energy   23.67755848 # occ.  0.00000000
 
ion      s     py     pz     px    dxy    dyz    dz2    dxz    dx2    tot
  1  0.012  0.005  0.003  0.005  0.177  0.017  0.005  0.017  0.000  0.240
 

 k-point    8 :    0.41666667 0.25000000 0.08333333     weight = 0.05555556

band   1 # energy    2.07539069 # occ.  1.00000000
 
ion      s     py     pz     px    dxy    dyz    dz2    dxz    dx2    tot
  1  0.462  0.035  0.188  0.000  0.035  0.055  0.172  0.012  0.000  0.959
 
band   2 # energy    4.32703600 # occ.  1.00000000
 
ion      s     py     pz     px    dxy    dyz    dz2    dxz    dx2    tot
  1  0.004  0.019  0.008  0.071  0.819  0.005  0.029  0.051  0.001  1.007
 
band   3 # energy    5.92236932 # occ.  1.00000000
 
ion      s     py     pz     px    dxy    dyz    dz2    dxz    dx2    tot
  1  0.059  0.016  0.050  0.000  0.039  0.253  0.496  0.009  0.036  0.958
 
band   4 # energy    8.77734243 # occ.  0.00000000
 
ion      s     py     pz     px    dxy    dyz    dz2    dxz    dx2    tot
  1  0.005  0.025  0.033  0.020  0.017  0.133  0.076  0.263  0.383  0.953
 
band   5 # energy   10.28347054 # occ.  0.00000000
 
ion      s     py     pz     px    dxy    dyz    dz2    dxz    dx2    tot
  1  0.009  0.014  0.056  0.046  0.064  0.039  0.097  0.508  0.104  0.938
 
band   6 # energy   12.73298574 # occ.  0.00000000
 
ion      s     py     pz     px    dxy    dyz    dz2    dxz    dx2    tot
  1  0.024  0.027  0.035  0.000  0.001  0.417  0.040  0.009  0.422  0.974
 
band   7 # energy   20.06000769 # occ.  0.00000000
 
ion      s     py     pz     px    dxy    dyz    dz2    dxz    dx2    tot
  1 18.389  0.087  0.043  0.021  0.005  0.072  0.009  0.022  0.016 18.662
 
band   8 # energy   20.25170674 # occ.  0.00000000
 
ion      s     py     pz     px    dxy    dyz    dz2    dxz    dx2    tot
  1 25.698  0.078  0.032  0.020  0.004  0.067  0.009  0.021  0.014 25.942
 
band   9 # energy   23.23153742 # occ.  0.00000000
 
ion      s     py     pz     px    dxy    dyz    dz2    dxz    dx2    tot
  1  0.092  0.043  0.096  0.002  0.020  0.001  0.199  0.003  0.001  0.456
 

 k-point    9 :   -0.41666667 0.25000000 0.08333333     weight = 0.05555556

band   1 # energy    2.99579479 # occ.  1.00000000
 
ion      s     py     pz     px    dxy    dyz    dz2    dxz    dx2    tot
  1  0.238  0.000  0.072  0.027  0.374  0.160  0.061  0.090  0.000  1.023
 
band   2 # energy    4.51429397 # occ.  1.00000000
 
ion      s     py     pz     px    dxy    dyz    dz2    dxz    dx2    tot
  1  0.002  0.122  0.004  0.062  0.003  0.064  0.573  0.016  0.065  0.911
 
band   3 # energy    6.11064607 # occ.  1.00000660
 
ion      s     py     pz     px    dxy    dyz    dz2    dxz    dx2    tot
  1  0.017  0.049  0.188  0.106  0.343  0.266  0.008  0.011  0.009  0.995
 
band   4 # energy    8.10647908 # occ.  0.00000000
 
ion      s     py     pz     px    dxy    dyz    dz2    dxz    dx2    tot
  1  0.001  0.009  0.028  0.021  0.006  0.029  0.069  0.211  0.580  0.954
 
band   5 # energy   12.13894367 # occ.  0.00000000
 
ion      s     py     pz     px    dxy    dyz    dz2    dxz    dx2    tot
  1  0.036  0.004  0.007  0.003  0.073  0.170  0.029  0.438  0.177  0.937
 
band   6 # energy   14.73595538 # occ.  0.00000000
 
ion      s     py     pz     px    dxy    dyz    dz2    dxz    dx2    tot
  1  0.003  0.061  0.199  0.132  0.131  0.181  0.162  0.000  0.064  0.934
 
band   7 # energy   16.15618335 # occ.  0.00000000
 
ion      s     py     pz     px    dxy    dyz    dz2    dxz    dx2    tot
  1  0.477  0.002  0.001  0.003  0.046  0.118  0.024  0.205  0.024  0.901
 
band   8 # energy   20.16558627 # occ.  0.00000000
 
ion      s     py     pz     px    dxy    dyz    dz2    dxz    dx2    tot
  1 43.965  0.000  0.000  0.000  0.000  0.000  0.000  0.000  0.000 43.966
 
band   9 # energy   22.02177772 # occ.  0.00000000
 
ion      s     py     pz     px    dxy    dyz    dz2    dxz    dx2    tot
  1  0.016  0.006  0.091  0.004  0.022  0.059  0.177  0.007  0.009  0.391
 

 k-point   10 :   -0.25000000 0.25000000 0.08333333     weight = 0.05555556

band   1 # energy    2.81642109 # occ.  1.00000000
 
ion      s     py     pz     px    dxy    dyz    dz2    dxz    dx2    tot
  1  0.398  0.071  0.004  0.159  0.208  0.070  0.016  0.033  0.029  0.989
 
band   2 # energy    4.93279656 # occ.  1.00000000
 
ion      s     py     pz     px    dxy    dyz    dz2    dxz    dx2    tot
  1  0.005  0.073  0.124  0.032  0.031  0.353  0.178  0.102  0.054  0.953
 
band   3 # energy    5.31776791 # occ.  1.00000000
 
ion      s     py     pz     px    dxy    dyz    dz2    dxz    dx2    tot
  1  0.022  0.010  0.045  0.004  0.237  0.234  0.322  0.037  0.056  0.968
 
band   4 # energy    8.25497603 # occ.  0.00000000
 
ion      s     py     pz     px    dxy    dyz    dz2    dxz    dx2    tot
  1  0.001  0.003  0.003  0.057  0.011  0.033  0.081  0.111  0.648  0.948
 
band   5 # energy   10.28277276 # occ.  0.00000000
 
ion      s     py     pz     px    dxy    dyz    dz2    dxz    dx2    tot
  1  0.000  0.001  0.020  0.018  0.000  0.207  0.005  0.558  0.120  0.930
 
band   6 # energy   13.97419496 # occ.  0.00000000
 
ion      s     py     pz     px    dxy    dyz    dz2    dxz    dx2    tot
  1  0.109  0.024  0.004  0.050  0.503  0.002  0.297  0.001  0.000  0.990
 
band   7 # energy   18.79555913 # occ.  0.00000000
 
ion      s     py     pz     px    dxy    dyz    dz2    dxz    dx2    tot
  1  0.212  0.139  0.026  0.117  0.047  0.020  0.128  0.036  0.002  0.728
 
band   8 # energy   20.17039518 # occ.  0.00000000
 
ion      s     py     pz     px    dxy    dyz    dz2    dxz    dx2    tot
  1 44.033  0.001  0.000  0.000  0.001  0.000  0.001  0.000  0.000 44.036
 
band   9 # energy   22.62279084 # occ.  0.00000000
 
ion      s     py     pz     px    dxy    dyz    dz2    dxz    dx2    tot
  1  0.020  0.022  0.004  0.071  0.035  0.019  0.065  0.008  0.039  0.284
 

 k-point   11 :   -0.08333333 0.25000000 0.08333333     weight = 0.05555556

band   1 # energy    0.81112282 # occ.  1.00000000
 
ion      s     py     pz     px    dxy    dyz    dz2    dxz    dx2    tot
  1  0.666  0.045  0.003  0.141  0.051  0.011  0.009  0.010  0.014  0.949
 
band   2 # energy    5.02352420 # occ.  1.00000000
 
ion      s     py     pz     px    dxy    dyz    dz2    dxz    dx2    tot
  1  0.004  0.014  0.069  0.009  0.012  0.733  0.002  0.154  0.002  0.997
 
band   3 # energy    6.73039411 # occ.  0.00000000
 
ion      s     py     pz     px    dxy    dyz    dz2    dxz    dx2    tot
  1  0.005  0.027  0.000  0.001  0.372  0.037  0.324  0.004  0.186  0.955
 
band   4 # energy    7.96185164 # occ.  0.00000000
 
ion      s     py     pz     px    dxy    dyz    dz2    dxz    dx2    tot
  1  0.001  0.007  0.013  0.007  0.099  0.085  0.049  0.439  0.272  0.972
 
band   5 # energy    9.09136722 # occ.  0.00000000
 
ion      s     py     pz     px    dxy    dyz    dz2    dxz    dx2    tot
  1  0.007  0.004  0.010  0.030  0.072  0.101  0.001  0.295  0.427  0.947
 
band   6 # energy   11.50155682 # occ.  0.00000000
 
ion      s     py     pz     px    dxy    dyz    dz2    dxz    dx2    tot
  1  0.011  0.019  0.000  0.015  0.311  0.001  0.558  0.010  0.031  0.957
 
band   7 # energy   20.14846632 # occ.  0.00000000
 
ion      s     py     pz     px    dxy    dyz    dz2    dxz    dx2    tot
  1 42.009  0.002  0.001  0.001  0.002  0.000  0.002  0.000  0.000 42.018
 
band   8 # energy   20.52325472 # occ.  0.00000000
 
ion      s     py     pz     px    dxy    dyz    dz2    dxz    dx2    tot
  1  1.908  0.043  0.015  0.023  0.072  0.000  0.055  0.009  0.013  2.138
 
band   9 # energy   23.96483625 # occ.  0.00000000
 
ion      s     py     pz     px    dxy    dyz    dz2    dxz    dx2    tot
  1  0.085  0.050  0.017  0.035  0.056  0.162  0.000  0.078  0.002  0.485
 

 k-point   12 :    0.41666667 0.41666667 0.08333333     weight = 0.02777778

band   1 # energy    1.95631113 # occ.  1.00000000
 
ion      s     py     pz     px    dxy    dyz    dz2    dxz    dx2    tot
  1  0.223  0.004  0.077  0.004  0.007  0.001  0.629  0.001  0.000  0.946
 
band   2 # energy    3.23799187 # occ.  1.00000000
 
ion      s     py     pz     px    dxy    dyz    dz2    dxz    dx2    tot
  1  0.000  0.008  0.000  0.008  1.025  0.002  0.005  0.002  0.000  1.050
 
band   3 # energy    7.36832910 # occ.  0.00000000
 
ion      s     py     pz     px    dxy    dyz    dz2    dxz    dx2    tot
  1  0.167  0.002  0.466  0.002  0.002  0.063  0.216  0.063  0.000  0.982
 
band   4 # energy   10.71883929 # occ.  0.00000000
 
ion      s     py     pz     px    dxy    dyz    dz2    dxz    dx2    tot
  1  0.000  0.042  0.000  0.042  0.000  0.247  0.000  0.247  0.355  0.933
 
band   5 # energy   11.87758367 # occ.  0.00000000
 
ion      s     py     pz     px    dxy    dyz    dz2    dxz    dx2    tot
  1  0.012  0.054  0.090  0.054  0.007  0.346  0.032  0.346  0.000  0.940
 
band   6 # energy   12.56941100 # occ.  0.00000000
 
ion      s     py     pz     px    dxy    dyz    dz2    dxz    dx2    tot
  1  0.000  0.007  0.000  0.007  0.000  0.178  0.000  0.178  0.602  0.971
 
band   7 # energy   19.59535162 # occ.  0.00000000
 
ion      s     py     pz     px    dxy    dyz    dz2    dxz    dx2    tot
  1  0.516  0.197  0.050  0.197  0.008  0.090  0.005  0.090  0.000  1.153
 
band   8 # energy   20.17117743 # occ.  0.00000000
 
ion      s     py     pz     px    dxy    dyz    dz2    dxz    dx2    tot
  1 43.263  0.006  0.000  0.006  0.000  0.003  0.000  0.003  0.000 43.280
 
band   9 # energy   20.97631377 # occ.  0.00000000
 
ion      s     py     pz     px    dxy    dyz    dz2    dxz    dx2    tot
  1  0.000  0.300  0.000  0.300  0.000  0.094  0.000  0.094  0.024  0.812
 

 k-point   13 :   -0.41666667 0.41666667 0.08333333     weight = 0.05555556

band   1 # energy    2.38657697 # occ.  1.00000000
 
ion      s     py     pz     px    dxy    dyz    dz2    dxz    dx2    tot
  1  0.096  0.039  0.007  0.001  0.039  0.000  0.751  0.000  0.004  0.938
 
band   2 # energy    3.43306726 # occ.  1.00000000
 
ion      s     py     pz     px    dxy    dyz    dz2    dxz    dx2    tot
  1  0.000  0.015  0.000  0.069  0.924  0.000  0.024  0.002  0.000  1.035
 
band   3 # energy    7.36981123 # occ.  0.00000000
 
ion      s     py     pz     px    dxy    dyz    dz2    dxz    dx2    tot
  1  0.036  0.002  0.504  0.000  0.002  0.385  0.014  0.030  0.010  0.983
 
band   4 # energy   10.48483819 # occ.  0.00000000
 
ion      s     py     pz     px    dxy    dyz    dz2    dxz    dx2    tot
  1  0.033  0.064  0.031  0.008  0.000  0.001  0.007  0.022  0.752  0.918
 
band   5 # energy   12.90992010 # occ.  0.00000000
 
ion      s     py     pz     px    dxy    dyz    dz2    dxz    dx2    tot
  1  0.011  0.002  0.001  0.020  0.006  0.121  0.000  0.774  0.021  0.955
 
band   6 # energy   15.28762160 # occ.  0.00000000
 
ion      s     py     pz     px    dxy    dyz    dz2    dxz    dx2    tot
  1  0.016  0.010  0.350  0.022  0.004  0.480  0.021  0.085  0.011  0.998
 
band   7 # energy   16.36961126 # occ.  0.00000000
 
ion      s     py     pz     px    dxy    dyz    dz2    dxz    dx2    tot
  1  0.373  0.096  0.008  0.160  0.031  0.007  0.013  0.041  0.087  0.816
 
band   8 # energy   19.45720352 # occ.  0.00000000
 
ion      s     py     pz     px    dxy    dyz    dz2    dxz    dx2    tot
  1  0.169  0.046  0.021  0.497  0.032  0.001  0.037  0.033  0.094  0.930
 
band   9 # energy   20.16895054 # occ.  0.00000000
 
ion      s     py     pz     px    dxy    dyz    dz2    dxz    dx2    tot
  1 43.667  0.003  0.000  0.003  0.000  0.000  0.000  0.000  0.002 43.675
 

 k-point   14 :   -0.25000000 0.41666667 0.08333333     weight = 0.05555556

band   1 # energy    3.54336545 # occ.  1.00000000
 
ion      s     py     pz     px    dxy    dyz    dz2    dxz    dx2    tot
  1  0.099  0.014  0.015  0.010  0.390  0.015  0.413  0.009  0.010  0.974
 
band   2 # energy    4.18100730 # occ.  1.00000000
 
ion      s     py     pz     px    dxy    dyz    dz2    dxz    dx2    tot
  1  0.051  0.137  0.005  0.147  0.244  0.039  0.275  0.014  0.042  0.954
 
band   3 # energy    5.83326904 # occ.  1.00000000
 
ion      s     py     pz     px    dxy    dyz    dz2    dxz    dx2    tot
  1  0.002  0.011  0.295  0.023  0.081  0.487  0.001  0.096  0.001  0.996
 
band   4 # energy    8.83870306 # occ.  0.00000000
 
ion      s     py     pz     px    dxy    dyz    dz2    dxz    dx2    tot
  1  0.025  0.009  0.009  0.047  0.007  0.004  0.045  0.049  0.734  0.928
 
band   5 # energy   11.76273146 # occ.  0.00000000
 
ion      s     py     pz     px    dxy    dyz    dz2    dxz    dx2    tot
  1  0.023  0.001  0.011  0.000  0.018  0.238  0.002  0.603  0.034  0.930
 
band   6 # energy   14.35350387 # occ.  0.00000000
 
ion      s     py     pz     px    dxy    dyz    dz2    dxz    dx2    tot
  1  0.415  0.020  0.020  0.096  0.226  0.002  0.016  0.022  0.049  0.867
 
band   7 # energy   17.87521923 # occ.  0.00000000
 
ion      s     py     pz     px    dxy    dyz    dz2    dxz    dx2    tot
  1  0.098  0.037  0.273  0.077  0.012  0.177  0.157  0.152  0.002  0.984
 
band   8 # energy   20.16124572 # occ.  0.00000000
 
ion      s     py     pz     px    dxy    dyz    dz2    dxz    dx2    tot
  1 43.374  0.000  0.003  0.001  0.000  0.002  0.001  0.001  0.000 43.384
 
band   9 # energy   20.84533685 # occ.  0.00000000
 
ion      s     py     pz     px    dxy    dyz    dz2    dxz    dx2    tot
  1  0.702  0.052  0.256  0.134  0.023  0.099  0.255  0.088  0.008  1.618
 

 k-point   15 :   -0.08333333 0.41666667 0.08333333     weight = 0.05555556

band   1 # energy    2.15829679 # occ.  1.00000000
 
ion      s     py     pz     px    dxy    dyz    dz2    dxz    dx2    tot
  1  0.362  0.011  0.005  0.070  0.206  0.221  0.003  0.136  0.009  1.024
 
band   2 # energy    5.41342718 # occ.  1.00000000
 
ion      s     py     pz     px    dxy    dyz    dz2    dxz    dx2    tot
  1  0.003  0.125  0.064  0.048  0.093  0.001  0.371  0.021  0.181  0.909
 
band   3 # energy    6.27513919 # occ.  0.62298520
 
ion      s     py     pz     px    dxy    dyz    dz2    dxz    dx2    tot
  1  0.034  0.054  0.138  0.105  0.147  0.411  0.073  0.022  0.009  0.994
 
band   4 # energy    7.34577978 # occ.  0.00000000
 
ion      s     py     pz     px    dxy    dyz    dz2    dxz    dx2    tot
  1  0.001  0.005  0.004  0.021  0.045  0.053  0.148  0.248  0.448  0.972
 
band   5 # energy   11.65535670 # occ.  0.00000000
 
ion      s     py     pz     px    dxy    dyz    dz2    dxz    dx2    tot
  1  0.000  0.003  0.015  0.041  0.005  0.176  0.011  0.407  0.278  0.936
 
band   6 # energy   13.49439865 # occ.  0.00000000
 
ion      s     py     pz     px    dxy    dyz    dz2    dxz    dx2    tot
  1  0.031  0.031  0.024  0.061  0.434  0.032  0.341  0.014  0.002  0.971
 
band   7 # energy   17.49737288 # occ.  0.00000000
 
ion      s     py     pz     px    dxy    dyz    dz2    dxz    dx2    tot
  1  0.333  0.042  0.028  0.038  0.113  0.071  0.028  0.133  0.001  0.786
 
band   8 # energy   20.16533983 # occ.  0.00000000
 
ion      s     py     pz     px    dxy    dyz    dz2    dxz    dx2    tot
  1 43.880  0.000  0.000  0.000  0.000  0.000  0.000  0.000  0.000 43.881
 
band   9 # energy   20.76463875 # occ.  0.00000000
 
ion      s     py     pz     px    dxy    dyz    dz2    dxz    dx2    tot
  1  0.187  0.021  0.013  0.051  0.005  0.049  0.022  0.013  0.022  0.382
 

 k-point   16 :   -0.41666667-0.41666667 0.08333333     weight = 0.02777778

band   1 # energy    1.78559329 # occ.  1.00000000
 
ion      s     py     pz     px    dxy    dyz    dz2    dxz    dx2    tot
  1  0.127  0.004  0.007  0.004  0.006  0.000  0.799  0.000  0.000  0.949
 
band   2 # energy    2.87121521 # occ.  1.00000000
 
ion      s     py     pz     px    dxy    dyz    dz2    dxz    dx2    tot
  1  0.000  0.008  0.000  0.008  1.045  0.000  0.003  0.000  0.000  1.065
 
band   3 # energy    8.78117079 # occ.  0.00000000
 
ion      s     py     pz     px    dxy    dyz    dz2    dxz    dx2    tot
  1  0.039  0.001  0.765  0.001  0.000  0.080  0.024  0.080  0.000  0.990
 
band   4 # energy   11.88143454 # occ.  0.00000000
 
ion      s     py     pz     px    dxy    dyz    dz2    dxz    dx2    tot
  1  0.000  0.025  0.000  0.025  0.000  0.060  0.000  0.060  0.779  0.949
 
band   5 # energy   13.12708382 # occ.  0.00000000
 
ion      s     py     pz     px    dxy    dyz    dz2    dxz    dx2    tot
  1  0.000  0.003  0.000  0.003  0.000  0.410  0.000  0.410  0.148  0.973
 
band   6 # energy   13.70965695 # occ.  0.00000000
 
ion      s     py     pz     px    dxy    dyz    dz2    dxz    dx2    tot
  1  0.002  0.022  0.156  0.022  0.001  0.381  0.006  0.381  0.000  0.972
 