<?xml version="1.0" encoding="ISO-8859-1"?>
<modeling>
 <generator>
  <i name="program" type="string">vasp </i>
  <i name="version" type="string">5.2.12  </i>
  <i name="subversion" type="string">11Nov11 complex                                                      parallel </i>
  <i name="platform" type="string">LinuxIFC </i>
  <i name="date" type="string">2012 10 17 </i>
  <i name="time" type="string">11:06:56 </i>
 </generator>
 <incar>
  <i type="int" name="ISTART">     0</i>
  <i type="string" name="PREC">accurate</i>
  <i type="int" name="ISPIN">     2</i>
  <i name="ENCUT">    200.00000000</i>
  <v name="MAGMOM">      6.00000000</v>
  <i type="logical" name="LREAL"> F  </i>
  <i type="int" name="ISMEAR">     1</i>
  <i name="SIGMA">      0.05000000</i>
  <i type="logical" name="LORBIT"> F  </i>
 </incar>
 <kpoints>
  <generation param="Monkhorst-Pack">
   <v type="int" name="divisions">       6        6        6 </v>
   <v name="usershift">      0.00000000       0.00000000       0.00000000 </v>
   <v name="genvec1">      0.16666667       0.00000000       0.00000000 </v>
   <v name="genvec2">      0.00000000       0.16666667       0.00000000 </v>
   <v name="genvec3">      0.00000000       0.00000000       0.16666667 </v>
   <v name="shift">      0.50000000       0.50000000       0.50000000 </v>
  </generation>
  <varray name="kpointlist" >
   <v>       0.08333333       0.08333333       0.08333333 </v>
   <v>       0.25000000       0.08333333       0.08333333 </v>
   <v>       0.41666667       0.08333333       0.08333333 </v>
   <v>      -0.41666667       0.08333333       0.08333333 </v>
   <v>      -0.25000000       0.08333333       0.08333333 </v>
   <v>      -0.08333333       0.08333333       0.08333333 </v>
   <v>       0.25000000       0.25000000       0.08333333 </v>
   <v>       0.41666667       0.25000000       0.08333333 </v>
   <v>      -0.41666667       0.25000000       0.08333333 </v>
   <v>      -0.25000000       0.25000000       0.08333333 </v>
   <v>      -0.08333333       0.25000000       0.08333333 </v>
   <v>       0.41666667       0.41666667       0.08333333 </v>
   <v>      -0.41666667       0.41666667       0.08333333 </v>
   <v>      -0.25000000       0.41666667       0.08333333 </v>
   <v>      -0.08333333       0.41666667       0.08333333 </v>
   <v>      -0.41666667      -0.41666667       0.08333333 </v>
   <v>      -0.25000000      -0.41666667       0.08333333 </v>
   <v>      -0.25000000      -0.25000000       0.08333333 </v>
   <v>       0.25000000       0.25000000       0.25000000 </v>
   <v>       0.41666667       0.25000000       0.25000000 </v>
   <v>      -0.41666667       0.25000000       0.25000000 </v>
   <v>      -0.25000000       0.25000000       0.25000000 </v>
   <v>       0.41666667       0.41666667       0.25000000 </v>
   <v>      -0.41666667       0.41666667       0.25000000 </v>
   <v>      -0.25000000       0.41666667       0.25000000 </v>
   <v>      -0.41666667      -0.41666667       0.25000000 </v>
   <v>       0.41666667       0.41666667       0.41666667 </v>
   <v>      -0.41666667       0.41666667       0.41666667 </v>
  </varray>
  <varray name="weights" >
   <v>       0.00925926 </v>
   <v>       0.02777778 </v>
   <v>       0.02777778 </v>
   <v>       0.02777778 </v>
   <v>       0.02777778 </v>
   <v>       0.02777778 </v>
   <v>       0.02777778 </v>
   <v>       0.05555556 </v>
   <v>       0.05555556 </v>
   <v>       0.05555556 </v>
   <v>       0.05555556 </v>
   <v>       0.02777778 </v>
   <v>       0.05555556 </v>
   <v>       0.05555556 </v>
   <v>       0.05555556 </v>
   <v>       0.02777778 </v>
   <v>       0.05555556 </v>
   <v>       0.02777778 </v>
   <v>       0.00925926 </v>
   <v>       0.02777778 </v>
   <v>       0.02777778 </v>
   <v>       0.02777778 </v>
   <v>       0.02777778 </v>
   <v>       0.05555556 </v>
   <v>       0.05555556 </v>
   <v>       0.02777778 </v>
   <v>       0.00925926 </v>
   <v>       0.02777778 </v>
  </varray>
 </kpoints>
 <parameters>
  <separator name="general" >
   <i type="string" name="SYSTEM">unknown system</i>
   <i type="logical" name="LCOMPAT"> F  </i>
  </separator>
  <separator name="electronic" >
   <i type="string" name="PREC">accura</i>
   <i name="ENMAX">    200.00000000</i>
   <i name="ENAUG">    332.07500000</i>
   <i name="EDIFF">      0.00010000</i>
   <i type="int" name="IALGO">    38</i>
   <i type="int" name="IWAVPR">    10</i>
   <i type="int" name="NBANDS">     9</i>
   <i name="NELECT">      5.00000000</i>
   <i type="int" name="TURBO">     0</i>
   <i type="int" name="IRESTART">     0</i>
   <i type="int" name="NREBOOT">     0</i>
   <i type="int" name="NMIN">     0</i>
   <i name="EREF">      0.00000000</i>
   <separator name="electronic smearing" >
    <i type="int" name="ISMEAR">     1</i>
    <i name="SIGMA">      0.05000000</i>
    <i name="KSPACING">      0.50000000</i>
    <i type="logical" name="KGAMMA"> T  </i>
   </separator>
   <separator name="electronic projectors" >
    <i type="logical" name="LREAL"> F  </i>
    <v name="ROPT">      0.00000000</v>
    <i type="int" name="LMAXPAW">  -100</i>
    <i type="int" name="LMAXMIX">     2</i>
    <i type="logical" name="NLSPLINE"> F  </i>
   </separator>
   <separator name="electronic startup" >
    <i type="int" name="ISTART">     0</i>
    <i type="int" name="ICHARG">     2</i>
    <i type="int" name="INIWAV">     1</i>
   </separator>
   <separator name="electronic spin" >
    <i type="int" name="ISPIN">     2</i>
    <i type="logical" name="LNONCOLLINEAR"> F  </i>
    <v name="MAGMOM">      6.00000000</v>
    <i name="NUPDOWN">     -1.00000000</i>
    <i type="logical" name="LSORBIT"> F  </i>
    <v name="SAXIS">      0.00000000      0.00000000      1.00000000</v>
    <i type="logical" name="LSPIRAL"> F  </i>
    <v name="QSPIRAL">      0.00000000      0.00000000      0.00000000</v>
    <i type="logical" name="LZEROZ"> F  </i>
   </separator>
   <separator name="electronic exchange-correlation" >
    <i type="logical" name="LASPH"> F  </i>
    <i type="logical" name="LMETAGGA"> F  </i>
   </separator>
   <separator name="electronic convergence" >
    <i type="int" name="NELM">    60</i>
    <i type="int" name="NELMDL">    -5</i>
    <i type="int" name="NELMIN">     2</i>
    <i name="ENINI">    200.00000000</i>
    <separator name="electronic convergence detail" >
     <i type="logical" name="LDIAG"> T  </i>
     <i type="logical" name="LSUBROT"> T  </i>
     <i name="WEIMIN">      0.00000000</i>
     <i name="EBREAK">      0.00000278</i>
     <i name="DEPER">      0.30000000</i>
     <i type="int" name="NRMM">     4</i>
     <i name="TIME">      0.40000000</i>
    </separator>
   </separator>
   <separator name="electronic mixer" >
    <i name="AMIX">      0.40000000</i>
    <i name="BMIX">      1.00000000</i>
    <i name="AMIN">      0.10000000</i>
    <i name="AMIX_MAG">      1.60000000</i>
    <i name="BMIX_MAG">      1.00000000</i>
    <separator name="electronic mixer details" >
     <i type="int" name="IMIX">     4</i>
     <i type="int" name="MAXMIX">   -45</i>
     <i name="WC">    100.00000000</i>
     <i type="int" name="INIMIX">     1</i>
     <i type="int" name="MIXPRE">     1</i>
     <i type="int" name="MREMOVE">     5</i>
    </separator>
   </separator>
   <separator name="electronic dipolcorrection" >
    <i type="logical" name="LDIPOL"> F  </i>
    <i type="logical" name="LMONO"> F  </i>
    <i type="int" name="IDIPOL">     0</i>
    <i name="EPSILON">      1.00000000</i>
    <v name="DIPOL">   -100.00000000   -100.00000000   -100.00000000</v>
    <i name="EFIELD">      0.00000000</i>
   </separator>
  </separator>
  <separator name="grids" >
   <i type="int" name="NGX">    14</i>
   <i type="int" name="NGY">    14</i>
   <i type="int" name="NGZ">    14</i>
   <i type="int" name="NGXF">    28</i>
   <i type="int" name="NGYF">    28</i>
   <i type="int" name="NGZF">    28</i>
   <i type="logical" name="ADDGRID"> F  </i>
  </separator>
  <separator name="ionic" >
   <i type="int" name="NSW">     0</i>
   <i type="int" name="IBRION">    -1</i>
   <i type="int" name="ISIF">     2</i>
   <i name="PSTRESS">      0.00000000</i>
   <i name="EDIFFG">      0.00100000</i>
   <i type="int" name="NFREE">     0</i>
   <i name="POTIM">      0.50000000</i>
   <i name="SMASS">     -3.00000000</i>
   <i name="SCALEE">      1.00000000</i>
  </separator>
  <separator name="ionic md" >
   <i name="TEBEG">      0.00010000</i>
   <i name="TEEND">      0.00010000</i>
   <i type="int" name="NBLOCK">     1</i>
   <i type="int" name="KBLOCK">     1</i>
   <i type="int" name="NPACO">   256</i>
   <i name="APACO">     16.00000000</i>
  </separator>
  <separator name="symmetry" >
   <i type="int" name="ISYM">     2</i>
   <i name="SYMPREC">      0.00001000</i>
  </separator>
  <separator name="dos" >
   <i type="logical" name="LORBIT"> F  </i>
   <v name="RWIGS">     -1.00000000</v>
   <i type="int" name="NEDOS">   301</i>
   <i name="EMIN">     10.00000000</i>
   <i name="EMAX">    -10.00000000</i>
   <i name="EFERMI">      0.00000000</i>
  </separator>
  <separator name="writing" >
   <i type="int" name="NWRITE">     2</i>
   <i type="logical" name="LWAVE"> T  </i>
   <i type="logical" name="LCHARG"> T  </i>
   <i type="logical" name="LPARD"> F  </i>
   <i type="logical" name="LVTOT"> F  </i>
   <i type="logical" name="LVHAR"> F  </i>
   <i type="logical" name="LELF"> F  </i>
   <i type="logical" name="LOPTICS"> F  </i>
   <v name="STM">      0.00000000      0.00000000      0.00000000      0.00000000      0.00000000      0.00000000      0.00000000</v>
  </separator>
  <separator name="performance" >
   <i type="int" name="NPAR">     1</i>
   <i type="int" name="NSIM">     4</i>
   <i type="int" name="NBLK">    -1</i>
   <i type="logical" name="LPLANE"> T  </i>
   <i type="logical" name="LSCALAPACK"> F  </i>
   <i type="logical" name="LSCAAWARE"> F  </i>
   <i type="logical" name="LSCALU"> F  </i>
   <i type="logical" name="LASYNC"> F  </i>
   <i type="logical" name="LORBITALREAL"> F  </i>
  </separator>
  <separator name="miscellaneous" >
   <i type="int" name="IDIOT">     3</i>
   <i type="logical" name="LMUSIC"> F  </i>
   <v name="POMASS">    180.94800000</v>
   <v name="DARWINR">      0.00000000</v>
   <v name="DARWINV">      1.00000000</v>
   <i type="logical" name="LCORR"> T  </i>
  </separator>
  <i type="logical" name="GGA_COMPAT"> T  </i>
  <i type="logical" name="LBERRY"> F  </i>
  <i type="int" name="ICORELEVEL">     0</i>
  <i type="logical" name="LDAU"> F  </i>
  <i type="int" name="I_CONSTRAINED_M">     0</i>
  <separator name="electronic exchange-correlation" >
   <i type="string" name="GGA">--</i>
   <i type="int" name="VOSKOWN">     0</i>
   <i type="logical" name="LHFCALC"> F  </i>
   <i type="string" name="PRECFOCK"></i>
   <i type="logical" name="LHFONE"> F  </i>
   <i type="logical" name="LRHFCALC"> F  </i>
   <i type="logical" name="LTHOMAS"> F  </i>
   <i type="logical" name="LMODELHF"> F  </i>
   <i name="ENCUT4O">     -1.00000000</i>
   <i type="int" name="EXXOEP">     0</i>
   <i type="int" name="FOURORBIT">     0</i>
   <i name="AEXX">      0.00000000</i>
   <i name="HFALPHA">      0.00000000</i>
   <i name="ALDAX">      1.00000000</i>
   <i name="AGGAX">      1.00000000</i>
   <i name="ALDAC">      1.00000000</i>
   <i name="AGGAC">      1.00000000</i>
   <i type="int" name="NKREDX">     1</i>
   <i type="int" name="NKREDY">     1</i>
   <i type="int" name="NKREDZ">     1</i>
   <i type="logical" name="SHIFTRED"> F  </i>
   <i type="logical" name="ODDONLY"> F  </i>
   <i type="logical" name="EVENONLY"> F  </i>
   <i type="int" name="LMAXFOCK">     0</i>
   <i type="int" name="NMAXFOCKAE">     0</i>
   <i type="logical" name="LFOCKAEDFT"> F  </i>
   <i name="HFSCREEN">      0.00000000</i>
   <i name="HFSCREENC">      0.00000000</i>
  </separator>
  <separator name="vdW DFT" >
   <i type="logical" name="LUSE_VDW"> F  </i>
   <i name="Zab_VDW">     -0.84910000</i>
   <i name="PARAM1">      0.12340000</i>
   <i name="PARAM2">      1.00000000</i>
   <i name="PARAM3">      0.00000000</i>
  </separator>
  <separator name="model GW" >
   <i type="int" name="MODEL_GW">     0</i>
   <i name="MODEL_EPS0">     10.56674955</i>
   <i name="MODEL_ALPHA">      1.00000000</i>
  </separator>
  <separator name="linear response parameters" >
   <i type="logical" name="LEPSILON"> F  </i>
   <i type="logical" name="LRPA"> F  </i>
   <i type="logical" name="LNABLA"> F  </i>
   <i type="logical" name="LVEL"> F  </i>
   <i type="int" name="KINTER">     0</i>
   <i name="CSHIFT">      0.10000000</i>
   <i name="OMEGAMAX">     -1.00000000</i>
  </separator>
  <separator name="orbital magnetization" >
   <i type="logical" name="NUCIND"> F  </i>
   <v name="MAGPOS">      0.00000000      0.00000000      0.00000000</v>
   <i type="logical" name="LNICSALL"> T  </i>
   <i type="logical" name="ORBITALMAG"> F  </i>
   <i type="logical" name="LMAGBLOCH"> F  </i>
   <i type="logical" name="LCHIMAG"> F  </i>
   <i type="logical" name="LGAUGE"> T  </i>
   <i type="int" name="MAGATOM">     0</i>
   <v name="MAGDIPOL">      0.00000000      0.00000000      0.00000000</v>
   <v name="AVECCONST">      0.00000000      0.00000000      0.00000000</v>
  </separator>
  <separator name="response functions" >
   <i type="logical" name="LADDER"> F  </i>
   <i type="logical" name="LHARTREE"> T  </i>
   <i type="int" name="IBSE">     0</i>
   <i type="logical" name="LTCTE"> F  </i>
   <i type="logical" name="LTETE"> F  </i>
   <i type="logical" name="LFXCEPS"> F  </i>
   <i type="logical" name="L2ORDER"> F  </i>
   <i type="logical" name="LUSEW"> F  </i>
   <i name="ENCUTGW">     -2.00000000</i>
   <i name="ENCUTGWSOFT">     -2.00000000</i>
   <i name="ENCUTLF">     -1.00000000</i>
   <i type="int" name="LMAXMP2">    -1</i>
   <i name="SCISSOR">      0.00000000</i>
   <i type="int" name="NOMEGA">     0</i>
   <i type="int" name="NOMEGAR">     0</i>
   <i type="int" name="NBANDSGW">    -1</i>
   <i type="int" name="NBANDSO">    -1</i>
   <i type="int" name="NBANDSV">    -1</i>
   <i name="OPTEMAX">      0.00000000</i>
   <i type="int" name="NELM">     1</i>
   <i type="int" name="DIM">     3</i>
   <i type="int" name="ANTIRES">     0</i>
   <i name="OMEGAMAX">    -30.00000000</i>
   <i name="OMEGATL">   -200.00000000</i>
   <i type="int" name="OMEGAGRID">     0</i>
   <i name="CSHIFT">     -0.10000000</i>
   <i type="logical" name="SELFENERGY"> F  </i>
   <i type="logical" name="LSPECTRAL"> F  </i>
   <i type="logical" name="ODDONLYGW"> F  </i>
   <i type="logical" name="EVENONLYGW"> F  </i>
   <i type="int" name="NKREDLFX">     1</i>
   <i type="int" name="NKREDLFY">     1</i>
   <i type="int" name="NKREDLFZ">     1</i>
   <i type="int" name="MAXMEM">  1800</i>
   <i type="int" name="TELESCOPE">     0</i>
  </separator>
 </parameters>
 <atominfo>
  <atoms>       1 </atoms>
  <types>       1 </types>
  <array name="atoms" >
   <dimension dim="1">ion</dimension>
   <field type="string">element</field>
   <field type="int">atomtype</field>
   <set>
    <rc><c>Ta</c><c>   1</c></rc>
   </set>
  </array>
  <array name="atomtypes" >
   <dimension dim="1">type</dimension>
   <field type="int">atomspertype</field>
   <field type="string">element</field>
   <field>mass</field>
   <field>valence</field>
   <field type="string">pseudopotential</field>
   <set>
    <rc><c>   1</c><c>Ta</c><c>    180.94800000</c><c>      5.00000000</c><c>  PAW_PBE Ta 17Jan2003                  </c></rc>
   </set>
  </array>
 </atominfo>
 <structure name="initialpos" >
  <crystal>
   <varray name="basis" >
    <v>       0.00000000       2.06500000       2.06500000 </v>
    <v>       2.06500000       0.00000000       2.06500000 </v>
    <v>       2.06500000       2.06500000       0.00000000 </v>
   </varray>
   <i name="volume">     17.61124925 </i>
   <varray name="rec_basis" >
    <v>      -0.24213075       0.24213075       0.24213075 </v>
    <v>       0.24213075      -0.24213075       0.24213075 </v>
    <v>       0.24213075       0.24213075      -0.24213075 </v>
   </varray>
  </crystal>
  <varray name="positions" >
   <v>       0.00000000       0.00000000       0.00000000 </v>
  </varray>
 </structure>
 <calculation>
  <scstep>
   <time name="dav">    0.62    0.62</time>
   <time name="total">    0.71    0.72</time>
   <energy>
    <i name="alphaZ">     31.48826594 </i>
    <i name="ewald">   -199.82154373 </i>
    <i name="hartreedc">     -2.37721154 </i>
    <i name="XCdc">    -60.66909829 </i>
    <i name="pawpsdc">    143.51874798 </i>
    <i name="pawaedc">    -69.33493833 </i>
    <i name="eentropy">     -0.00037054 </i>
    <i name="bandstr">     28.27718763 </i>
    <i name="atom">    130.57950032 </i>
    <i name="e_fr_energy">      1.66053945 </i>
    <i name="e_wo_entrp">      1.66090999 </i>
    <i name="e_0_energy">      1.66066297 </i>
   </energy>
  </scstep>
  <scstep>
   <time name="dav">    0.61    0.61</time>
   <time name="total">    0.62    0.64</time>
   <energy>
    <i name="e_fr_energy">     -1.91542873 </i>
    <i name="e_wo_entrp">     -1.91600031 </i>
    <i name="e_0_energy">     -1.91561926 </i>
   </energy>
  </scstep>
  <scstep>
   <time name="dav">    0.72    0.72</time>
   <time name="total">    0.72    0.75</time>
   <energy>
    <i name="e_fr_energy">     -1.93950430 </i>
    <i name="e_wo_entrp">     -1.93990258 </i>
    <i name="e_0_energy">     -1.93963706 </i>
   </energy>
  </scstep>
  <scstep>
   <time name="dav">    0.62    0.62</time>
   <time name="total">    0.63    0.64</time>
   <energy>
    <i name="e_fr_energy">     -1.93951117 </i>
    <i name="e_wo_entrp">     -1.93990944 </i>
    <i name="e_0_energy">     -1.93964393 </i>
   </energy>
  </scstep>
  <scstep>
   <time name="dav">    0.69    0.69</time>
   <time name="total">    0.74    0.76</time>
   <energy>
    <i name="e_fr_energy">     -1.93951118 </i>
    <i name="e_wo_entrp">     -1.93990945 </i>
    <i name="e_0_energy">     -1.93964394 </i>
   </energy>
  </scstep>
  <scstep>
   <time name="dav">    0.63    0.63</time>
   <time name="total">    0.77    0.80</time>
   <energy>
    <i name="e_fr_energy">    -11.30108032 </i>
    <i name="e_wo_entrp">    -11.30135589 </i>
    <i name="e_0_energy">    -11.30117218 </i>
   </energy>
  </scstep>
  <scstep>
   <time name="dav">    0.65    0.65</time>
   <time name="total">    0.79    0.81</time>
   <energy>
    <i name="e_fr_energy">    -11.46410319 </i>
    <i name="e_wo_entrp">    -11.46412899 </i>
    <i name="e_0_energy">    -11.46411179 </i>
   </energy>
  </scstep>
  <scstep>
   <time name="dav">    0.60    0.60</time>
   <time name="total">    0.74    0.77</time>
   <energy>
    <i name="e_fr_energy">    -11.29581929 </i>
    <i name="e_wo_entrp">    -11.29596203 </i>
    <i name="e_0_energy">    -11.29586687 </i>
   </energy>
  </scstep>
  <scstep>
   <time name="dav">    0.57    0.57</time>
   <time name="total">    0.72    0.73</time>
   <energy>
    <i name="e_fr_energy">    -11.54885207 </i>
    <i name="e_wo_entrp">    -11.54883514 </i>
    <i name="e_0_energy">    -11.54884643 </i>
   </energy>
  </scstep>
  <scstep>
   <time name="dav">    0.58    0.58</time>
   <time name="total">    0.72    0.75</time>
   <energy>
    <i name="e_fr_energy">    -11.58418982 </i>
    <i name="e_wo_entrp">    -11.58324211 </i>
    <i name="e_0_energy">    -11.58387392 </i>
   </energy>
  </scstep>
  <scstep>
   <time name="dav">    0.60    0.60</time>
   <time name="total">    0.74    0.77</time>
   <energy>
    <i name="e_fr_energy">    -11.58468974 </i>
    <i name="e_wo_entrp">    -11.58365330 </i>
    <i name="e_0_energy">    -11.58434426 </i>
   </energy>
  </scstep>
  <scstep>
   <time name="dav">    0.57    0.58</time>
   <time name="total">    0.67    0.71</time>
   <energy>
    <i name="alphaZ">     31.48826594 </i>
    <i name="ewald">   -199.82154373 </i>
    <i name="hartreedc">     -0.56338915 </i>
    <i name="XCdc">    -65.87871145 </i>
    <i name="pawpsdc">    197.62391105 </i>
    <i name="pawaedc">   -124.30931336 </i>
    <i name="eentropy">     -0.00103460 </i>
    <i name="bandstr">     19.29754492 </i>
    <i name="atom">    130.57950032 </i>
    <i name="e_fr_energy">    -11.58477004 </i>
    <i name="e_wo_entrp">    -11.58373544 </i>
    <i name="e_0_energy">    -11.58442518 </i>
   </energy>
  </scstep>
  <parameters_embedded>
   <separator name="dft+d2" >
    <i type="logical" name="LVDW"> F  </i>
   </separator>
  </parameters_embedded>
  <structure>
   <crystal>
    <varray name="basis" >
     <v>       0.00000000       2.06500000       2.06500000 </v>
     <v>       2.06500000       0.00000000       2.06500000 </v>
     <v>       2.06500000       2.06500000       0.00000000 </v>
    </varray>
    <i name="volume">     17.61124925 </i>
    <varray name="rec_basis" >
     <v>      -0.24213075       0.24213075       0.24213075 </v>
     <v>       0.24213075      -0.24213075       0.24213075 </v>
     <v>       0.24213075       0.24213075      -0.24213075 </v>
    </varray>
   </crystal>
   <varray name="positions" >
    <v>       0.00000000       0.00000000       0.00000000 </v>
   </varray>
  </structure>
  <varray name="forces" >
   <v>       0.00000000       0.00000000       0.00000000 </v>
  </varray>
  <varray name="stress" >
   <v>      96.40095513       0.00000000       0.00000000 </v>
   <v>       0.00000000      96.40095513       0.00000000 </v>
   <v>       0.00000000       0.00000000      96.40095513 </v>
  </varray>
  <energy>
   <i name="e_fr_energy">    -11.58477004 </i>
   <i name="e_wo_entrp">    -11.58442518 </i>
   <i name="e_0_energy">     -0.00103460 </i>
  </energy>
  <time name="totalsc">    9.20    9.53</time>
  <eigenvalues>
   <array>
    <dimension dim="1">band</dimension>
    <dimension dim="2">kpoint</dimension>
    <dimension dim="3">spin</dimension>
    <field>eigene</field>
    <field>occ</field>
    <set>
     <set comment="spin 1">
      <set comment="kpoint 1">
       <r>   -1.7549    1.0000 </r>
       <r>    6.5340    0.0000 </r>
       <r>    6.9266    0.0000 </r>
       <r>    6.9266    0.0000 </r>
       <r>    9.9060    0.0000 </r>
       <r>    9.9060    0.0000 </r>
       <r>   19.6039    0.0000 </r>
       <r>   20.1560    0.0000 </r>
       <r>   22.8510    0.0000 </r>
      </set>
      <set comment="kpoint 2">
       <r>   -0.3584    1.0000 </r>
       <r>    5.6153    1.0000 </r>
       <r>    7.2155    0.0000 </r>
       <r>    7.4803    0.0000 </r>
       <r>    9.0458    0.0000 </r>
       <r>   10.4417    0.0000 </r>
       <r>   20.1527    0.0000 </r>
       <r>   20.5714    0.0000 </r>
       <r>   22.4604    0.0000 </r>
      </set>
      <set comment="kpoint 3">
       <r>    1.4726    1.0000 </r>
       <r>    5.8381    1.0000 </r>
       <r>    6.5404    0.0000 </r>
       <r>    7.0069    0.0000 </r>
       <r>   10.7595    0.0000 </r>
       <r>   12.4117    0.0000 </r>
       <r>   18.2016    0.0000 </r>
       <r>   20.1596    0.0000 </r>
       <r>   21.2682    0.0000 </r>
      </set>
      <set comment="kpoint 4">
       <r>    1.7226    1.0000 </r>
       <r>    6.0036    1.0000 </r>
       <r>    6.7807    0.0000 </r>
       <r>    7.0514    0.0000 </r>
       <r>   12.6334    0.0000 </r>
       <r>   12.8178    0.0000 </r>
       <r>   17.0791    0.0000 </r>
       <r>   19.2980    0.0000 </r>
       <r>   20.1664    0.0000 </r>
      </set>
      <set comment="kpoint 5">
       <r>    1.0258    1.0000 </r>
       <r>    5.3885    1.0000 </r>
       <r>    6.7458    0.0000 </r>
       <r>    7.3038    0.0000 </r>
       <r>   10.3169    0.0000 </r>
       <r>   11.4155    0.0000 </r>
       <r>   18.8805    0.0000 </r>
       <r>   20.1617    0.0000 </r>
       <r>   22.8883    0.0000 </r>
      </set>
      <set comment="kpoint 6">
       <r>   -1.0153    1.0000 </r>
       <r>    5.8653    1.0000 </r>
       <r>    7.2941    0.0000 </r>
       <r>    7.3240    0.0000 </r>
       <r>    9.0329    0.0000 </r>
       <r>   10.2636    0.0000 </r>
       <r>   20.1561    0.0000 </r>
       <r>   20.9909    0.0000 </r>
       <r>   22.0641    0.0000 </r>
      </set>
      <set comment="kpoint 7">
       <r>    0.2800    1.0000 </r>
       <r>    4.8778    1.0000 </r>
       <r>    7.2458    0.0000 </r>
       <r>    8.1332    0.0000 </r>
       <r>    8.7317    0.0000 </r>
       <r>   10.9167    0.0000 </r>
       <r>   20.1579    0.0000 </r>
       <r>   21.9620    0.0000 </r>
       <r>   23.6776    0.0000 </r>
      </set>
      <set comment="kpoint 8">
       <r>    2.0754    1.0000 </r>
       <r>    4.3270    1.0000 </r>
       <r>    5.9224    1.0000 </r>
       <r>    8.7773    0.0000 </r>
       <r>   10.2835    0.0000 </r>
       <r>   12.7330    0.0000 </r>
       <r>   20.0600    0.0000 </r>
       <r>   20.2517    0.0000 </r>
       <r>   23.2315    0.0000 </r>
      </set>
      <set comment="kpoint 9">
       <r>    2.9958    1.0000 </r>
       <r>    4.5143    1.0000 </r>
       <r>    6.1106    1.0000 </r>
       <r>    8.1065    0.0000 </r>
       <r>   12.1389    0.0000 </r>
       <r>   14.7360    0.0000 </r>
       <r>   16.1562    0.0000 </r>
       <r>   20.1656    0.0000 </r>
       <r>   22.0218    0.0000 </r>
      </set>
      <set comment="kpoint 10">
       <r>    2.8164    1.0000 </r>
       <r>    4.9328    1.0000 </r>
       <r>    5.3178    1.0000 </r>
       <r>    8.2550    0.0000 </r>
       <r>   10.2828    0.0000 </r>
       <r>   13.9742    0.0000 </r>
       <r>   18.7956    0.0000 </r>
       <r>   20.1704    0.0000 </r>
       <r>   22.6228    0.0000 </r>
      </set>
      <set comment="kpoint 11">
       <r>    0.8111    1.0000 </r>
       <r>    5.0235    1.0000 </r>
       <r>    6.7304    0.0000 </r>
       <r>    7.9619    0.0000 </r>
       <r>    9.0914    0.0000 </r>
       <r>   11.5016    0.0000 </r>
       <r>   20.1485    0.0000 </r>
       <r>   20.5233    0.0000 </r>
       <r>   23.9648    0.0000 </r>
      </set>
      <set comment="kpoint 12">
       <r>    1.9563    1.0000 </r>
       <r>    3.2380    1.0000 </r>
       <r>    7.3683    0.0000 </r>
       <r>   10.7188    0.0000 </r>
       <r>   11.8776    0.0000 </r>
       <r>   12.5694    0.0000 </r>
       <r>   19.5954    0.0000 </r>
       <r>   20.1712    0.0000 </r>
       <r>   20.9763    0.0000 </r>
      </set>
      <set comment="kpoint 13">
       <r>    2.3866    1.0000 </r>
       <r>    3.4331    1.0000 </r>
       <r>    7.3698    0.0000 </r>
       <r>   10.4848    0.0000 </r>
       <r>   12.9099    0.0000 </r>
       <r>   15.2876    0.0000 </r>
       <r>   16.3696    0.0000 </r>
       <r>   19.4572    0.0000 </r>
       <r>   20.1690    0.0000 </r>
      </set>
      <set comment="kpoint 14">
       <r>    3.5434    1.0000 </r>
       <r>    4.1810    1.0000 </r>
       <r>    5.8333    1.0000 </r>
       <r>    8.8387    0.0000 </r>
       <r>   11.7627    0.0000 </r>
       <r>   14.3535    0.0000 </r>
       <r>   17.8752    0.0000 </r>
       <r>   20.1612    0.0000 </r>
       <r>   20.8453    0.0000 </r>
      </set>
      <set comment="kpoint 15">
       <r>    2.1583    1.0000 </r>
       <r>    5.4134    1.0000 </r>
       <r>    6.2751    0.6230 </r>
       <r>    7.3458    0.0000 </r>
       <r>   11.6554    0.0000 </r>
       <r>   13.4944    0.0000 </r>
       <r>   17.4974    0.0000 </r>
       <r>   20.1653    0.0000 </r>
       <r>   20.7646    0.0000 </r>
      </set>
      <set comment="kpoint 16">
       <r>    1.7856    1.0000 </r>
       <r>    2.8712    1.0000 </r>
       <r>    8.7812    0.0000 </r>
       <r>   11.8814    0.0000 </r>
       <r>   13.1271    0.0000 </r>
       <r>   13.7097    0.0000 </r>
       <r>   17.3281    0.0000 </r>
       <r>   18.9814    0.0000 </r>
       <r>   20.1411    0.0000 </r>
      </set>
      <set comment="kpoint 17">
       <r>    2.5569    1.0000 </r>
       <r>    3.7434    1.0000 </r>
       <r>    6.2515    0.9290 </r>
       <r>    9.8628    0.0000 </r>
       <r>   11.8554    0.0000 </r>
       <r>   13.8865    0.0000 </r>
       <r>   18.0886    0.0000 </r>
       <r>   20.1668    0.0000 </r>
       <r>   21.2115    0.0000 </r>
      </set>
      <set comment="kpoint 18">
       <r>    1.5711    1.0000 </r>
       <r>    3.9398    1.0000 </r>
       <r>    6.5923    0.0000 </r>
       <r>    9.2957    0.0000 </r>
       <r>   10.0474    0.0000 </r>
       <r>   11.7667    0.0000 </r>
       <r>   20.1574    0.0000 </r>
       <r>   22.0107    0.0000 </r>
       <r>   23.6170    0.0000 </r>
      </set>
      <set comment="kpoint 19">
       <r>    0.1371    1.0000 </r>
       <r>    5.6021    1.0000 </r>
       <r>    7.2087    0.0000 </r>
       <r>    7.2087    0.0000 </r>
       <r>   10.0970    0.0000 </r>
       <r>   10.0970    0.0000 </r>
       <r>   19.1469    0.0000 </r>
       <r>   20.1609    0.0000 </r>
       <r>   23.3117    0.0000 </r>
      </set>
      <set comment="kpoint 20">
       <r>    1.7370    1.0000 </r>
       <r>    5.1234    1.0000 </r>
       <r>    6.1691    1.0031 </r>
       <r>    7.8213    0.0000 </r>
       <r>    9.2952    0.0000 </r>
       <r>   12.8239    0.0000 </r>
       <r>   19.8258    0.0000 </r>
       <r>   20.1829    0.0000 </r>
       <r>   22.8579    0.0000 </r>
      </set>
      <set comment="kpoint 21">
       <r>    3.3746    1.0000 </r>
       <r>    4.6161    1.0000 </r>
       <r>    5.6325    1.0000 </r>
       <r>    8.2902    0.0000 </r>
       <r>   10.7975    0.0000 </r>
       <r>   14.1209    0.0000 </r>
       <r>   18.4370    0.0000 </r>
       <r>   20.1681    0.0000 </r>
       <r>   21.7275    0.0000 </r>
      </set>
      <set comment="kpoint 22">
       <r>    2.7321    1.0000 </r>
       <r>    4.1883    1.0000 </r>
       <r>    6.1272    1.0001 </r>
       <r>    8.7663    0.0000 </r>
       <r>   12.8429    0.0000 </r>
       <r>   13.8363    0.0000 </r>
       <r>   16.6308    0.0000 </r>
       <r>   20.1659    0.0000 </r>
       <r>   22.4759    0.0000 </r>
      </set>
      <set comment="kpoint 23">
       <r>    2.0605    1.0000 </r>
       <r>    4.8816    1.0000 </r>
       <r>    6.0255    1.0000 </r>
       <r>    7.8389    0.0000 </r>
       <r>   11.6984    0.0000 </r>
       <r>   12.5056    0.0000 </r>
       <r>   18.5863    0.0000 </r>
       <r>   20.1666    0.0000 </r>
       <r>   21.8007    0.0000 </r>
      </set>
      <set comment="kpoint 24">
       <r>    3.5301    1.0000 </r>
       <r>    4.3508    1.0000 </r>
       <r>    5.1982    1.0000 </r>
       <r>    8.9689    0.0000 </r>
       <r>   11.6250    0.0000 </r>
       <r>   14.7092    0.0000 </r>
       <r>   17.7090    0.0000 </r>
       <r>   20.1658    0.0000 </r>
       <r>   21.0550    0.0000 </r>
      </set>
      <set comment="kpoint 25">
       <r>    3.2736    1.0000 </r>
       <r>    4.3716    1.0000 </r>
       <r>    5.7551    1.0000 </r>
       <r>    8.9076    0.0000 </r>
       <r>   12.8036    0.0000 </r>
       <r>   16.0676    0.0000 </r>
       <r>   16.7406    0.0000 </r>
       <r>   19.3157    0.0000 </r>
       <r>   20.1723    0.0000 </r>
      </set>
      <set comment="kpoint 26">
       <r>    2.7699    1.0000 </r>
       <r>    3.8664    1.0000 </r>
       <r>    6.7748    0.0000 </r>
       <r>    9.7584    0.0000 </r>
       <r>   12.3395    0.0000 </r>
       <r>   14.4204    0.0000 </r>
       <r>   16.8235    0.0000 </r>
       <r>   20.1591    0.0000 </r>
       <r>   21.1733    0.0000 </r>
      </set>
      <set comment="kpoint 27">
       <r>    1.3945    1.0000 </r>
       <r>    6.6310    0.0000 </r>
       <r>    6.6310    0.0000 </r>
       <r>    6.7080    0.0000 </r>
       <r>   12.1244    0.0000 </r>
       <r>   12.1244    0.0000 </r>
       <r>   17.4246    0.0000 </r>
       <r>   19.6928    0.0000 </r>
       <r>   20.1754    0.0000 </r>
      </set>
      <set comment="kpoint 28">
       <r>    2.4614    1.0000 </r>
       <r>    5.1454    1.0000 </r>
       <r>    6.5489    0.0000 </r>
       <r>    7.4165    0.0000 </r>
       <r>   11.9599    0.0000 </r>
       <r>   14.0204    0.0000 </r>
       <r>   16.7661    0.0000 </r>
       <r>   20.1668    0.0000 </r>
       <r>   20.9781    0.0000 </r>
      </set>
     </set>
     <set comment="spin 2">
      <set comment="kpoint 1">
       <r>   -1.7376    1.0000 </r>
       <r>    6.5503    0.0000 </r>
       <r>    6.9429    0.0000 </r>
       <r>    6.9429    0.0000 </r>
       <r>    9.9196    0.0000 </r>
       <r>    9.9196    0.0000 </r>
       <r>   19.6186    0.0000 </r>
       <r>   20.1737    0.0000 </r>
       <r>   22.8702    0.0000 </r>
      </set>
      <set comment="kpoint 2">
       <r>   -0.3412    1.0000 </r>
       <r>    5.6314    1.0000 </r>
       <r>    7.2315    0.0000 </r>
       <r>    7.4963    0.0000 </r>
       <r>    9.0601    0.0000 </r>
       <r>   10.4554    0.0000 </r>
       <r>   20.1702    0.0000 </r>
       <r>   20.5894    0.0000 </r>
       <r>   22.4751    0.0000 </r>
      </set>
      <set comment="kpoint 3">
       <r>    1.4893    1.0000 </r>
       <r>    5.8543    1.0000 </r>
       <r>    6.5562    0.0000 </r>
       <r>    7.0225    0.0000 </r>
       <r>   10.7738    0.0000 </r>
       <r>   12.4250    0.0000 </r>
       <r>   18.2183    0.0000 </r>
       <r>   20.1773    0.0000 </r>
       <r>   21.2832    0.0000 </r>
      </set>
      <set comment="kpoint 4">
       <r>    1.7392    1.0000 </r>
       <r>    6.0197    1.0000 </r>
       <r>    6.7963    0.0000 </r>
       <r>    7.0674    0.0000 </r>
       <r>   12.6464    0.0000 </r>
       <r>   12.8313    0.0000 </r>
       <r>   17.0933    0.0000 </r>
       <r>   19.3149    0.0000 </r>
       <r>   20.1843    0.0000 </r>
      </set>
      <set comment="kpoint 5">
       <r>    1.0427    1.0000 </r>
       <r>    5.4046    1.0000 </r>
       <r>    6.7615    0.0000 </r>
       <r>    7.3194    0.0000 </r>
       <r>   10.3315    0.0000 </r>
       <r>   11.4292    0.0000 </r>
       <r>   18.8980    0.0000 </r>
       <r>   20.1795    0.0000 </r>
       <r>   22.9021    0.0000 </r>
      </set>
      <set comment="kpoint 6">
       <r>   -0.9980    1.0000 </r>
       <r>    5.8815    1.0000 </r>
       <r>    7.3102    0.0000 </r>
       <r>    7.3401    0.0000 </r>
       <r>    9.0471    0.0000 </r>
       <r>   10.2770    0.0000 </r>
       <r>   20.1738    0.0000 </r>
       <r>   21.0061    0.0000 </r>
       <r>   22.0819    0.0000 </r>
      </set>
      <set comment="kpoint 7">
       <r>    0.2971    1.0000 </r>
       <r>    4.8940    1.0000 </r>
       <r>    7.2612    0.0000 </r>
       <r>    8.1491    0.0000 </r>
       <r>    8.7471    0.0000 </r>
       <r>   10.9299    0.0000 </r>
       <r>   20.1756    0.0000 </r>
       <r>   21.9795    0.0000 </r>
       <r>   23.6917    0.0000 </r>
      </set>
      <set comment="kpoint 8">
       <r>    2.0923    1.0000 </r>
       <r>    4.3430    1.0000 </r>
       <r>    5.9382    1.0000 </r>
       <r>    8.7925    0.0000 </r>
       <r>   10.2985    0.0000 </r>
       <r>   12.7461    0.0000 </r>
       <r>   20.0758    0.0000 </r>
       <r>   20.2699    0.0000 </r>
       <r>   23.2479    0.0000 </r>
      </set>
      <set comment="kpoint 9">
       <r>    3.0121    1.0000 </r>
       <r>    4.5307    1.0000 </r>
       <r>    6.1262    1.0000 </r>
       <r>    8.1215    0.0000 </r>
       <r>   12.1529    0.0000 </r>
       <r>   14.7504    0.0000 </r>
       <r>   16.1709    0.0000 </r>
       <r>   20.1834    0.0000 </r>
       <r>   22.0378    0.0000 </r>
      </set>
      <set comment="kpoint 10">
       <r>    2.8330    1.0000 </r>
       <r>    4.9489    1.0000 </r>
       <r>    5.3338    1.0000 </r>
       <r>    8.2699    0.0000 </r>
       <r>   10.2978    0.0000 </r>
       <r>   13.9874    0.0000 </r>
       <r>   18.8114    0.0000 </r>
       <r>   20.1883    0.0000 </r>
       <r>   22.6396    0.0000 </r>
      </set>
      <set comment="kpoint 11">
       <r>    0.8281    1.0000 </r>
       <r>    5.0396    1.0000 </r>
       <r>    6.7462    0.0000 </r>
       <r>    7.9774    0.0000 </r>
       <r>    9.1064    0.0000 </r>
       <r>   11.5151    0.0000 </r>
       <r>   20.1659    0.0000 </r>
       <r>   20.5409    0.0000 </r>
       <r>   23.9789    0.0000 </r>
      </set>
      <set comment="kpoint 12">
       <r>    1.9734    1.0000 </r>
       <r>    3.2540    1.0000 </r>
       <r>    7.3837    0.0000 </r>
       <r>   10.7334    0.0000 </r>
       <r>   11.8924    0.0000 </r>
       <r>   12.5822    0.0000 </r>
       <r>   19.6115    0.0000 </r>
       <r>   20.1891    0.0000 </r>
       <r>   20.9934    0.0000 </r>
      </set>
      <set comment="kpoint 13">
       <r>    2.4035    1.0000 </r>
       <r>    3.4490    1.0000 </r>
       <r>    7.3850    0.0000 </r>
       <r>   10.4990    0.0000 </r>
       <r>   12.9237    0.0000 </r>
       <r>   15.3016    0.0000 </r>
       <r>   16.3859    0.0000 </r>
       <r>   19.4735    0.0000 </r>
       <r>   20.1868    0.0000 </r>
      </set>
      <set comment="kpoint 14">
       <r>    3.5598    1.0000 </r>
       <r>    4.1972    1.0000 </r>
       <r>    5.8487    1.0000 </r>
       <r>    8.8534    0.0000 </r>
       <r>   11.7772    0.0000 </r>
       <r>   14.3694    0.0000 </r>
       <r>   17.8891    0.0000 </r>
       <r>   20.1789    0.0000 </r>
       <r>   20.8596    0.0000 </r>
      </set>
      <set comment="kpoint 15">
       <r>    2.1748    1.0000 </r>
       <r>    5.4297    1.0000 </r>
       <r>    6.2909    0.3605 </r>
       <r>    7.3612    0.0000 </r>
       <r>   11.6694    0.0000 </r>
       <r>   13.5077    0.0000 </r>
       <r>   17.5125    0.0000 </r>
       <r>   20.1831    0.0000 </r>
       <r>   20.7812    0.0000 </r>
      </set>
      <set comment="kpoint 16">
       <r>    1.8027    1.0000 </r>
       <r>    2.8873    1.0000 </r>
       <r>    8.7963    0.0000 </r>
       <r>   11.8945    0.0000 </r>
       <r>   13.1403    0.0000 </r>
       <r>   13.7235    0.0000 </r>
       <r>   17.3453    0.0000 </r>
       <r>   18.9992    0.0000 </r>
       <r>   20.1550    0.0000 </r>
      </set>
      <set comment="kpoint 17">
       <r>    2.5737    1.0000 </r>
       <r>    3.7594    1.0000 </r>
       <r>    6.2671    0.7477 </r>
       <r>    9.8773    0.0000 </r>
       <r>   11.8698    0.0000 </r>
       <r>   13.8999    0.0000 </r>
       <r>   18.1046    0.0000 </r>
       <r>   20.1846    0.0000 </r>
       <r>   21.2281    0.0000 </r>
      </set>
      <set comment="kpoint 18">
       <r>    1.5881    1.0000 </r>
       <r>    3.9559    1.0000 </r>
       <r>    6.6077    0.0000 </r>
       <r>    9.3111    0.0000 </r>
       <r>   10.0628    0.0000 </r>
       <r>   11.7796    0.0000 </r>
       <r>   20.1750    0.0000 </r>
       <r>   22.0273    0.0000 </r>
       <r>   23.6338    0.0000 </r>
      </set>
      <set comment="kpoint 19">
       <r>    0.1542    1.0000 </r>
       <r>    5.6182    1.0000 </r>
       <r>    7.2245    0.0000 </r>
       <r>    7.2245    0.0000 </r>
       <r>   10.1112    0.0000 </r>
       <r>   10.1112    0.0000 </r>
       <r>   19.1649    0.0000 </r>
       <r>   20.1787    0.0000 </r>
       <r>   23.3252    0.0000 </r>
      </set>
      <set comment="kpoint 20">
       <r>    1.7538    1.0000 </r>
       <r>    5.1393    1.0000 </r>
       <r>    6.1852    1.0095 </r>
       <r>    7.8364    0.0000 </r>
       <r>    9.3104    0.0000 </r>
       <r>   12.8372    0.0000 </r>
       <r>   19.8419    0.0000 </r>
       <r>   20.2011    0.0000 </r>
       <r>   22.8745    0.0000 </r>
      </set>
      <set comment="kpoint 21">
       <r>    3.3909    1.0000 </r>
       <r>    4.6326    1.0000 </r>
       <r>    5.6481    1.0000 </r>
       <r>    8.3049    0.0000 </r>
       <r>   10.8123    0.0000 </r>
       <r>   14.1357    0.0000 </r>
       <r>   18.4517    0.0000 </r>
       <r>   20.1860    0.0000 </r>
       <r>   21.7414    0.0000 </r>
      </set>
      <set comment="kpoint 22">
       <r>    2.7488    1.0000 </r>
       <r>    4.2044    1.0000 </r>
       <r>    6.1428    1.0003 </r>
       <r>    8.7813    0.0000 </r>
       <r>   12.8560    0.0000 </r>
       <r>   13.8513    0.0000 </r>
       <r>   16.6461    0.0000 </r>
       <r>   20.1837    0.0000 </r>
       <r>   22.4891    0.0000 </r>
      </set>
      <set comment="kpoint 23">
       <r>    2.0772    1.0000 </r>
       <r>    4.8977    1.0000 </r>
       <r>    6.0412    1.0000 </r>
       <r>    7.8543    0.0000 </r>
       <r>   11.7130    0.0000 </r>
       <r>   12.5186    0.0000 </r>
       <r>   18.6020    0.0000 </r>
       <r>   20.1844    0.0000 </r>
       <r>   21.8167    0.0000 </r>
      </set>
      <set comment="kpoint 24">
       <r>    3.5467    1.0000 </r>
       <r>    4.3669    1.0000 </r>
       <r>    5.2140    1.0000 </r>
       <r>    8.9836    0.0000 </r>
       <r>   11.6396    0.0000 </r>
       <r>   14.7235    0.0000 </r>
       <r>   17.7241    0.0000 </r>
       <r>   20.1835    0.0000 </r>
       <r>   21.0702    0.0000 </r>
      </set>
      <set comment="kpoint 25">
       <r>    3.2903    1.0000 </r>
       <r>    4.3873    1.0000 </r>
       <r>    5.7706    1.0000 </r>
       <r>    8.9226    0.0000 </r>
       <r>   12.8175    0.0000 </r>
       <r>   16.0825    0.0000 </r>
       <r>   16.7560    0.0000 </r>
       <r>   19.3306    0.0000 </r>
       <r>   20.1902    0.0000 </r>
      </set>
      <set comment="kpoint 26">
       <r>    2.7866    1.0000 </r>
       <r>    3.8824    1.0000 </r>
       <r>    6.7901    0.0000 </r>
       <r>    9.7727    0.0000 </r>
       <r>   12.3533    0.0000 </r>
       <r>   14.4375    0.0000 </r>
       <r>   16.8370    0.0000 </r>
       <r>   20.1767    0.0000 </r>
       <r>   21.1871    0.0000 </r>
      </set>
      <set comment="kpoint 27">
       <r>    1.4112    1.0000 </r>
       <r>    6.6467    0.0000 </r>
       <r>    6.6467    0.0000 </r>
       <r>    6.7245    0.0000 </r>
       <r>   12.1378    0.0000 </r>
       <r>   12.1378    0.0000 </r>
       <r>   17.4405    0.0000 </r>
       <r>   19.7076    0.0000 </r>
       <r>   20.1934    0.0000 </r>
      </set>
      <set comment="kpoint 28">
       <r>    2.4778    1.0000 </r>
       <r>    5.1618    1.0000 </r>
       <r>    6.5646    0.0000 </r>
       <r>    7.4319    0.0000 </r>
       <r>   11.9737    0.0000 </r>
       <r>   14.0344    0.0000 </r>
       <r>   16.7806    0.0000 </r>
       <r>   20.1846    0.0000 </r>
       <r>   20.9946    0.0000 </r>
      </set>
     </set>
    </set>
   </array>
  </eigenvalues>
  <separator name="orbital magnetization" >
   <v name="MAGDIPOLOUT">      0.00000000      0.00000000      0.00000000</v>
  </separator>
  <dos>
   <i name="efermi">      6.28249295 </i>
   <total>
    <array>
     <dimension dim="1">gridpoints</dimension>
     <dimension dim="2">spin</dimension>
     <field>energy</field>
     <field>total</field>
     <field>integrated</field>
     <set>
      <set comment="spin 1">
       <r>    -3.0416     0.0000     0.0000 </r>
       <r>    -2.9473     0.0000     0.0000 </r>
       <r>    -2.8529     0.0000     0.0000 </r>
       <r>    -2.7586     0.0000     0.0000 </r>
       <r>    -2.6642     0.0000     0.0000 </r>
       <r>    -2.5699     0.0000     0.0000 </r>
       <r>    -2.4755     0.0000     0.0000 </r>
       <r>    -2.3811     0.0000     0.0000 </r>
       <r>    -2.2868     0.0000     0.0000 </r>
       <r>    -2.1924     0.0000     0.0000 </r>
       <r>    -2.0981     0.0000     0.0000 </r>
       <r>    -2.0037     0.0000     0.0000 </r>
       <r>    -1.9094     0.0000     0.0000 </r>
       <r>    -1.8150    -0.0035    -0.0003 </r>
       <r>    -1.7206     0.0972     0.0088 </r>
       <r>    -1.6263     0.0045     0.0093 </r>
       <r>    -1.5319    -0.0001     0.0093 </r>
       <r>    -1.4376     0.0000     0.0093 </r>
       <r>    -1.3432     0.0000     0.0093 </r>
       <r>    -1.2488     0.0000     0.0093 </r>
       <r>    -1.1545    -0.0001     0.0093 </r>
       <r>    -1.0601    -0.0031     0.0090 </r>
       <r>    -0.9658     0.3047     0.0377 </r>
       <r>    -0.8714    -0.0070     0.0370 </r>
       <r>    -0.7771    -0.0001     0.0370 </r>
       <r>    -0.6827     0.0000     0.0370 </r>
       <r>    -0.5883     0.0000     0.0370 </r>
       <r>    -0.4940    -0.0001     0.0370 </r>
       <r>    -0.3996     0.0012     0.0371 </r>
       <r>    -0.3053     0.3022     0.0657 </r>
       <r>    -0.2109    -0.0089     0.0648 </r>
       <r>    -0.1166     0.0000     0.0648 </r>
       <r>    -0.0222     0.0000     0.0648 </r>
       <r>     0.0722    -0.0034     0.0645 </r>
       <r>     0.1665     0.0922     0.0732 </r>
       <r>     0.2609     0.0687     0.0797 </r>
       <r>     0.3552     0.2431     0.1026 </r>
       <r>     0.4496    -0.0081     0.1019 </r>
       <r>     0.5439     0.0000     0.1019 </r>
       <r>     0.6383     0.0000     0.1019 </r>
       <r>     0.7327    -0.0144     0.1005 </r>
       <r>     0.8270     0.4587     0.1438 </r>
       <r>     0.9214     0.1450     0.1575 </r>
       <r>     1.0157     0.0977     0.1667 </r>
       <r>     1.1101     0.2018     0.1857 </r>
       <r>     1.2044    -0.0056     0.1852 </r>
       <r>     1.2988    -0.0010     0.1851 </r>
       <r>     1.3932     0.0409     0.1890 </r>
       <r>     1.4875     0.2716     0.2146 </r>
       <r>     1.5819     0.2817     0.2412 </r>
       <r>     1.6762     0.0790     0.2486 </r>
       <r>     1.7706     0.6707     0.3119 </r>
       <r>     1.8650     0.2305     0.3336 </r>
       <r>     1.9593     0.1551     0.3483 </r>
       <r>     2.0537     0.3478     0.3811 </r>
       <r>     2.1480     0.8880     0.4649 </r>
       <r>     2.2424     0.3834     0.5011 </r>
       <r>     2.3367    -0.0262     0.4986 </r>
       <r>     2.4311     0.6315     0.5582 </r>
       <r>     2.5255     0.3171     0.5881 </r>
       <r>     2.6198     0.5581     0.6408 </r>
       <r>     2.7142     0.0301     0.6436 </r>
       <r>     2.8085     0.7480     0.7142 </r>
       <r>     2.9029     0.6578     0.7762 </r>
       <r>     2.9972     0.3253     0.8069 </r>
       <r>     3.0916     0.2857     0.8339 </r>
       <r>     3.1860    -0.0242     0.8316 </r>
       <r>     3.2803     0.6701     0.8949 </r>
       <r>     3.3747     0.3624     0.9291 </r>
       <r>     3.4690     0.6979     0.9949 </r>
       <r>     3.5634     1.0894     1.0977 </r>
       <r>     3.6577     0.1337     1.1103 </r>
       <r>     3.7521     0.3872     1.1469 </r>
       <r>     3.8465     0.2662     1.1720 </r>
       <r>     3.9408     0.3988     1.2096 </r>
       <r>     4.0352     0.1368     1.2225 </r>
       <r>     4.1295    -0.0298     1.2197 </r>
       <r>     4.2239     0.8969     1.3043 </r>
       <r>     4.3182     0.2379     1.3268 </r>
       <r>     4.4126     1.5658     1.4745 </r>
       <r>     4.5070     0.1969     1.4931 </r>
       <r>     4.6013     0.4545     1.5360 </r>
       <r>     4.6957     0.2144     1.5562 </r>
       <r>     4.7900    -0.0157     1.5547 </r>
       <r>     4.8844     0.3368     1.5865 </r>
       <r>     4.9788     0.8569     1.6674 </r>
       <r>     5.0731     0.5788     1.7220 </r>
       <r>     5.1675     0.5889     1.7775 </r>
       <r>     5.2618     0.5928     1.8335 </r>
       <r>     5.3562     0.5740     1.8876 </r>
       <r>     5.4505     0.8918     1.9718 </r>
       <r>     5.5449    -0.0123     1.9706 </r>
       <r>     5.6393     0.5443     2.0220 </r>
       <r>     5.7336     0.2564     2.0462 </r>
       <r>     5.8280     0.8499     2.1264 </r>
       <r>     5.9223     1.1301     2.2330 </r>
       <r>     6.0167     0.5913     2.2888 </r>
       <r>     6.1110     0.6418     2.3493 </r>
       <r>     6.2054     0.7887     2.4238 </r>
       <r>     6.2998     1.1343     2.5308 </r>
       <r>     6.3941     0.0675     2.5371 </r>
       <r>     6.4885    -0.0232     2.5350 </r>
       <r>     6.5828     0.7940     2.6099 </r>
       <r>     6.6772     0.3893     2.6466 </r>
       <r>     6.7715     1.1959     2.7595 </r>
       <r>     6.8659     0.3936     2.7966 </r>
       <r>     6.9603     0.1743     2.8130 </r>
       <r>     7.0546     0.4825     2.8586 </r>
       <r>     7.1490     0.1079     2.8688 </r>
       <r>     7.2433     0.5751     2.9230 </r>
       <r>     7.3377     1.2868     3.0444 </r>
       <r>     7.4320     1.5527     3.1910 </r>
       <r>     7.5264     0.3370     3.2228 </r>
       <r>     7.6208    -0.0055     3.2222 </r>
       <r>     7.7151    -0.0020     3.2220 </r>
       <r>     7.8095     0.1168     3.2331 </r>
       <r>     7.9038     0.4697     3.2774 </r>
       <r>     7.9982     0.5718     3.3313 </r>
       <r>     8.0926     0.1849     3.3488 </r>
       <r>     8.1869     0.7206     3.4168 </r>
       <r>     8.2813     0.6230     3.4756 </r>
       <r>     8.3756     0.2654     3.5006 </r>
       <r>     8.4700    -0.0063     3.5000 </r>
       <r>     8.5643     0.0000     3.5000 </r>
       <r>     8.6587    -0.0117     3.4989 </r>
       <r>     8.7531     0.4383     3.5403 </r>
       <r>     8.8474     1.4392     3.6761 </r>
       <r>     8.9418     0.8176     3.7532 </r>
       <r>     9.0361     0.8192     3.8305 </r>
       <r>     9.1305     0.9128     3.9166 </r>
       <r>     9.2248    -0.0178     3.9150 </r>
       <r>     9.3192     0.5221     3.9642 </r>
       <r>     9.4136     0.0861     3.9723 </r>
       <r>     9.5079    -0.0012     3.9722 </r>
       <r>     9.6023     0.0000     3.9722 </r>
       <r>     9.6966    -0.0104     3.9712 </r>
       <r>     9.7910     0.2693     3.9966 </r>
       <r>     9.8853     0.5672     4.0502 </r>
       <r>     9.9797     0.2502     4.0738 </r>
       <r>    10.0741     0.2945     4.1016 </r>
       <r>    10.1684     0.1994     4.1204 </r>
       <r>    10.2628     0.3517     4.1536 </r>
       <r>    10.3571     1.4429     4.2897 </r>
       <r>    10.4515     0.1975     4.3083 </r>
       <r>    10.5458     0.6800     4.3725 </r>
       <r>    10.6402    -0.0304     4.3696 </r>
       <r>    10.7346     0.2572     4.3939 </r>
       <r>    10.8289     0.6196     4.4524 </r>
       <r>    10.9233     0.1939     4.4707 </r>
       <r>    11.0176     0.1168     4.4817 </r>
       <r>    11.1120    -0.0022     4.4815 </r>
       <r>    11.2064     0.0000     4.4815 </r>
       <r>    11.3007    -0.0008     4.4814 </r>
       <r>    11.3951     0.0518     4.4863 </r>
       <r>    11.4894     0.4289     4.5268 </r>
       <r>    11.5838     0.3991     4.5644 </r>
       <r>    11.6781     1.1476     4.6727 </r>
       <r>    11.7725     0.8890     4.7566 </r>
       <r>    11.8669     0.9036     4.8418 </r>
       <r>    11.9612     0.7660     4.9141 </r>
       <r>    12.0556     0.1099     4.9245 </r>
       <r>    12.1499     0.5880     4.9800 </r>
       <r>    12.2443     0.2126     5.0000 </r>
       <r>    12.3386     0.1339     5.0127 </r>
       <r>    12.4330     0.3981     5.0502 </r>
       <r>    12.5274     0.3007     5.0786 </r>
       <r>    12.6217     0.4425     5.1204 </r>
       <r>    12.7161     0.3250     5.1510 </r>
       <r>    12.8104     1.0429     5.2494 </r>
       <r>    12.9048     1.1589     5.3588 </r>
       <r>    12.9991     0.3276     5.3897 </r>
       <r>    13.0935     0.0062     5.3903 </r>
       <r>    13.1879     0.2900     5.4177 </r>
       <r>    13.2822    -0.0104     5.4167 </r>
       <r>    13.3766    -0.0013     5.4165 </r>
       <r>    13.4709     0.0879     5.4248 </r>
       <r>    13.5653     0.5204     5.4739 </r>
       <r>    13.6596    -0.0257     5.4715 </r>
       <r>    13.7540     0.2980     5.4996 </r>
       <r>    13.8484     0.2203     5.5204 </r>
       <r>    13.9427     0.7202     5.5884 </r>
       <r>    14.0371     0.7759     5.6616 </r>
       <r>    14.1314     0.2531     5.6855 </r>
       <r>    14.2258     0.0962     5.6946 </r>
       <r>    14.3201     0.0272     5.6971 </r>
       <r>    14.4145     0.6993     5.7631 </r>
       <r>    14.5089     0.1601     5.7782 </r>
       <r>    14.6032    -0.0081     5.7775 </r>
       <r>    14.6976     0.1966     5.7960 </r>
       <r>    14.7919     1.0162     5.8919 </r>
       <r>    14.8863    -0.0318     5.8889 </r>
       <r>    14.9807    -0.0001     5.8889 </r>
       <r>    15.0750     0.0000     5.8889 </r>
       <r>    15.1694    -0.0012     5.8888 </r>
       <r>    15.2637     0.0850     5.8968 </r>
       <r>    15.3581     0.5235     5.9462 </r>
       <r>    15.4524    -0.0185     5.9444 </r>
       <r>    15.5468     0.0000     5.9444 </r>
       <r>    15.6412     0.0000     5.9444 </r>
       <r>    15.7355     0.0000     5.9444 </r>
       <r>    15.8299     0.0000     5.9444 </r>
       <r>    15.9242    -0.0001     5.9444 </r>
       <r>    16.0186    -0.0136     5.9431 </r>
       <r>    16.1129     0.6070     6.0004 </r>
       <r>    16.2073     0.6005     6.0571 </r>
       <r>    16.3017    -0.0357     6.0537 </r>
       <r>    16.3960     0.5406     6.1047 </r>
       <r>    16.4904     0.0685     6.1112 </r>
       <r>    16.5847    -0.0053     6.1107 </r>
       <r>    16.6791     0.2792     6.1370 </r>
       <r>    16.7734     0.7510     6.2079 </r>
       <r>    16.8678     0.4514     6.2505 </r>
       <r>    16.9622    -0.0059     6.2499 </r>
       <r>    17.0565     0.0469     6.2544 </r>
       <r>    17.1509     0.2570     6.2786 </r>
       <r>    17.2452    -0.0150     6.2772 </r>
       <r>    17.3396     0.2072     6.2968 </r>
       <r>    17.4339     0.1384     6.3098 </r>
       <r>    17.5283     0.6000     6.3664 </r>
       <r>    17.6227     0.0321     6.3695 </r>
       <r>    17.7170     0.3824     6.4056 </r>
       <r>    17.8114     0.1993     6.4244 </r>
       <r>    17.9057     0.5610     6.4773 </r>
       <r>    18.0001     0.0359     6.4807 </r>
       <r>    18.0945     0.3597     6.5146 </r>
       <r>    18.1888     0.3279     6.5456 </r>
       <r>    18.2832     0.2104     6.5654 </r>
       <r>    18.3775    -0.0167     6.5638 </r>
       <r>    18.4719     0.2918     6.5914 </r>
       <r>    18.5662     0.0687     6.5979 </r>
       <r>    18.6606     0.2467     6.6211 </r>
       <r>    18.7550    -0.0043     6.6207 </r>
       <r>    18.8493     0.6237     6.6796 </r>
       <r>    18.9437     0.2728     6.7053 </r>
       <r>    19.0380     0.2870     6.7324 </r>
       <r>    19.1324     0.0165     6.7339 </r>
       <r>    19.2267     0.0562     6.7393 </r>
       <r>    19.3211     0.6132     6.7971 </r>
       <r>    19.4155     0.2921     6.8247 </r>
       <r>    19.5098     0.5935     6.8807 </r>
       <r>    19.6042     0.2274     6.9021 </r>
       <r>    19.6985     0.2153     6.9224 </r>
       <r>    19.7929     0.0539     6.9275 </r>
       <r>    19.8872     0.2878     6.9547 </r>
       <r>    19.9816    -0.0249     6.9523 </r>
       <r>    20.0760     0.2928     6.9800 </r>
       <r>    20.1703     6.3543     7.5795 </r>
       <r>    20.2647     4.4667     8.0010 </r>
       <r>    20.3590     0.0903     8.0095 </r>
       <r>    20.4534    -0.0222     8.0074 </r>
       <r>    20.5477     0.5712     8.0613 </r>
       <r>    20.6421     0.3409     8.0935 </r>
       <r>    20.7365     0.0451     8.0977 </r>
       <r>    20.8308     0.7105     8.1648 </r>
       <r>    20.9252     0.3987     8.2024 </r>
       <r>    21.0195     0.8919     8.2866 </r>
       <r>    21.1139     0.5993     8.3431 </r>
       <r>    21.2083     0.5287     8.3930 </r>
       <r>    21.3026     0.6386     8.4533 </r>
       <r>    21.3970     0.0050     8.4537 </r>
       <r>    21.4913    -0.0002     8.4537 </r>
       <r>    21.5857    -0.0001     8.4537 </r>
       <r>    21.6800    -0.0060     8.4531 </r>
       <r>    21.7744     0.3398     8.4852 </r>
       <r>    21.8688     0.2612     8.5098 </r>
       <r>    21.9631     0.1182     8.5210 </r>
       <r>    22.0575     1.1550     8.6300 </r>
       <r>    22.1518     0.1979     8.6486 </r>
       <r>    22.2462    -0.0053     8.6481 </r>
       <r>    22.3405    -0.0007     8.6481 </r>
       <r>    22.4349     0.0387     8.6517 </r>
       <r>    22.5293     0.5625     8.7048 </r>
       <r>    22.6236     0.2910     8.7323 </r>
       <r>    22.7180     0.2923     8.7598 </r>
       <r>    22.8123    -0.0163     8.7583 </r>
       <r>    22.9067     0.6449     8.8192 </r>
       <r>    23.0010     0.0531     8.8242 </r>
       <r>    23.0954    -0.0013     8.8241 </r>
       <r>    23.1898     0.0009     8.8241 </r>
       <r>    23.2841     0.6157     8.8822 </r>
       <r>    23.3785     0.0739     8.8892 </r>
       <r>    23.4728    -0.0034     8.8889 </r>
       <r>    23.5672    -0.0084     8.8881 </r>
       <r>    23.6615     0.3774     8.9237 </r>
       <r>    23.7559     0.2271     8.9451 </r>
       <r>    23.8503    -0.0090     8.9443 </r>
       <r>    23.9446     0.1117     8.9548 </r>
       <r>    24.0390     0.4955     9.0016 </r>
       <r>    24.1333    -0.0167     9.0000 </r>
       <r>    24.2277     0.0000     9.0000 </r>
       <r>    24.3221     0.0000     9.0000 </r>
       <r>    24.4164     0.0000     9.0000 </r>
       <r>    24.5108     0.0000     9.0000 </r>
       <r>    24.6051     0.0000     9.0000 </r>
       <r>    24.6995     0.0000     9.0000 </r>
       <r>    24.7938     0.0000     9.0000 </r>
       <r>    24.8882     0.0000     9.0000 </r>
       <r>    24.9826     0.0000     9.0000 </r>
       <r>    25.0769     0.0000     9.0000 </r>
       <r>    25.1713     0.0000     9.0000 </r>
       <r>    25.2656     0.0000     9.0000 </r>
      </set>
      <set comment="spin 2">
       <r>    -3.0416     0.0000     0.0000 </r>
       <r>    -2.9473     0.0000     0.0000 </r>
       <r>    -2.8529     0.0000     0.0000 </r>
       <r>    -2.7586     0.0000     0.0000 </r>
       <r>    -2.6642     0.0000     0.0000 </r>
       <r>    -2.5699     0.0000     0.0000 </r>
       <r>    -2.4755     0.0000     0.0000 </r>
       <r>    -2.3811     0.0000     0.0000 </r>
       <r>    -2.2868     0.0000     0.0000 </r>
       <r>    -2.1924     0.0000     0.0000 </r>
       <r>    -2.0981     0.0000     0.0000 </r>
       <r>    -2.0037     0.0000     0.0000 </r>
       <r>    -1.9094     0.0000     0.0000 </r>
       <r>    -1.8150    -0.0025    -0.0002 </r>
       <r>    -1.7206     0.0780     0.0071 </r>
       <r>    -1.6263     0.0229     0.0093 </r>
       <r>    -1.5319    -0.0004     0.0093 </r>
       <r>    -1.4376     0.0000     0.0093 </r>
       <r>    -1.3432     0.0000     0.0093 </r>
       <r>    -1.2488     0.0000     0.0093 </r>
       <r>    -1.1545     0.0000     0.0093 </r>
       <r>    -1.0601    -0.0104     0.0083 </r>
       <r>    -0.9658     0.2869     0.0354 </r>
       <r>    -0.8714     0.0182     0.0371 </r>
       <r>    -0.7771    -0.0003     0.0370 </r>
       <r>    -0.6827     0.0000     0.0370 </r>
       <r>    -0.5883     0.0000     0.0370 </r>
       <r>    -0.4940     0.0000     0.0370 </r>
       <r>    -0.3996    -0.0103     0.0361 </r>
       <r>    -0.3053     0.2947     0.0639 </r>
       <r>    -0.2109     0.0101     0.0648 </r>
       <r>    -0.1166    -0.0002     0.0648 </r>
       <r>    -0.0222     0.0000     0.0648 </r>
       <r>     0.0722    -0.0021     0.0646 </r>
       <r>     0.1665     0.0707     0.0713 </r>
       <r>     0.2609     0.0394     0.0750 </r>
       <r>     0.3552     0.2947     0.1028 </r>
       <r>     0.4496    -0.0102     0.1019 </r>
       <r>     0.5439     0.0000     0.1019 </r>
       <r>     0.6383     0.0000     0.1019 </r>
       <r>     0.7327    -0.0062     0.1013 </r>
       <r>     0.8270     0.2898     0.1286 </r>
       <r>     0.9214     0.3118     0.1580 </r>
       <r>     1.0157     0.0255     0.1604 </r>
       <r>     1.1101     0.2721     0.1861 </r>
       <r>     1.2044    -0.0099     0.1852 </r>
       <r>     1.2988    -0.0003     0.1852 </r>
       <r>     1.3932     0.0185     0.1869 </r>
       <r>     1.4875     0.2184     0.2075 </r>
       <r>     1.5819     0.2760     0.2336 </r>
       <r>     1.6762     0.1609     0.2487 </r>
       <r>     1.7706     0.5320     0.2989 </r>
       <r>     1.8650     0.3751     0.3343 </r>
       <r>     1.9593     0.0688     0.3408 </r>
       <r>     2.0537     0.2744     0.3667 </r>
       <r>     2.1480     0.9179     0.4533 </r>
       <r>     2.2424     0.5145     0.5019 </r>
       <r>     2.3367    -0.0397     0.4981 </r>
       <r>     2.4311     0.5431     0.5494 </r>
       <r>     2.5255     0.3542     0.5828 </r>
       <r>     2.6198     0.6033     0.6397 </r>
       <r>     2.7142    -0.0058     0.6392 </r>
       <r>     2.8085     0.6206     0.6977 </r>
       <r>     2.9029     0.7921     0.7725 </r>
       <r>     2.9972     0.2109     0.7924 </r>
       <r>     3.0916     0.4481     0.8346 </r>
       <r>     3.1860    -0.0271     0.8321 </r>
       <r>     3.2803     0.4694     0.8764 </r>
       <r>     3.3747     0.4930     0.9229 </r>
       <r>     3.4690     0.6899     0.9880 </r>
       <r>     3.5634     0.9100     1.0739 </r>
       <r>     3.6577     0.3981     1.1114 </r>
       <r>     3.7521     0.2192     1.1321 </r>
       <r>     3.8465     0.3848     1.1684 </r>
       <r>     3.9408     0.3619     1.2026 </r>
       <r>     4.0352     0.2152     1.2229 </r>
       <r>     4.1295    -0.0348     1.2196 </r>
       <r>     4.2239     0.7862     1.2938 </r>
       <r>     4.3182     0.1724     1.3101 </r>
       <r>     4.4126     1.6697     1.4676 </r>
       <r>     4.5070     0.1346     1.4803 </r>
       <r>     4.6013     0.5418     1.5314 </r>
       <r>     4.6957     0.2661     1.5565 </r>
       <r>     4.7900    -0.0136     1.5553 </r>
       <r>     4.8844     0.1665     1.5710 </r>
       <r>     4.9788     0.9578     1.6613 </r>
       <r>     5.0731     0.6015     1.7181 </r>
       <r>     5.1675     0.4758     1.7630 </r>
       <r>     5.2618     0.7423     1.8330 </r>
       <r>     5.3562     0.4749     1.8778 </r>
       <r>     5.4505     0.9003     1.9628 </r>
       <r>     5.5449     0.0919     1.9714 </r>
       <r>     5.6393     0.3784     2.0072 </r>
       <r>     5.7336     0.3382     2.0391 </r>
       <r>     5.8280     0.7163     2.1067 </r>
       <r>     5.9223     1.1953     2.2194 </r>
       <r>     6.0167     0.6057     2.2766 </r>
       <r>     6.1110     0.5797     2.3313 </r>
       <r>     6.2054     0.9408     2.4201 </r>
       <r>     6.2998     0.9995     2.5144 </r>
       <r>     6.3941     0.2446     2.5374 </r>
       <r>     6.4885    -0.0260     2.5350 </r>
       <r>     6.5828     0.6388     2.5953 </r>
       <r>     6.6772     0.5286     2.6451 </r>
       <r>     6.7715     0.9433     2.7341 </r>
       <r>     6.8659     0.6738     2.7977 </r>
       <r>     6.9603     0.1251     2.8095 </r>
       <r>     7.0546     0.4187     2.8490 </r>
       <r>     7.1490     0.2203     2.8698 </r>
       <r>     7.2433     0.4083     2.9083 </r>
       <r>     7.3377     1.0910     3.0113 </r>
       <r>     7.4320     1.8249     3.1835 </r>
       <r>     7.5264     0.3907     3.2204 </r>
       <r>     7.6208     0.0202     3.2223 </r>
       <r>     7.7151    -0.0009     3.2222 </r>
       <r>     7.8095     0.0295     3.2250 </r>
       <r>     7.9038     0.5598     3.2778 </r>
       <r>     7.9982     0.4822     3.3233 </r>
       <r>     8.0926     0.1508     3.3375 </r>
       <r>     8.1869     0.8403     3.4168 </r>
       <r>     8.2813     0.4463     3.4589 </r>
       <r>     8.3756     0.4480     3.5012 </r>
       <r>     8.4700    -0.0124     3.5000 </r>
       <r>     8.5643     0.0000     3.5000 </r>
       <r>     8.6587    -0.0054     3.4995 </r>
       <r>     8.7531     0.2122     3.5195 </r>
       <r>     8.8474     1.5237     3.6633 </r>
       <r>     8.9418     0.8087     3.7396 </r>
       <r>     9.0361     0.8354     3.8184 </r>
       <r>     9.1305     0.9741     3.9103 </r>
       <r>     9.2248     0.0578     3.9158 </r>
       <r>     9.3192     0.3867     3.9523 </r>
       <r>     9.4136     0.2153     3.9726 </r>
       <r>     9.5079    -0.0039     3.9722 </r>
       <r>     9.6023     0.0000     3.9722 </r>
       <r>     9.6966    -0.0079     3.9715 </r>
       <r>     9.7910     0.2293     3.9931 </r>
       <r>     9.8853     0.4560     4.0361 </r>
       <r>     9.9797     0.4069     4.0745 </r>
       <r>    10.0741     0.2020     4.0936 </r>
       <r>    10.1684     0.2900     4.1210 </r>
       <r>    10.2628     0.1080     4.1311 </r>
       <r>    10.3571     1.6612     4.2879 </r>
       <r>    10.4515     0.1079     4.2981 </r>
       <r>    10.5458     0.7806     4.3717 </r>
       <r>    10.6402    -0.0180     4.3700 </r>
       <r>    10.7346     0.1533     4.3845 </r>
       <r>    10.8289     0.6749     4.4482 </r>
       <r>    10.9233     0.1741     4.4646 </r>
       <r>    11.0176     0.1836     4.4819 </r>
       <r>    11.1120    -0.0048     4.4815 </r>
       <r>    11.2064     0.0000     4.4815 </r>
       <r>    11.3007    -0.0002     4.4815 </r>
       <r>    11.3951     0.0129     4.4827 </r>
       <r>    11.4894     0.3644     4.5171 </r>
       <r>    11.5838     0.4949     4.5638 </r>
       <r>    11.6781     0.9742     4.6557 </r>
       <r>    11.7725     0.8771     4.7384 </r>
       <r>    11.8669     0.8587     4.8195 </r>
       <r>    11.9612     0.9485     4.9090 </r>
       <r>    12.0556     0.1763     4.9256 </r>
       <r>    12.1499     0.4057     4.9639 </r>
       <r>    12.2443     0.3904     5.0007 </r>
       <r>    12.3386     0.0647     5.0068 </r>
       <r>    12.4330     0.4099     5.0455 </r>
       <r>    12.5274     0.2886     5.0727 </r>
       <r>    12.6217     0.4435     5.1146 </r>
       <r>    12.7161     0.3083     5.1437 </r>
       <r>    12.8104     0.8629     5.2251 </r>
       <r>    12.9048     1.3020     5.3480 </r>
       <r>    12.9991     0.4499     5.3904 </r>
       <r>    13.0935    -0.0211     5.3884 </r>
       <r>    13.1879     0.3051     5.4172 </r>
       <r>    13.2822    -0.0056     5.4167 </r>
       <r>    13.3766    -0.0005     5.4166 </r>
       <r>    13.4709     0.0173     5.4183 </r>
       <r>    13.5653     0.5922     5.4741 </r>
       <r>    13.6596    -0.0306     5.4713 </r>
       <r>    13.7540     0.2795     5.4976 </r>
       <r>    13.8484     0.1413     5.5110 </r>
       <r>    13.9427     0.7629     5.5829 </r>
       <r>    14.0371     0.7653     5.6552 </r>
       <r>    14.1314     0.2512     5.6789 </r>
       <r>    14.2258     0.1693     5.6948 </r>
       <r>    14.3201    -0.0187     5.6931 </r>
       <r>    14.4145     0.6550     5.7549 </r>
       <r>    14.5089     0.2519     5.7786 </r>
       <r>    14.6032    -0.0103     5.7777 </r>
       <r>    14.6976     0.0537     5.7827 </r>
       <r>    14.7919     1.1428     5.8906 </r>
       <r>    14.8863    -0.0176     5.8889 </r>
       <r>    14.9807    -0.0003     5.8889 </r>
       <r>    15.0750     0.0000     5.8889 </r>
       <r>    15.1694    -0.0003     5.8889 </r>
       <r>    15.2637     0.0132     5.8901 </r>
       <r>    15.3581     0.5959     5.9463 </r>
       <r>    15.4524    -0.0199     5.9444 </r>
       <r>    15.5468     0.0000     5.9444 </r>
       <r>    15.6412     0.0000     5.9444 </r>
       <r>    15.7355     0.0000     5.9444 </r>
       <r>    15.8299     0.0000     5.9444 </r>
       <r>    15.9242     0.0000     5.9444 </r>
       <r>    16.0186    -0.0207     5.9425 </r>
       <r>    16.1129     0.5441     5.9938 </r>
       <r>    16.2073     0.6369     6.0539 </r>
       <r>    16.3017     0.0064     6.0545 </r>
       <r>    16.3960     0.4037     6.0926 </r>
       <r>    16.4904     0.1994     6.1114 </r>
       <r>    16.5847    -0.0139     6.1101 </r>
       <r>    16.6791     0.2713     6.1357 </r>
       <r>    16.7734     0.5928     6.1917 </r>
       <r>    16.8678     0.6038     6.2486 </r>
       <r>    16.9622     0.0147     6.2500 </r>
       <r>    17.0565     0.0082     6.2508 </r>
       <r>    17.1509     0.2962     6.2787 </r>
       <r>    17.2452    -0.0125     6.2776 </r>
       <r>    17.3396     0.1205     6.2889 </r>
       <r>    17.4339     0.2046     6.3082 </r>
       <r>    17.5283     0.5149     6.3568 </r>
       <r>    17.6227     0.1416     6.3702 </r>
       <r>    17.7170     0.2267     6.3916 </r>
       <r>    17.8114     0.3590     6.4255 </r>
       <r>    17.9057     0.4553     6.4684 </r>
       <r>    18.0001     0.1372     6.4814 </r>
       <r>    18.0945     0.1966     6.4999 </r>
       <r>    18.1888     0.4297     6.5405 </r>
       <r>    18.2832     0.2683     6.5658 </r>
       <r>    18.3775    -0.0186     6.5640 </r>
       <r>    18.4719     0.2476     6.5874 </r>
       <r>    18.5662     0.0663     6.5936 </r>
       <r>    18.6606     0.2935     6.6213 </r>
       <r>    18.7550    -0.0302     6.6185 </r>
       <r>    18.8493     0.5895     6.6741 </r>
       <r>    18.9437     0.3083     6.7032 </r>
       <r>    19.0380     0.2950     6.7310 </r>
       <r>    19.1324     0.0106     6.7320 </r>
       <r>    19.2267     0.0874     6.7403 </r>
       <r>    19.3211     0.3843     6.7765 </r>
       <r>    19.4155     0.4965     6.8234 </r>
       <r>    19.5098     0.5750     6.8776 </r>
       <r>    19.6042     0.1579     6.8925 </r>
       <r>    19.6985     0.2970     6.9206 </r>
       <r>    19.7929     0.0517     6.9255 </r>
       <r>    19.8872     0.3030     6.9540 </r>
       <r>    19.9816    -0.0103     6.9531 </r>
       <r>    20.0760     0.2394     6.9757 </r>
       <r>    20.1703     3.5969     7.3151 </r>
       <r>    20.2647     7.2163     7.9960 </r>
       <r>    20.3590     0.1498     8.0101 </r>
       <r>    20.4534    -0.0187     8.0083 </r>
       <r>    20.5477     0.3727     8.0435 </r>
       <r>    20.6421     0.5332     8.0938 </r>
       <r>    20.7365    -0.0199     8.0919 </r>
       <r>    20.8308     0.6639     8.1546 </r>
       <r>    20.9252     0.5151     8.2032 </r>
       <r>    21.0195     0.7175     8.2709 </r>
       <r>    21.1139     0.7559     8.3422 </r>
       <r>    21.2083     0.3521     8.3754 </r>
       <r>    21.3026     0.7888     8.4499 </r>
       <r>    21.3970     0.0416     8.4538 </r>
       <r>    21.4913    -0.0009     8.4537 </r>
       <r>    21.5857     0.0000     8.4537 </r>
       <r>    21.6800    -0.0105     8.4527 </r>
       <r>    21.7744     0.2884     8.4799 </r>
       <r>    21.8688     0.3186     8.5100 </r>
       <r>    21.9631     0.0354     8.5133 </r>
       <r>    22.0575     1.0446     8.6119 </r>
       <r>    22.1518     0.3957     8.6492 </r>
       <r>    22.2462    -0.0114     8.6481 </r>
       <r>    22.3405    -0.0002     8.6481 </r>
       <r>    22.4349    -0.0065     8.6475 </r>
       <r>    22.5293     0.5998     8.7041 </r>
       <r>    22.6236     0.1394     8.7173 </r>
       <r>    22.7180     0.4595     8.7606 </r>
       <r>    22.8123    -0.0326     8.7575 </r>
       <r>    22.9067     0.5598     8.8104 </r>
       <r>    23.0010     0.1481     8.8243 </r>
       <r>    23.0954    -0.0029     8.8241 </r>
       <r>    23.1898    -0.0205     8.8221 </r>
       <r>    23.2841     0.5911     8.8779 </r>
       <r>    23.3785     0.1198     8.8892 </r>
       <r>    23.4728    -0.0034     8.8889 </r>
       <r>    23.5672    -0.0104     8.8879 </r>
       <r>    23.6615     0.2981     8.9160 </r>
       <r>    23.7559     0.3118     8.9455 </r>
       <r>    23.8503    -0.0112     8.9444 </r>
       <r>    23.9446     0.0270     8.9469 </r>
       <r>    24.0390     0.5831     9.0020 </r>
       <r>    24.1333    -0.0208     9.0000 </r>
       <r>    24.2277     0.0000     9.0000 </r>
       <r>    24.3221     0.0000     9.0000 </r>
       <r>    24.4164     0.0000     9.0000 </r>
       <r>    24.5108     0.0000     9.0000 </r>
       <r>    24.6051     0.0000     9.0000 </r>
       <r>    24.6995     0.0000     9.0000 </r>
       <r>    24.7938     0.0000     9.0000 </r>
       <r>    24.8882     0.0000     9.0000 </r>
       <r>    24.9826     0.0000     9.0000 </r>
       <r>    25.0769     0.0000     9.0000 </r>
       <r>    25.1713     0.0000     9.0000 </r>
       <r>    25.2656     0.0000     9.0000 </r>
      </set>
     </set>
    </array>
   </total>
   <partial>
    <array>
     <dimension dim="1">gridpoints</dimension>
     <dimension dim="2">spin</dimension>
     <dimension dim="3">ion</dimension>
     <field>energy</field>
     <field>  s</field>
     <field> py</field>
     <field> pz</field>
     <field> px</field>
     <field>dxy</field>
     <field>dyz</field>
     <field>dz2</field>
     <field>dxz</field>
     <field>dx2</field>
     <set>
      <set comment="ion 1">
       <set comment="spin 1">
        <r>    -3.0416     0.0000     0.0000     0.0000     0.0000     0.0000     0.0000     0.0000     0.0000     0.0000 </r>
        <r>    -2.9473     0.0000     0.0000     0.0000     0.0000     0.0000     0.0000     0.0000     0.0000     0.0000 </r>
        <r>    -2.8529     0.0000     0.0000     0.0000     0.0000     0.0000     0.0000     0.0000     0.0000     0.0000 </r>
        <r>    -2.7586     0.0000     0.0000     0.0000     0.0000     0.0000     0.0000     0.0000     0.0000     0.0000 </r>
        <r>    -2.6642     0.0000     0.0000     0.0000     0.0000     0.0000     0.0000     0.0000     0.0000     0.0000 </r>
        <r>    -2.5699     0.0000     0.0000     0.0000     0.0000     0.0000     0.0000     0.0000     0.0000     0.0000 </r>
        <r>    -2.4755     0.0000     0.0000     0.0000     0.0000     0.0000     0.0000     0.0000     0.0000     0.0000 </r>
        <r>    -2.3811     0.0000     0.0000     0.0000     0.0000     0.0000     0.0000     0.0000     0.0000     0.0000 </r>
        <r>    -2.2868     0.0000     0.0000     0.0000     0.0000     0.0000     0.0000     0.0000     0.0000     0.0000 </r>
        <r>    -2.1924     0.0000     0.0000     0.0000     0.0000     0.0000     0.0000     0.0000     0.0000     0.0000 </r>
        <r>    -2.0981     0.0000     0.0000     0.0000     0.0000     0.0000     0.0000     0.0000     0.0000     0.0000 </r>
        <r>    -2.0037     0.0000     0.0000     0.0000     0.0000     0.0000     0.0000     0.0000     0.0000     0.0000 </r>
        <r>    -1.9094     0.0000     0.0000     0.0000     0.0000     0.0000     0.0000     0.0000     0.0000     0.0000 </r>
        <r>    -1.8150    -0.0030     0.0000     0.0000     0.0000     0.0000     0.0000     0.0000     0.0000     0.0000 </r>
        <r>    -1.7206     0.0852     0.0007     0.0007     0.0007     0.0000     0.0000     0.0000     0.0000     0.0000 </r>
        <r>    -1.6263     0.0039     0.0000     0.0000     0.0000     0.0000     0.0000     0.0000     0.0000     0.0000 </r>
        <r>    -1.5319    -0.0001     0.0000     0.0000     0.0000     0.0000     0.0000     0.0000     0.0000     0.0000 </r>
        <r>    -1.4376     0.0000     0.0000     0.0000     0.0000     0.0000     0.0000     0.0000     0.0000     0.0000 </r>
        <r>    -1.3432     0.0000     0.0000     0.0000     0.0000     0.0000     0.0000     0.0000     0.0000     0.0000 </r>
        <r>    -1.2488     0.0000     0.0000     0.0000     0.0000     0.0000     0.0000     0.0000     0.0000     0.0000 </r>
        <r>    -1.1545    -0.0001     0.0000     0.0000     0.0000     0.0000     0.0000     0.0000     0.0000     0.0000 </r>
        <r>    -1.0601    -0.0026     0.0000     0.0000    -0.0002     0.0000     0.0000     0.0000     0.0000     0.0000 </r>
        <r>    -0.9658     0.2518     0.0020     0.0020     0.0200     0.0008     0.0002     0.0003     0.0008     0.0008 </r>
        <r>    -0.8714    -0.0058     0.0000     0.0000    -0.0005     0.0000     0.0000     0.0000     0.0000     0.0000 </r>
        <r>    -0.7771     0.0000     0.0000     0.0000     0.0000     0.0000     0.0000     0.0000     0.0000     0.0000 </r>
        <r>    -0.6827     0.0000     0.0000     0.0000     0.0000     0.0000     0.0000     0.0000     0.0000     0.0000 </r>
        <r>    -0.5883     0.0000     0.0000     0.0000     0.0000     0.0000     0.0000     0.0000     0.0000     0.0000 </r>
        <r>    -0.4940    -0.0001     0.0000     0.0000     0.0000     0.0000     0.0000     0.0000     0.0000     0.0000 </r>
        <r>    -0.3996     0.0009     0.0001     0.0001     0.0000     0.0000     0.0000     0.0000     0.0000     0.0000 </r>
        <r>    -0.3053     0.2346     0.0174     0.0174     0.0015     0.0013     0.0067     0.0002     0.0013     0.0005 </r>
        <r>    -0.2109    -0.0069    -0.0005    -0.0005     0.0000     0.0000    -0.0002     0.0000     0.0000     0.0000 </r>
        <r>    -0.1166     0.0000     0.0000     0.0000     0.0000     0.0000     0.0000     0.0000     0.0000     0.0000 </r>
        <r>    -0.0222     0.0000     0.0000     0.0000     0.0000     0.0000     0.0000     0.0000     0.0000     0.0000 </r>
        <r>     0.0722    -0.0024    -0.0001    -0.0001    -0.0001    -0.0001    -0.0001     0.0000    -0.0001     0.0000 </r>
        <r>     0.1665     0.0661     0.0040     0.0038     0.0040     0.0032     0.0032     0.0000     0.0032     0.0000 </r>
        <r>     0.2609     0.0488     0.0007     0.0099     0.0007     0.0004     0.0006     0.0025     0.0006     0.0000 </r>
        <r>     0.3552     0.1727     0.0013     0.0386     0.0013     0.0003     0.0014     0.0103     0.0014     0.0000 </r>
        <r>     0.4496    -0.0057     0.0000    -0.0013     0.0000     0.0000     0.0000    -0.0003     0.0000     0.0000 </r>
        <r>     0.5439     0.0000     0.0000     0.0000     0.0000     0.0000     0.0000     0.0000     0.0000     0.0000 </r>
        <r>     0.6383     0.0000     0.0000     0.0000     0.0000     0.0000     0.0000     0.0000     0.0000     0.0000 </r>
        <r>     0.7327    -0.0096    -0.0006     0.0000    -0.0020    -0.0007    -0.0002    -0.0001    -0.0001    -0.0002 </r>
        <r>     0.8270     0.3054     0.0205     0.0012     0.0648     0.0236     0.0049     0.0043     0.0045     0.0064 </r>
        <r>     0.9214     0.0967     0.0065     0.0003     0.0206     0.0074     0.0014     0.0014     0.0013     0.0020 </r>
        <r>     1.0157     0.0582     0.0019     0.0020     0.0096     0.0075     0.0074     0.0002     0.0076     0.0007 </r>
        <r>     1.1101     0.1206     0.0041     0.0041     0.0201     0.0154     0.0150     0.0005     0.0154     0.0015 </r>
        <r>     1.2044    -0.0034    -0.0001    -0.0001    -0.0006    -0.0004    -0.0004     0.0000    -0.0004     0.0000 </r>
        <r>     1.2988    -0.0004     0.0000     0.0000     0.0000    -0.0002    -0.0002     0.0000    -0.0002     0.0000 </r>
        <r>     1.3932     0.0166     0.0001     0.0001     0.0004     0.0085     0.0083     0.0000     0.0085     0.0000 </r>
        <r>     1.4875     0.1288     0.0110     0.0099     0.0007     0.0396     0.0465    -0.0013     0.0396     0.0003 </r>
        <r>     1.5819     0.1366     0.0045     0.0429     0.0010     0.0107     0.0133     0.0512     0.0109     0.0001 </r>
        <r>     1.6762     0.0384    -0.0008     0.0172     0.0003    -0.0010    -0.0023     0.0231    -0.0009    -0.0001 </r>
        <r>     1.7706     0.2819     0.0317     0.0316     0.0069     0.0706     0.1144     0.0620     0.0702     0.0020 </r>
        <r>     1.8650     0.0342     0.0026     0.0030     0.0008     0.0004     0.0006     0.1776    -0.0009     0.0001 </r>
[...]
       </set>
       <set comment="band 6">
        <r>  0.0156  0.0099  0.3497  0.0218  0.0035  0.4798  0.0213  0.0853  0.0108 </r>
       </set>
       <set comment="band 7">
        <r>  0.3717  0.0957  0.0080  0.1601  0.0310  0.0070  0.0131  0.0406  0.0869 </r>
       </set>
       <set comment="band 8">
        <r>  0.1723  0.0454  0.0210  0.4972  0.0320  0.0014  0.0371  0.0335  0.0940 </r>
       </set>
       <set comment="band 9">
        <r> 43.6663  0.0031  0.0000  0.0026  0.0001  0.0001  0.0000  0.0001  0.0019 </r>
       </set>
      </set>
      <set comment="kpoint 14">
       <set comment="band 1">
        <r>  0.0990  0.0138  0.0147  0.0100  0.3898  0.0151  0.4127  0.0087  0.0102 </r>
       </set>
       <set comment="band 2">
        <r>  0.0507  0.1374  0.0049  0.1469  0.2434  0.0388  0.2755  0.0144  0.0422 </r>
       </set>
       <set comment="band 3">
        <r>  0.0016  0.0109  0.2946  0.0229  0.0813  0.4875  0.0007  0.0958  0.0008 </r>
       </set>
       <set comment="band 4">
        <r>  0.0250  0.0091  0.0085  0.0465  0.0068  0.0044  0.0451  0.0486  0.7339 </r>
       </set>
       <set comment="band 5">
        <r>  0.0230  0.0006  0.0110  0.0000  0.0178  0.2384  0.0020  0.6031  0.0345 </r>
       </set>
       <set comment="band 6">
        <r>  0.4143  0.0197  0.0205  0.0965  0.2260  0.0020  0.0162  0.0218  0.0486 </r>
       </set>
       <set comment="band 7">
        <r>  0.0974  0.0369  0.2727  0.0768  0.0117  0.1767  0.1571  0.1524  0.0021 </r>
       </set>
       <set comment="band 8">
        <r> 43.3597  0.0003  0.0034  0.0012  0.0004  0.0016  0.0010  0.0015  0.0000 </r>
       </set>
       <set comment="band 9">
        <r>  0.7181  0.0525  0.2554  0.1339  0.0233  0.0989  0.2553  0.0876  0.0080 </r>
       </set>
      </set>
      <set comment="kpoint 15">
       <set comment="band 1">
        <r>  0.3620  0.0114  0.0054  0.0701  0.2059  0.2211  0.0026  0.1358  0.0091 </r>
       </set>
       <set comment="band 2">
        <r>  0.0032  0.1251  0.0642  0.0483  0.0935  0.0015  0.3715  0.0207  0.1815 </r>
       </set>
       <set comment="band 3">
        <r>  0.0337  0.0541  0.1384  0.1053  0.1474  0.4107  0.0731  0.0219  0.0093 </r>
       </set>
       <set comment="band 4">
        <r>  0.0006  0.0050  0.0040  0.0206  0.0452  0.0533  0.1478  0.2480  0.4476 </r>
       </set>
       <set comment="band 5">
        <r>  0.0000  0.0029  0.0154  0.0409  0.0055  0.1756  0.0110  0.4072  0.2780 </r>
       </set>
       <set comment="band 6">
        <r>  0.0312  0.0314  0.0243  0.0612  0.4341  0.0320  0.3411  0.0141  0.0017 </r>
       </set>
       <set comment="band 7">
        <r>  0.3318  0.0420  0.0280  0.0375  0.1131  0.0708  0.0276  0.1329  0.0005 </r>
       </set>
       <set comment="band 8">
        <r> 43.8776  0.0000  0.0000  0.0001  0.0005  0.0000  0.0001  0.0001  0.0000 </r>
       </set>
       <set comment="band 9">
        <r>  0.1899  0.0212  0.0133  0.0506  0.0050  0.0493  0.0217  0.0128  0.0220 </r>
       </set>
      </set>
      <set comment="kpoint 16">
       <set comment="band 1">
        <r>  0.1271  0.0044  0.0073  0.0044  0.0058  0.0001  0.7993  0.0001  0.0000 </r>
       </set>
       <set comment="band 2">
        <r>  0.0000  0.0080  0.0000  0.0080  1.0446  0.0002  0.0035  0.0002  0.0000 </r>
       </set>
       <set comment="band 3">
        <r>  0.0389  0.0006  0.7648  0.0006  0.0003  0.0803  0.0240  0.0803  0.0000 </r>
       </set>
       <set comment="band 4">
        <r>  0.0000  0.0251  0.0000  0.0251  0.0000  0.0599  0.0000  0.0599  0.7792 </r>
       </set>
       <set comment="band 5">
        <r>  0.0000  0.0028  0.0000  0.0028  0.0000  0.4098  0.0000  0.4098  0.1479 </r>
       </set>
       <set comment="band 6">
        <r>  0.0016  0.0219  0.1562  0.0219  0.0015  0.3812  0.0063  0.3812  0.0000 </r>
       </set>
       <set comment="band 7">
        <r>  0.2158  0.2250  0.0062  0.2250  0.0092  0.0287  0.0172  0.0287  0.0000 </r>
       </set>
       <set comment="band 8">
        <r>  0.0000  0.3364  0.0000  0.3359  0.0000  0.0200  0.0000  0.0200  0.0651 </r>
       </set>
       <set comment="band 9">
        <r> 40.1686  0.0074  0.0026  0.0074  0.0002  0.0006  0.0137  0.0006  0.0000 </r>
       </set>
      </set>
      <set comment="kpoint 17">
       <set comment="band 1">
        <r>  0.1952  0.0361  0.0820  0.0001  0.0593  0.0115  0.5557  0.0035  0.0025 </r>
       </set>
       <set comment="band 2">
        <r>  0.0003  0.0189  0.0010  0.0697  0.8650  0.0035  0.0466  0.0159  0.0008 </r>
       </set>
       <set comment="band 3">
        <r>  0.1366  0.0060  0.2820  0.0002  0.0221  0.3218  0.1655  0.0187  0.0282 </r>
       </set>
       <set comment="band 4">
        <r>  0.0005  0.0422  0.0663  0.0187  0.0033  0.0532  0.0381  0.1534  0.5570 </r>
       </set>
       <set comment="band 5">
        <r>  0.0000  0.0122  0.0472  0.0640  0.0298  0.0037  0.0228  0.6335  0.1239 </r>
       </set>
       <set comment="band 6">
        <r>  0.0531  0.0248  0.1244  0.0100  0.0033  0.5384  0.0546  0.0007  0.1799 </r>
       </set>
       <set comment="band 7">
        <r>  0.2488  0.1640  0.0723  0.0731  0.0178  0.0546  0.0018  0.0634  0.0619 </r>
       </set>
       <set comment="band 8">
        <r> 43.8765  0.0005  0.0000  0.0011  0.0002  0.0004  0.0000  0.0006  0.0001 </r>
       </set>
       <set comment="band 9">
        <r>  0.0825  0.0840  0.0147  0.5031  0.0349  0.0038  0.0018  0.1535  0.0484 </r>
       </set>
      </set>
      <set comment="kpoint 18">
       <set comment="band 1">
        <r>  0.4832  0.0043  0.1910  0.0043  0.0042  0.0050  0.2493  0.0050  0.0000 </r>
       </set>
       <set comment="band 2">
        <r>  0.0005  0.0085  0.0007  0.0085  0.9920  0.0056  0.0027  0.0056  0.0000 </r>
       </set>
       <set comment="band 3">
        <r>  0.1050  0.0029  0.1404  0.0029  0.0055  0.0542  0.5893  0.0542  0.0000 </r>
       </set>
       <set comment="band 4">
        <r>  0.0000  0.0399  0.0000  0.0399  0.0000  0.3510  0.0000  0.3510  0.1748 </r>
       </set>
       <set comment="band 5">
        <r>  0.0134  0.0446  0.0452  0.0446  0.0149  0.3592  0.0636  0.3592  0.0000 </r>
       </set>
       <set comment="band 6">
        <r>  0.0000  0.0043  0.0000  0.0043  0.0000  0.0825  0.0000  0.0825  0.7904 </r>
       </set>
       <set comment="band 7">
        <r> 43.5425  0.0002  0.0006  0.0002  0.0000  0.0001  0.0000  0.0001  0.0000 </r>
       </set>
       <set comment="band 8">
        <r>  0.3320  0.1473  0.0362  0.1473  0.0044  0.1048  0.0403  0.1048  0.0000 </r>
       </set>
       <set comment="band 9">
        <r>  0.0000  0.2643  0.0000  0.2635  0.0000  0.1346  0.0000  0.1343  0.0102 </r>
       </set>
      </set>
      <set comment="kpoint 19">
       <set comment="band 1">
        <r>  0.7157  0.0425  0.0425  0.0425  0.0345  0.0345  0.0000  0.0345  0.0000 </r>
       </set>
       <set comment="band 2">
        <r>  0.0146  0.0567  0.0567  0.0567  0.2611  0.2611  0.0000  0.2611  0.0000 </r>
       </set>
       <set comment="band 3">
        <r>  0.0000  0.0032  0.0029  0.0009  0.2842  0.0900  0.1914  0.3089  0.1153 </r>
       </set>
       <set comment="band 4">
        <r>  0.0000  0.0015  0.0018  0.0037  0.1712  0.3654  0.1153  0.1465  0.1914 </r>
       </set>
       <set comment="band 5">
        <r>  0.0000  0.0045  0.0000  0.0044  0.0000  0.1436  0.0001  0.1472  0.6405 </r>
       </set>
       <set comment="band 6">
        <r>  0.0000  0.0014  0.0059  0.0015  0.1939  0.0503  0.6405  0.0467  0.0001 </r>
       </set>
       <set comment="band 7">
        <r>  0.0678  0.0171  0.0171  0.0171  0.0083  0.0083  0.0000  0.0083  0.0000 </r>
       </set>
       <set comment="band 8">
        <r> 43.8109  0.0000  0.0000  0.0000  0.0000  0.0000  0.0000  0.0000  0.0000 </r>
       </set>
       <set comment="band 9">
        <r>  0.1319  0.0305  0.0305  0.0305  0.1195  0.1195  0.0000  0.1195  0.0000 </r>
       </set>
      </set>
      <set comment="kpoint 20">
       <set comment="band 1">
        <r>  0.5638  0.1073  0.1073  0.0000  0.0243  0.1379  0.0020  0.0243  0.0060 </r>
       </set>
       <set comment="band 2">
        <r>  0.0111  0.0247  0.0247  0.1400  0.3874  0.0031  0.0021  0.3874  0.0064 </r>
       </set>
       <set comment="band 3">
        <r>  0.0012  0.0270  0.0270  0.0014  0.0159  0.3566  0.1243  0.0159  0.3729 </r>
       </set>
       <set comment="band 4">
        <r>  0.0000  0.0045  0.0045  0.0000  0.1258  0.0000  0.5224  0.1258  0.1741 </r>
       </set>
       <set comment="band 5">
        <r>  0.0000  0.0038  0.0038  0.0000  0.3503  0.0000  0.1744  0.3503  0.0581 </r>
       </set>
       <set comment="band 6">
        <r>  0.0368  0.0348  0.0348  0.0005  0.0028  0.4421  0.1053  0.0028  0.3160 </r>
       </set>
       <set comment="band 7">
        <r>  1.9223  0.0624  0.0624  0.0146  0.0089  0.1145  0.0214  0.0089  0.0641 </r>
       </set>
       <set comment="band 8">
        <r> 42.1114  0.0029  0.0029  0.0010  0.0005  0.0081  0.0015  0.0005  0.0046 </r>
       </set>
       <set comment="band 9">
        <r>  0.1888  0.1169  0.1169  0.0090  0.0375  0.0160  0.0040  0.0375  0.0120 </r>
       </set>
      </set>
      <set comment="kpoint 21">
       <set comment="band 1">
        <r>  0.2749  0.0675  0.0675  0.0170  0.0513  0.4757  0.0037  0.0513  0.0111 </r>
       </set>
       <set comment="band 2">
        <r>  0.0032  0.0996  0.0996  0.0005  0.0038  0.0341  0.1623  0.0038  0.4869 </r>
       </set>
       <set comment="band 3">
        <r>  0.0069  0.0284  0.0284  0.2537  0.3049  0.0686  0.0002  0.3049  0.0006 </r>
       </set>
       <set comment="band 4">
        <r>  0.0000  0.0206  0.0206  0.0000  0.0476  0.0000  0.6020  0.0476  0.2007 </r>
       </set>
       <set comment="band 5">
        <r>  0.0000  0.0024  0.0024  0.0000  0.4193  0.0000  0.0648  0.4193  0.0216 </r>
       </set>
       <set comment="band 6">
        <r>  0.3159  0.0225  0.0225  0.0091  0.0000  0.4199  0.0311  0.0000  0.0932 </r>
       </set>
       <set comment="band 7">
        <r>  0.1557  0.1192  0.1192  0.0725  0.0639  0.0014  0.0664  0.0639  0.1993 </r>
       </set>
       <set comment="band 8">
        <r> 44.0048  0.0001  0.0001  0.0005  0.0004  0.0001  0.0001  0.0004  0.0003 </r>
       </set>
       <set comment="band 9">
        <r>  0.0367  0.0236  0.0236  0.4618  0.2075  0.0008  0.0212  0.2075  0.0637 </r>
       </set>
      </set>
      <set comment="kpoint 22">
       <set comment="band 1">
        <r>  0.2075  0.0009  0.0009  0.0781  0.0366  0.3137  0.0777  0.0366  0.2331 </r>
       </set>
       <set comment="band 2">
        <r>  0.0000  0.1013  0.1013  0.0026  0.0274  0.3731  0.0813  0.0274  0.2439 </r>
       </set>
       <set comment="band 3">
        <r>  0.0940  0.0051  0.0051  0.2589  0.1599  0.1924  0.0285  0.1599  0.0856 </r>
       </set>
       <set comment="band 4">
        <r>  0.0000  0.0282  0.0282  0.0000  0.1549  0.0000  0.4309  0.1549  0.1436 </r>
       </set>
       <set comment="band 5">
        <r>  0.0000  0.0000  0.0000  0.0000  0.3160  0.0000  0.2511  0.3160  0.0837 </r>
       </set>
       <set comment="band 6">
        <r>  0.0002  0.0882  0.0882  0.2632  0.1411  0.0714  0.0339  0.1411  0.1018 </r>
       </set>
       <set comment="band 7">
        <r>  0.4154  0.0449  0.0449  0.0094  0.1429  0.0392  0.0021  0.1429  0.0064 </r>
       </set>
       <set comment="band 8">
        <r> 43.9354  0.0002  0.0002  0.0001  0.0003  0.0001  0.0000  0.0003  0.0000 </r>
       </set>
       <set comment="band 9">
        <r>  0.0864  0.0094  0.0087  0.1163  0.0275  0.0031  0.0806  0.0272  0.2396 </r>
       </set>
      </set>
      <set comment="kpoint 23">
       <set comment="band 1">
        <r>  0.4161  0.0043  0.1325  0.0043  0.1807  0.0896  0.0770  0.0896  0.0000 </r>
       </set>
       <set comment="band 2">
        <r>  0.0155  0.1079  0.0440  0.1079  0.3621  0.0411  0.2287  0.0411  0.0000 </r>
       </set>
       <set comment="band 3">
        <r>  0.0507  0.0022  0.0644  0.0022  0.3005  0.0831  0.3943  0.0831  0.0000 </r>
       </set>
       <set comment="band 4">
        <r>  0.0000  0.0188  0.0000  0.0188  0.0000  0.2247  0.0000  0.2247  0.4810 </r>
       </set>
       <set comment="band 5">
        <r>  0.0179  0.0406  0.1315  0.0406  0.0988  0.1936  0.2190  0.1936  0.0000 </r>
       </set>
       <set comment="band 6">
        <r>  0.0000  0.0035  0.0000  0.0035  0.0000  0.2443  0.0000  0.2443  0.4693 </r>
       </set>
       <set comment="band 7">
        <r>  0.2079  0.0637  0.0484  0.0637  0.0303  0.1237  0.0084  0.1237  0.0000 </r>
       </set>
       <set comment="band 8">
        <r> 43.9244  0.0002  0.0000  0.0002  0.0001  0.0006  0.0002  0.0006  0.0000 </r>
       </set>
       <set comment="band 9">
        <r>  0.1612  0.0218  0.0755  0.0217  0.0588  0.0070  0.1041  0.0069  0.0000 </r>
       </set>
      </set>
      <set comment="kpoint 24">
       <set comment="band 1">
        <r>  0.1405  0.0882  0.1035  0.0066  0.1120  0.0572  0.3987  0.0126  0.0258 </r>
       </set>
       <set comment="band 2">
        <r>  0.0329  0.0433  0.0101  0.0972  0.3421  0.1473  0.1936  0.0373  0.0720 </r>
       </set>
       <set comment="band 3">
        <r>  0.0731  0.0024  0.1232  0.0742  0.3238  0.3274  0.0277  0.0048  0.0434 </r>
       </set>
       <set comment="band 4">
        <r>  0.0087  0.0142  0.0992  0.0065  0.0032  0.0013  0.1555  0.0633  0.5787 </r>
       </set>
       <set comment="band 5">
        <r>  0.0130  0.0019  0.0071  0.0444  0.1030  0.0298  0.0120  0.6829  0.0361 </r>
       </set>
       <set comment="band 6">
        <r>  0.2481  0.0076  0.1193  0.0138  0.0027  0.4283  0.0934  0.0142  0.0228 </r>
       </set>
       <set comment="band 7">
        <r>  0.2020  0.0942  0.1293  0.1011  0.0505  0.0030  0.0075  0.0749  0.1919 </r>
       </set>
       <set comment="band 8">
        <r> 43.8397  0.0000  0.0001  0.0017  0.0005  0.0002  0.0000  0.0008  0.0000 </r>
       </set>
       <set comment="band 9">
        <r>  0.1978  0.0450  0.0537  0.4822  0.1155  0.0076  0.0005  0.1537  0.0847 </r>
       </set>
      </set>
      <set comment="kpoint 25">
       <set comment="band 1">
        <r>  0.0257  0.1105  0.0000  0.0064  0.0002  0.0271  0.4070  0.0002  0.3399 </r>
       </set>
       <set comment="band 2">
        <r>  0.0176  0.0153  0.1690  0.0036  0.0140  0.7684  0.0177  0.0066  0.0014 </r>
       </set>
       <set comment="band 3">
        <r>  0.0304  0.0003  0.0059  0.3020  0.6051  0.0253  0.0154  0.0088  0.0010 </r>
       </set>
       <set comment="band 4">
        <r>  0.1238  0.0167  0.0079  0.0282  0.0096  0.0041  0.3088  0.0067  0.4051 </r>
       </set>
       <set comment="band 5">
        <r>  0.0180  0.0002  0.0193  0.0106  0.0540  0.0222  0.0003  0.8270  0.0000 </r>
       </set>
       <set comment="band 6">
        <r>  0.4137  0.0036  0.0431  0.0741  0.1016  0.0291  0.0295  0.0933  0.1148 </r>
       </set>
       <set comment="band 7">
        <r>  0.0169  0.0246  0.2044  0.3462  0.2038  0.0748  0.0658  0.0014  0.0002 </r>
       </set>
       <set comment="band 8">
        <r>  0.1703  0.0021  0.3880  0.1198  0.0403  0.0851  0.0256  0.0455  0.1225 </r>
       </set>
       <set comment="band 9">
        <r> 43.9688  0.0002  0.0021  0.0006  0.0001  0.0004  0.0007  0.0002  0.0013 </r>
       </set>
      </set>
      <set comment="kpoint 26">
       <set comment="band 1">
        <r>  0.0964  0.0051  0.0084  0.0051  0.2482  0.0021  0.5947  0.0021  0.0000 </r>
       </set>
       <set comment="band 2">
        <r>  0.0049  0.1010  0.0001  0.1010  0.6140  0.0046  0.1661  0.0046  0.0000 </r>
       </set>
       <set comment="band 3">
        <r>  0.0235  0.0004  0.4407  0.0004  0.0223  0.2444  0.0109  0.2444  0.0000 </r>
       </set>
       <set comment="band 4">
        <r>  0.0000  0.0371  0.0000  0.0371  0.0000  0.0436  0.0000  0.0436  0.7663 </r>
       </set>
       <set comment="band 5">
        <r>  0.0000  0.0007  0.0000  0.0007  0.0000  0.4292  0.0000  0.4292  0.0875 </r>
       </set>
       <set comment="band 6">
        <r>  0.4404  0.1048  0.0477  0.1048  0.1111  0.0000  0.0025  0.0000  0.0000 </r>
       </set>
       <set comment="band 7">
        <r>  0.0792  0.0089  0.3406  0.0089  0.0010  0.2681  0.0562  0.2681  0.0000 </r>
       </set>
       <set comment="band 8">
        <r> 43.2981  0.0012  0.0010  0.0012  0.0003  0.0005  0.0022  0.0005  0.0000 </r>
       </set>
       <set comment="band 9">
        <r>  0.8442  0.1105  0.0909  0.1106  0.0190  0.0303  0.4444  0.0303  0.0000 </r>
       </set>
      </set>
      <set comment="kpoint 27">
       <set comment="band 1">
        <r>  0.4173  0.0083  0.0083  0.0083  0.1964  0.1964  0.0000  0.1964  0.0000 </r>
       </set>
       <set comment="band 2">
        <r>  0.0000  0.0004  0.0000  0.0004  0.0040  0.1810  0.0084  0.2286  0.5746 </r>
       </set>
       <set comment="band 3">
        <r>  0.0000  0.0001  0.0005  0.0002  0.2717  0.0947  0.5746  0.0471  0.0084 </r>
       </set>
       <set comment="band 4">
        <r>  0.0385  0.2431  0.2431  0.2431  0.0470  0.0470  0.0000  0.0470  0.0000 </r>
       </set>
       <set comment="band 5">
        <r>  0.0000  0.0022  0.0025  0.0026  0.1911  0.2026  0.1927  0.1714  0.1872 </r>
       </set>
       <set comment="band 6">
        <r>  0.0000  0.0027  0.0024  0.0023  0.1856  0.1741  0.1872  0.2053  0.1927 </r>
       </set>
       <set comment="band 7">
        <r>  0.2329  0.0065  0.0065  0.0065  0.0831  0.0831  0.0000  0.0831  0.0000 </r>
       </set>
       <set comment="band 8">
        <r>  0.6178  0.0456  0.0456  0.0456  0.0711  0.0711  0.0000  0.0711  0.0000 </r>
       </set>
       <set comment="band 9">
        <r> 43.5716  0.0012  0.0012  0.0012  0.0029  0.0029  0.0000  0.0029  0.0000 </r>
       </set>
      </set>
      <set comment="kpoint 28">
       <set comment="band 1">
        <r>  0.3032  0.0204  0.0204  0.0333  0.1656  0.3192  0.0012  0.1656  0.0037 </r>
       </set>
       <set comment="band 2">
        <r>  0.0006  0.0836  0.0836  0.0099  0.0184  0.0560  0.1593  0.0184  0.4779 </r>
       </set>
       <set comment="band 3">
        <r>  0.0019  0.1165  0.1165  0.2295  0.1425  0.2247  0.0019  0.1425  0.0058 </r>
       </set>
       <set comment="band 4">
        <r>  0.0000  0.0106  0.0106  0.0000  0.1476  0.0000  0.4864  0.1476  0.1621 </r>
       </set>
       <set comment="band 5">
        <r>  0.0000  0.0035  0.0035  0.0000  0.3306  0.0000  0.2049  0.3306  0.0683 </r>
       </set>
       <set comment="band 6">
        <r>  0.0944  0.0539  0.0539  0.0827  0.0142  0.3681  0.0629  0.0142  0.1888 </r>
       </set>
       <set comment="band 7">
        <r>  0.3949  0.0223  0.0223  0.0272  0.1580  0.0366  0.0184  0.1580  0.0552 </r>
       </set>
       <set comment="band 8">
        <r> 44.0260  0.0000  0.0000  0.0001  0.0002  0.0002  0.0000  0.0002  0.0000 </r>
       </set>
       <set comment="band 9">
        <r>  0.0010  0.0114  0.0114  0.0406  0.0311  0.0365  0.0129  0.0311  0.0388 </r>
       </set>
      </set>
     </set>
    </set>
   </array>
  </projected>
 </calculation>
 <structure name="finalpos" >
  <crystal>
   <varray name="basis" >
    <v>       0.00000000       2.06500000       2.06500000 </v>
    <v>       2.06500000       0.00000000       2.06500000 </v>
    <v>       2.06500000       2.06500000       0.00000000 </v>
   </varray>
   <i name="volume">     17.61124925 </i>
   <varray name="rec_basis" >
    <v>      -0.24213075       0.24213075       0.24213075 </v>
    <v>       0.24213075      -0.24213075       0.24213075 </v>
    <v>       0.24213075       0.24213075      -0.24213075 </v>
   </varray>
  </crystal>
  <varray name="positions" >
   <v>       0.00000000       0.00000000       0.00000000 </v>
  </varray>
 </structure>
</modeling>
