   1   1   1   0
  0.1892174E+02  0.2991062E-09  0.2991062E-09  0.2991062E-09  0.5000000E-15
  1.000000000000000E-004
  CAR 
 unknown system                          
     23.89871433     -3.35810542  301      5.64223596      1.00000000
     -3.358  0.0000E+00  0.0000E+00  0.0000E+00  0.0000E+00
     -3.267  0.0000E+00  0.0000E+00  0.0000E+00  0.0000E+00
     -3.176  0.0000E+00  0.0000E+00  0.0000E+00  0.0000E+00
     -3.086  0.0000E+00  0.0000E+00  0.0000E+00  0.0000E+00
     -2.995  0.0000E+00  0.0000E+00  0.0000E+00  0.0000E+00
     -2.904  0.0000E+00  0.0000E+00  0.0000E+00  0.0000E+00
     -2.813  0.0000E+00  0.0000E+00  0.0000E+00  0.0000E+00
     -2.722  0.0000E+00  0.0000E+00  0.0000E+00  0.0000E+00
     -2.631  0.0000E+00  0.0000E+00  0.0000E+00  0.0000E+00
     -2.540 -0.3622E-31 -0.1498E-39 -0.3290E-32 -0.1361E-40
     -2.450 -0.2073E-19 -0.4530E-26 -0.1883E-20 -0.4116E-27
     -2.359 -0.1423E-10 -0.1697E-15 -0.1293E-11 -0.1541E-16
     -2.268 -0.1103E-04 -0.7823E-08 -0.1002E-05 -0.7108E-09
     -2.177 -0.3522E-02 -0.3487E-03 -0.3210E-03 -0.3168E-04
     -2.086  0.9988E-01  0.1823E-01  0.8754E-02  0.1624E-02
     -1.995  0.5692E-02  0.8729E-01  0.9271E-02  0.9555E-02
     -1.904 -0.1302E-03 -0.3255E-02  0.9259E-02  0.9260E-02
     -1.814 -0.1139E-08 -0.2773E-05  0.9259E-02  0.9259E-02
     -1.723 -0.1937E-14 -0.1444E-11  0.9259E-02  0.9259E-02
     -1.632 -0.5745E-07 -0.4699E-11  0.9259E-02  0.9259E-02
     -1.541 -0.1607E-02 -0.8747E-05  0.9113E-02  0.9258E-02
     -1.450  0.7918E-01 -0.9853E-02  0.1631E-01  0.8363E-02
     -1.359  0.2365E+00  0.2635E+00  0.3779E-01  0.3231E-01
     -1.268 -0.8303E-02  0.5308E-01  0.3704E-01  0.3713E-01
     -1.178 -0.4063E-05 -0.1013E-02  0.3704E-01  0.3704E-01
     -1.087 -0.1521E-11 -0.2199E-07  0.3704E-01  0.3704E-01
     -0.996 -0.1037E-05 -0.2189E-09  0.3704E-01  0.3704E-01
     -0.905 -0.5404E-02 -0.8569E-04  0.3655E-01  0.3703E-01
     -0.814  0.1832E+00 -0.6855E-02  0.5319E-01  0.3641E-01
     -0.723  0.1311E+00  0.3125E+00  0.6511E-01  0.6480E-01
     -0.632 -0.3194E-02  0.3632E-03  0.6481E-01  0.6483E-01
     -0.542 -0.2727E-06 -0.1713E-03  0.6481E-01  0.6481E-01
     -0.451 -0.2330E-03 -0.8206E-06  0.6479E-01  0.6481E-01
     -0.360  0.1209E-01 -0.2400E-02  0.6589E-01  0.6460E-01
     -0.269  0.8519E-01  0.7070E-01  0.7363E-01  0.7102E-01
     -0.178  0.3070E+00  0.1171E+00  0.1015E+00  0.8166E-01
     -0.087  0.3837E-02  0.2302E+00  0.1019E+00  0.1026E+00
      0.004 -0.2138E-03 -0.7978E-02  0.1019E+00  0.1019E+00
      0.094 -0.1353E-06 -0.3503E-05  0.1019E+00  0.1019E+00
      0.185 -0.3455E-02 -0.2151E-04  0.1015E+00  0.1018E+00
      0.276  0.1677E+00 -0.2039E-01  0.1168E+00  0.1000E+00
      0.367  0.4633E+00  0.5404E+00  0.1589E+00  0.1491E+00
      0.458 -0.2108E-01  0.9318E-01  0.1570E+00  0.1576E+00
      0.549  0.1755E+00 -0.8610E-02  0.1729E+00  0.1568E+00
      0.640  0.1387E+00  0.3125E+00  0.1855E+00  0.1852E+00
      0.730 -0.3475E-02  0.3340E-03  0.1852E+00  0.1852E+00
      0.821 -0.3350E-06 -0.1710E-03  0.1852E+00  0.1852E+00
      0.912 -0.5479E-03 -0.2130E-05  0.1851E+00  0.1852E+00
      1.003  0.1514E-01 -0.8593E-02  0.1865E+00  0.1844E+00
      1.094  0.6440E+00  0.2766E+00  0.2450E+00  0.2095E+00
      1.185  0.1832E+00  0.4485E+00  0.2617E+00  0.2503E+00
      1.276  0.1788E+00  0.2872E+00  0.2779E+00  0.2764E+00
      1.366  0.1469E+00  0.8635E-02  0.2913E+00  0.2772E+00
      1.457  0.1469E+00  0.3116E+00  0.3046E+00  0.3055E+00
      1.548  0.5002E+00 -0.2570E-01  0.3500E+00  0.3031E+00
      1.639  0.1012E+01  0.1101E+01  0.4420E+00  0.4032E+00
      1.730  0.2686E+00  0.4504E+00  0.4664E+00  0.4441E+00
      1.821  0.3818E+00  0.5927E+00  0.5011E+00  0.4980E+00
      1.912 -0.1174E-01  0.2310E-01  0.5000E+00  0.5001E+00
      2.002 -0.1128E-01 -0.4450E-02  0.4990E+00  0.4997E+00
      2.093  0.5934E+00  0.1251E+00  0.5529E+00  0.5110E+00
      2.184  0.7881E+00  0.7960E+00  0.6245E+00  0.5833E+00
      2.275  0.5820E+00  0.6418E+00  0.6774E+00  0.6417E+00
      2.366  0.4670E+00  0.6519E+00  0.7198E+00  0.7009E+00
      2.457  0.1358E+00  0.2340E+00  0.7321E+00  0.7221E+00
      2.548  0.3700E+00  0.2567E+00  0.7657E+00  0.7455E+00
      2.638  0.7717E+00  0.8241E+00  0.8359E+00  0.8203E+00
      2.729 -0.2793E-01  0.1459E+00  0.8333E+00  0.8336E+00
      2.820 -0.8030E-02 -0.7299E-02  0.8326E+00  0.8329E+00
      2.911  0.6469E+00  0.1278E+00  0.8914E+00  0.8445E+00
      3.002  0.5640E+00  0.1041E+01  0.9426E+00  0.9392E+00
      3.093  0.1174E+01  0.4273E+00  0.1049E+01  0.9780E+00
      3.184  0.5819E+00  0.9525E+00  0.1102E+01  0.1065E+01
      3.274  0.8503E-01  0.5333E+00  0.1110E+01  0.1113E+01
      3.365  0.4337E+00  0.1842E-01  0.1149E+01  0.1115E+01
      3.456  0.4797E+00  0.6758E+00  0.1193E+01  0.1176E+01
      3.547  0.5998E-01  0.2003E+00  0.1198E+01  0.1194E+01
      3.638  0.3338E+00  0.2460E+00  0.1229E+01  0.1217E+01
      3.729  0.7627E+00  0.5160E+00  0.1298E+01  0.1263E+01
      3.820  0.2716E-01  0.4705E+00  0.1300E+01  0.1306E+01
      3.910  0.1567E+01  0.2499E+00  0.1443E+01  0.1329E+01
      4.001  0.3354E+00  0.1631E+01  0.1473E+01  0.1477E+01
      4.092  0.6144E+00  0.2416E+00  0.1529E+01  0.1499E+01
      4.183  0.2968E+00  0.4560E+00  0.1556E+01  0.1541E+01
      4.274 -0.1768E-01  0.1698E+00  0.1555E+01  0.1556E+01
      4.365  0.3078E+00  0.3705E-01  0.1582E+01  0.1559E+01
      4.456  0.8797E+00  0.7401E+00  0.1662E+01  0.1627E+01
      4.546  0.4720E+00  0.4865E+00  0.1705E+01  0.1671E+01
      4.637  0.1073E+01  0.8085E+00  0.1803E+01  0.1744E+01
      4.728  0.3263E+00  0.1006E+01  0.1832E+01  0.1836E+01
      4.819  0.6221E+00 -0.2949E-01  0.1889E+01  0.1833E+01
      4.910  0.9456E+00  0.1384E+01  0.1975E+01  0.1959E+01
      5.001  0.5389E-01  0.1382E+00  0.1980E+01  0.1971E+01
      5.092  0.5283E+00  0.3501E+00  0.2028E+01  0.2003E+01
      5.182  0.1212E+01  0.9235E+00  0.2138E+01  0.2087E+01
      5.273  0.4191E+00  0.9624E+00  0.2176E+01  0.2174E+01
      5.364  0.4239E+00  0.3650E-01  0.2215E+01  0.2178E+01
      5.455  0.1450E+01  0.9916E+00  0.2346E+01  0.2268E+01
      5.546  0.7460E+00  0.1410E+01  0.2414E+01  0.2396E+01
      5.637  0.1221E+01  0.7316E+00  0.2525E+01  0.2462E+01
      5.728  0.1294E+00  0.8514E+00  0.2537E+01  0.2540E+01
      5.818  0.2027E+00 -0.2035E-01  0.2555E+01  0.2538E+01
      5.909  0.2070E+00  0.3177E+00  0.2574E+01  0.2567E+01
      6.000  0.7850E+00  0.4402E+00  0.2645E+01  0.2607E+01
      6.091  0.4515E+00  0.7150E+00  0.2686E+01  0.2672E+01
      6.182  0.1002E+01  0.5803E+00  0.2777E+01  0.2724E+01
      6.273  0.5128E+00  0.8667E+00  0.2824E+01  0.2803E+01
      6.363  0.3054E+00  0.3624E+00  0.2852E+01  0.2836E+01
      6.454  0.1954E+00  0.3569E+00  0.2869E+01  0.2869E+01
      6.545  0.6078E+00  0.1750E-01  0.2925E+01  0.2870E+01
      6.636  0.1367E+01  0.1461E+01  0.3049E+01  0.3003E+01
      6.727  0.1352E+01  0.1265E+01  0.3172E+01  0.3118E+01
      6.818  0.4453E+00  0.8187E+00  0.3212E+01  0.3192E+01
      6.909  0.1155E+00  0.3398E+00  0.3222E+01  0.3223E+01
      6.999 -0.3278E-02 -0.9692E-02  0.3222E+01  0.3222E+01
      7.090 -0.5533E-02 -0.7941E-02  0.3222E+01  0.3222E+01
      7.181  0.6034E+00  0.2953E+00  0.3277E+01  0.3248E+01
      7.272  0.4956E+00  0.4002E+00  0.3322E+01  0.3285E+01
      7.363  0.2312E+00  0.5305E+00  0.3343E+01  0.3333E+01
      7.454  0.8227E+00  0.7102E+00  0.3417E+01  0.3397E+01
      7.545  0.6585E+00  0.3002E+00  0.3477E+01  0.3425E+01
      7.635  0.2582E+00  0.8470E+00  0.3501E+01  0.3502E+01
      7.726 -0.1547E-01 -0.1841E-01  0.3499E+01  0.3500E+01
      7.817  0.2470E+00  0.2472E-01  0.3522E+01  0.3502E+01
      7.908  0.6627E-01  0.2812E+00  0.3528E+01  0.3528E+01
      7.999  0.1044E+01  0.3427E+00  0.3622E+01  0.3559E+01
      8.090  0.8897E+00  0.1170E+01  0.3703E+01  0.3665E+01
      8.181  0.1019E+01  0.9061E+00  0.3796E+01  0.3748E+01
      8.271  0.8357E+00  0.7077E+00  0.3872E+01  0.3812E+01
      8.362  0.5037E+00  0.1170E+01  0.3918E+01  0.3918E+01
      8.453  0.1397E+00 -0.3569E-01  0.3930E+01  0.3915E+01
      8.544  0.4781E+00  0.5818E+00  0.3974E+01  0.3968E+01
      8.635 -0.1687E-01  0.5006E-01  0.3972E+01  0.3972E+01
      8.726 -0.1805E-04 -0.1069E-02  0.3972E+01  0.3972E+01
      8.817 -0.8974E-02 -0.5706E-03  0.3971E+01  0.3972E+01
      8.907  0.2257E+00  0.2415E-01  0.3992E+01  0.3974E+01
      8.998  0.7211E+00  0.4923E+00  0.4057E+01  0.4019E+01
      9.089  0.2246E+00  0.5862E+00  0.4078E+01  0.4072E+01
      9.180  0.3737E+00  0.2722E+00  0.4112E+01  0.4097E+01
      9.271  0.6361E-01  0.2586E+00  0.4118E+01  0.4121E+01
      9.362  0.1081E+01  0.6708E-01  0.4216E+01  0.4127E+01
      9.453  0.7868E+00  0.1790E+01  0.4287E+01  0.4289E+01
      9.543  0.7192E+00  0.1521E+00  0.4353E+01  0.4303E+01
      9.634  0.1976E+00  0.7648E+00  0.4371E+01  0.4373E+01
      9.725  0.1002E+00 -0.3306E-01  0.4380E+01  0.4370E+01
      9.816  0.4598E+00  0.3197E+00  0.4421E+01  0.4399E+01
      9.907  0.3970E+00  0.5791E+00  0.4457E+01  0.4451E+01
      9.998  0.2748E+00  0.2741E+00  0.4482E+01  0.4476E+01
     10.089 -0.1080E-01  0.5986E-01  0.4481E+01  0.4482E+01
     10.179 -0.1941E-04 -0.1168E-02  0.4481E+01  0.4481E+01
     10.270 -0.1437E-02 -0.3275E-04  0.4481E+01  0.4481E+01
     10.361  0.6233E-01 -0.1106E-01  0.4487E+01  0.4480E+01
     10.452  0.5899E+00  0.3109E+00  0.4541E+01  0.4509E+01
     10.543  0.2451E+00  0.6200E+00  0.4563E+01  0.4565E+01
     10.634  0.1255E+01  0.5233E+00  0.4677E+01  0.4613E+01
     10.725  0.1143E+01  0.1405E+01  0.4781E+01  0.4740E+01
     10.815  0.9491E+00  0.7176E+00  0.4867E+01  0.4805E+01
     10.906  0.6587E+00  0.1222E+01  0.4927E+01  0.4916E+01
     10.997  0.1563E-01  0.9281E-01  0.4928E+01  0.4925E+01
     11.088  0.7816E+00  0.4977E+00  0.4999E+01  0.4970E+01
     11.179  0.2205E-02  0.3316E+00  0.4999E+01  0.5000E+01
     11.270  0.4240E+00  0.1881E+00  0.5038E+01  0.5017E+01
     11.361  0.2825E+00  0.4152E+00  0.5064E+01  0.5055E+01
     11.451  0.4829E+00  0.3653E+00  0.5108E+01  0.5088E+01
     11.542  0.4674E+00  0.4796E+00  0.5150E+01  0.5132E+01
     11.633  0.8167E+00  0.6062E+00  0.5224E+01  0.5187E+01
     11.724  0.1391E+01  0.1500E+01  0.5351E+01  0.5323E+01
     11.815  0.4395E+00  0.7136E+00  0.5390E+01  0.5388E+01
     11.906 -0.6731E-02  0.6216E-03  0.5390E+01  0.5388E+01
     11.997  0.3053E+00  0.2561E+00  0.5418E+01  0.5411E+01
     12.087 -0.9929E-02  0.5974E-01  0.5417E+01  0.5417E+01
     12.178 -0.1910E-01 -0.3621E-02  0.5415E+01  0.5416E+01
     12.269  0.5152E+00  0.1269E+00  0.5462E+01  0.5428E+01
     12.360  0.1149E+00  0.5054E+00  0.5472E+01  0.5474E+01
     12.451  0.1144E+00 -0.2204E-01  0.5483E+01  0.5472E+01
     12.542  0.1653E+00  0.3059E+00  0.5498E+01  0.5500E+01
     12.633  0.9072E+00  0.3091E+00  0.5580E+01  0.5528E+01
     12.723  0.7958E+00  0.1101E+01  0.5652E+01  0.5628E+01
     12.814  0.3589E+00  0.4445E+00  0.5685E+01  0.5668E+01
     12.905  0.1069E+00  0.2993E+00  0.5695E+01  0.5695E+01
     12.996 -0.7529E-02 -0.1706E-01  0.5694E+01  0.5694E+01
     13.087  0.6161E+00  0.2773E+00  0.5750E+01  0.5719E+01
     13.178  0.2801E+00  0.3873E+00  0.5775E+01  0.5754E+01
     13.269  0.7463E-02  0.2683E+00  0.5776E+01  0.5779E+01
     13.359  0.4969E+00  0.8233E-01  0.5821E+01  0.5786E+01
     13.450  0.7120E+00  0.7312E+00  0.5886E+01  0.5852E+01
     13.541  0.3368E-01  0.4151E+00  0.5889E+01  0.5890E+01
     13.632 -0.8060E-03 -0.1445E-01  0.5889E+01  0.5889E+01
     13.723 -0.1496E-04 -0.5012E-05  0.5889E+01  0.5889E+01
     13.814 -0.1913E-01 -0.2292E-02  0.5887E+01  0.5889E+01
     13.905  0.5166E+00  0.1188E+00  0.5934E+01  0.5899E+01
     13.995  0.1163E+00  0.5139E+00  0.5945E+01  0.5946E+01
     14.086 -0.2238E-02 -0.1899E-01  0.5944E+01  0.5944E+01
     14.177 -0.5385E-07 -0.1439E-04  0.5944E+01  0.5944E+01
     14.268 -0.1237E-14 -0.6844E-11  0.5944E+01  0.5944E+01
     14.359 -0.2546E-08 -0.2618E-12  0.5944E+01  0.5944E+01
     14.450 -0.4594E-03 -0.1838E-05  0.5944E+01  0.5944E+01
     14.541  0.4118E-02 -0.1048E-01  0.5945E+01  0.5943E+01
     14.631  0.8726E+00  0.3399E+00  0.6024E+01  0.5974E+01
     14.722  0.3581E+00  0.8920E+00  0.6057E+01  0.6055E+01
     14.813 -0.1287E-01  0.1915E-02  0.6055E+01  0.6056E+01
     14.904  0.7791E-01 -0.1485E-01  0.6062E+01  0.6054E+01
     14.995  0.5557E+00  0.4348E+00  0.6113E+01  0.6094E+01
     15.086 -0.4735E-02  0.1886E+00  0.6113E+01  0.6111E+01
     15.177  0.3676E+00  0.1935E+00  0.6146E+01  0.6128E+01
     15.267  0.3381E+00  0.3797E+00  0.6177E+01  0.6163E+01
     15.358  0.8229E+00  0.6413E+00  0.6251E+01  0.6221E+01
     15.449  0.5243E-01  0.3149E+00  0.6256E+01  0.6250E+01
     15.540  0.2462E+00  0.2827E+00  0.6279E+01  0.6276E+01
     15.631 -0.8888E-02  0.2528E-01  0.6278E+01  0.6278E+01
     15.722 -0.5518E-05 -0.5136E-03  0.6278E+01  0.6278E+01
     15.813 -0.2942E-02 -0.1618E-04  0.6278E+01  0.6278E+01
     15.903  0.1093E+00 -0.1843E-01  0.6287E+01  0.6276E+01
     15.994  0.8234E+00  0.5797E+00  0.6362E+01  0.6329E+01
     16.085  0.2869E-01  0.3648E+00  0.6365E+01  0.6362E+01
     16.176  0.4818E+00  0.1102E+00  0.6409E+01  0.6372E+01
     16.267  0.3469E+00  0.5918E+00  0.6440E+01  0.6426E+01
     16.358  0.4717E+00  0.5752E+00  0.6483E+01  0.6478E+01
     16.449 -0.1923E-01  0.3960E-01  0.6481E+01  0.6482E+01
     16.539  0.1263E+00 -0.1947E-01  0.6493E+01  0.6480E+01
     16.630  0.5061E+00  0.5073E+00  0.6539E+01  0.6526E+01
     16.721 -0.2014E-01  0.1252E+00  0.6537E+01  0.6537E+01
     16.812  0.7816E-01 -0.1323E-01  0.6544E+01  0.6536E+01
     16.903  0.2684E+00  0.2799E+00  0.6568E+01  0.6561E+01
     16.994  0.2678E+00  0.2624E+00  0.6593E+01  0.6585E+01
     17.085  0.2460E+00  0.1098E+00  0.6615E+01  0.6595E+01
     17.175  0.3796E-01  0.2845E+00  0.6619E+01  0.6621E+01
     17.266  0.5894E+00  0.1065E+00  0.6672E+01  0.6631E+01
     17.357  0.4340E-01  0.5155E+00  0.6676E+01  0.6678E+01
     17.448 -0.1143E-02 -0.1908E-01  0.6676E+01  0.6676E+01
     17.539  0.4689E-02 -0.2853E-02  0.6676E+01  0.6676E+01
     17.630  0.2893E+00  0.1172E+00  0.6703E+01  0.6686E+01
     17.721  0.6382E+00  0.3629E+00  0.6761E+01  0.6719E+01
     17.811  0.2934E+00  0.6811E+00  0.6787E+01  0.6781E+01
     17.902  0.3134E+00  0.4751E-01  0.6816E+01  0.6785E+01
     17.993  0.3089E+00  0.6104E+00  0.6844E+01  0.6841E+01
     18.084  0.2980E+00  0.1639E+00  0.6871E+01  0.6856E+01
     18.175  0.8089E-01  0.1746E+00  0.6878E+01  0.6872E+01
     18.266  0.1111E-01  0.9077E-01  0.6879E+01  0.6880E+01
     18.356  0.1588E+00 -0.7566E-02  0.6894E+01  0.6879E+01
     18.447  0.4882E+00  0.4306E+00  0.6938E+01  0.6918E+01
     18.538  0.8345E-01  0.2789E+00  0.6946E+01  0.6944E+01
     18.629  0.6145E+00  0.3249E+00  0.7001E+01  0.6973E+01
     18.720  0.4499E-01  0.3119E+00  0.7006E+01  0.7002E+01
     18.811  0.4165E-01  0.8373E-01  0.7009E+01  0.7009E+01
     18.902  0.3118E+00  0.1596E+00  0.7038E+01  0.7024E+01
     18.992 -0.2219E-01  0.1500E+00  0.7036E+01  0.7037E+01
     19.083  0.4575E+00  0.4671E-01  0.7077E+01  0.7042E+01
     19.174  0.1015E+00  0.5629E+00  0.7086E+01  0.7093E+01
     19.265  0.4168E+01  0.3936E+00  0.7465E+01  0.7128E+01
     19.356  0.7624E+01  0.1038E+02  0.8158E+01  0.8072E+01
     19.447  0.4902E+00  0.1390E+01  0.8202E+01  0.8198E+01
     19.538  0.2799E+00  0.4361E+00  0.8228E+01  0.8238E+01
     19.628  0.6604E+00  0.3860E+00  0.8288E+01  0.8273E+01
     19.719  0.6234E+00  0.8892E+00  0.8344E+01  0.8354E+01
     19.810 -0.2984E-01  0.1780E+00  0.8342E+01  0.8370E+01
     19.901  0.6129E+00  0.3146E+00  0.8397E+01  0.8399E+01
     19.992  0.4723E+00  0.4756E+00  0.8440E+01  0.8442E+01
     20.083  0.1519E+00  0.4512E+00  0.8454E+01  0.8483E+01
     20.174 -0.4237E-02 -0.1391E-01  0.8454E+01  0.8481E+01
     20.264 -0.1266E-04 -0.4703E-04  0.8454E+01  0.8481E+01
     20.355 -0.1037E-01 -0.6264E-03  0.8453E+01  0.8481E+01
     20.446  0.2724E+00  0.3221E-01  0.8478E+01  0.8484E+01
     20.537  0.1221E+00  0.2742E+00  0.8489E+01  0.8509E+01
     20.628  0.2089E+00  0.2830E+00  0.8508E+01  0.8535E+01
     20.719  0.7511E+00  0.2003E+00  0.8576E+01  0.8553E+01
     20.810  0.4964E+00  0.7577E+00  0.8621E+01  0.8622E+01
     20.900  0.1465E+00 -0.2536E-01  0.8634E+01  0.8620E+01
     20.991  0.2496E+00  0.3118E+00  0.8657E+01  0.8648E+01
     21.082  0.1951E+00 -0.2325E-02  0.8675E+01  0.8648E+01
     21.173  0.5718E+00  0.1754E+00  0.8727E+01  0.8664E+01
     21.264  0.4484E+00  0.5302E+00  0.8767E+01  0.8712E+01
     21.355  0.2219E+00  0.8588E+00  0.8787E+01  0.8790E+01
     21.446 -0.9548E-02 -0.3607E-01  0.8787E+01  0.8787E+01
     21.536  0.3136E+00  0.1515E+00  0.8815E+01  0.8800E+01
     21.627 -0.5441E-02  0.1625E+00  0.8815E+01  0.8815E+01
     21.718  0.6738E-01 -0.6450E-02  0.8821E+01  0.8815E+01
     21.809  0.1259E+00  0.1313E+00  0.8832E+01  0.8827E+01
     21.900  0.6410E+00  0.1336E+00  0.8890E+01  0.8839E+01
     21.991 -0.1661E-01  0.8316E+00  0.8889E+01  0.8914E+01
     22.082 -0.1404E-03  0.2749E-01  0.8889E+01  0.8917E+01
     22.172 -0.5273E-09 -0.9631E-03  0.8889E+01  0.8917E+01
     22.263 -0.8552E-04 -0.1671E-05  0.8889E+01  0.8917E+01
     22.354 -0.7752E-02 -0.6367E-02  0.8888E+01  0.8916E+01
     22.445  0.3536E+00  0.1813E+00  0.8920E+01  0.8933E+01
     22.536  0.5928E+00  0.6532E+00  0.8974E+01  0.8992E+01
     22.627 -0.4557E-02  0.9077E-01  0.8974E+01  0.9000E+01
     22.718  0.2996E+00 -0.1773E-02  0.9001E+01  0.9000E+01
     22.808 -0.1057E-01 -0.3357E-07  0.9000E+01  0.9000E+01
     22.899 -0.3309E-04 -0.6789E-15  0.9000E+01  0.9000E+01
     22.990 -0.4268E-10  0.0000E+00  0.9000E+01  0.9000E+01
     23.081  0.0000E+00  0.0000E+00  0.9000E+01  0.9000E+01
     23.172  0.0000E+00  0.0000E+00  0.9000E+01  0.9000E+01
     23.263  0.0000E+00  0.0000E+00  0.9000E+01  0.9000E+01
     23.354  0.0000E+00  0.0000E+00  0.9000E+01  0.9000E+01
     23.444  0.0000E+00  0.0000E+00  0.9000E+01  0.9000E+01
     23.535  0.0000E+00  0.0000E+00  0.9000E+01  0.9000E+01
     23.626  0.0000E+00  0.0000E+00  0.9000E+01  0.9000E+01
     23.717  0.0000E+00  0.0000E+00  0.9000E+01  0.9000E+01
     23.808  0.0000E+00  0.0000E+00  0.9000E+01  0.9000E+01
     23.899  0.0000E+00  0.0000E+00  0.9000E+01  0.9000E+01
     23.89871433     -3.35810542  301      5.64223596      1.00000000
     -3.358  0.0000E+00  0.0000E+00  0.0000E+00  0.0000E+00  0.0000E+00  0.0000E+00  0.0000E+00  0.0000E+00  0.0000E+00  0.0000E+00  0.0000E+00  0.0000E+00  0.0000E+00  0.0000E+00  0.0000E+00  0.0000E+00  0.0000E+00  0.0000E+00
     -3.267  0.0000E+00  0.0000E+00  0.0000E+00  0.0000E+00  0.0000E+00  0.0000E+00  0.0000E+00  0.0000E+00  0.0000E+00  0.0000E+00  0.0000E+00  0.0000E+00  0.0000E+00  0.0000E+00  0.0000E+00  0.0000E+00  0.0000E+00  0.0000E+00
     -3.176  0.0000E+00  0.0000E+00  0.0000E+00  0.0000E+00  0.0000E+00  0.0000E+00  0.0000E+00  0.0000E+00  0.0000E+00  0.0000E+00  0.0000E+00  0.0000E+00  0.0000E+00  0.0000E+00  0.0000E+00  0.0000E+00  0.0000E+00  0.0000E+00
     -3.086  0.0000E+00  0.0000E+00  0.0000E+00  0.0000E+00  0.0000E+00  0.0000E+00  0.0000E+00  0.0000E+00  0.0000E+00  0.0000E+00  0.0000E+00  0.0000E+00  0.0000E+00  0.0000E+00  0.0000E+00  0.0000E+00  0.0000E+00  0.0000E+00
     -2.995  0.0000E+00  0.0000E+00  0.0000E+00  0.0000E+00  0.0000E+00  0.0000E+00  0.0000E+00  0.0000E+00  0.0000E+00  0.0000E+00  0.0000E+00  0.0000E+00  0.0000E+00  0.0000E+00  0.0000E+00  0.0000E+00  0.0000E+00  0.0000E+00
     -2.904  0.0000E+00  0.0000E+00  0.0000E+00  0.0000E+00  0.0000E+00  0.0000E+00  0.0000E+00  0.0000E+00  0.0000E+00  0.0000E+00  0.0000E+00  0.0000E+00  0.0000E+00  0.0000E+00  0.0000E+00  0.0000E+00  0.0000E+00  0.0000E+00
     -2.813  0.0000E+00  0.0000E+00  0.0000E+00  0.0000E+00  0.0000E+00  0.0000E+00  0.0000E+00  0.0000E+00  0.0000E+00  0.0000E+00  0.0000E+00  0.0000E+00  0.0000E+00  0.0000E+00  0.0000E+00  0.0000E+00  0.0000E+00  0.0000E+00
     -2.722  0.0000E+00  0.0000E+00  0.0000E+00  0.0000E+00  0.0000E+00  0.0000E+00  0.0000E+00  0.0000E+00  0.0000E+00  0.0000E+00  0.0000E+00  0.0000E+00  0.0000E+00  0.0000E+00  0.0000E+00  0.0000E+00  0.0000E+00  0.0000E+00
     -2.631  0.0000E+00  0.0000E+00  0.0000E+00  0.0000E+00  0.0000E+00  0.0000E+00  0.0000E+00  0.0000E+00  0.0000E+00  0.0000E+00  0.0000E+00  0.0000E+00  0.0000E+00  0.0000E+00  0.0000E+00  0.0000E+00  0.0000E+00  0.0000E+00
     -2.540 -0.2929E-31 -0.1210E-39 -0.2398E-33 -0.9914E-42 -0.2398E-33 -0.9914E-42 -0.2398E-33 -0.9914E-42 -0.9315E-35 -0.3857E-43 -0.9315E-35 -0.3857E-43 -0.9966E-46 -0.2257E-57 -0.9315E-35 -0.3857E-43 -0.3808E-45 -0.3585E-58
     -2.450 -0.1676E-19 -0.3660E-26 -0.1372E-21 -0.2999E-28 -0.1372E-21 -0.2999E-28 -0.1372E-21 -0.2999E-28 -0.5332E-23 -0.1167E-29 -0.5332E-23 -0.1167E-29 -0.5704E-34 -0.6828E-44 -0.5332E-23 -0.1167E-29 -0.2180E-33 -0.1084E-44
     -2.359 -0.1151E-10 -0.1371E-15 -0.9419E-13 -0.1123E-17 -0.9419E-13 -0.1123E-17 -0.9419E-13 -0.1123E-17 -0.3659E-14 -0.4370E-19 -0.3659E-14 -0.4370E-19 -0.3915E-25 -0.2557E-33 -0.3659E-14 -0.4370E-19 -0.1496E-24 -0.4062E-34
     -2.268 -0.8921E-05 -0.6322E-08 -0.7303E-07 -0.5179E-10 -0.7303E-07 -0.5179E-10 -0.7303E-07 -0.5179E-10 -0.2837E-08 -0.2015E-11 -0.2837E-08 -0.2015E-11 -0.3036E-19 -0.1179E-25 -0.2837E-08 -0.2015E-11 -0.1160E-18 -0.1873E-26
     -2.177 -0.2848E-02 -0.2818E-03 -0.2332E-04 -0.2308E-05 -0.2332E-04 -0.2308E-05 -0.2332E-04 -0.2308E-05 -0.9059E-06 -0.8981E-07 -0.9059E-06 -0.8981E-07 -0.9692E-17 -0.5256E-21 -0.9059E-06 -0.8981E-07 -0.3704E-16 -0.8348E-22
     -2.086  0.8078E-01  0.1473E-01  0.6613E-03  0.1207E-03  0.6613E-03  0.1207E-03  0.6613E-03  0.1207E-03  0.2569E-04  0.4695E-05  0.2569E-04  0.4695E-05  0.2749E-15  0.2748E-19  0.2569E-04  0.4695E-05  0.1050E-14  0.4364E-20
     -1.995  0.4603E-02  0.7054E-01  0.3768E-04  0.5779E-03  0.3768E-04  0.5779E-03  0.3768E-04  0.5779E-03  0.1464E-05  0.2248E-04  0.1464E-05  0.2248E-04  0.1566E-16  0.1316E-18  0.1464E-05  0.2248E-04  0.5986E-16  0.2090E-19
     -1.904 -0.1053E-03 -0.2630E-02 -0.8619E-06 -0.2155E-04 -0.8619E-06 -0.2155E-04 -0.8619E-06 -0.2155E-04 -0.3349E-07 -0.8383E-06 -0.3349E-07 -0.8383E-06 -0.3583E-18 -0.4906E-20 -0.3349E-07 -0.8383E-06 -0.1369E-17 -0.7792E-21
     -1.814 -0.9211E-09 -0.2241E-05 -0.7540E-11 -0.1836E-07 -0.7540E-11 -0.1836E-07 -0.7540E-11 -0.1836E-07 -0.2930E-12 -0.7143E-09 -0.2930E-12 -0.7143E-09 -0.3134E-23 -0.4180E-23 -0.2930E-12 -0.7143E-09 -0.1198E-22 -0.6639E-24
     -1.723 -0.1481E-14 -0.1167E-11 -0.1138E-16 -0.9557E-14 -0.1138E-16 -0.9557E-14 -0.1107E-15 -0.9557E-14 -0.4188E-17 -0.3719E-15 -0.7836E-18 -0.3719E-15 -0.1449E-17 -0.2182E-23 -0.4188E-17 -0.3719E-15 -0.4348E-17 -0.6547E-23
     -1.632 -0.4394E-07 -0.3591E-11 -0.3376E-09 -0.2761E-13 -0.3376E-09 -0.2761E-13 -0.3283E-08 -0.2685E-12 -0.1242E-09 -0.1017E-13 -0.2324E-10 -0.1904E-14 -0.4299E-10 -0.3514E-14 -0.1242E-09 -0.1017E-13 -0.1290E-09 -0.1054E-13
     -1.541 -0.1229E-02 -0.6684E-05 -0.9443E-05 -0.5139E-07 -0.9443E-05 -0.5139E-07 -0.9183E-04 -0.4998E-06 -0.3475E-05 -0.1894E-07 -0.6502E-06 -0.3544E-08 -0.1203E-05 -0.6541E-08 -0.3475E-05 -0.1894E-07 -0.3608E-05 -0.1962E-07
     -1.450  0.6055E-01 -0.7529E-02  0.4652E-03 -0.5789E-04  0.4652E-03 -0.5789E-04  0.4524E-02 -0.5630E-03  0.1712E-03 -0.2133E-04  0.3203E-04 -0.3992E-05  0.5925E-04 -0.7368E-05  0.1712E-03 -0.2133E-04  0.1777E-03 -0.2210E-04
     -1.359  0.1808E+00  0.2014E+00  0.1389E-02  0.1548E-02  0.1389E-02  0.1548E-02  0.1351E-01  0.1506E-01  0.5113E-03  0.5706E-03  0.9567E-04  0.1068E-03  0.1770E-03  0.1971E-03  0.5113E-03  0.5706E-03  0.5309E-03  0.5912E-03
     -1.268 -0.6350E-02  0.4056E-01 -0.4878E-04  0.3118E-03 -0.4878E-04  0.3118E-03 -0.4744E-03  0.3033E-02 -0.1795E-04  0.1149E-03 -0.3359E-05  0.2150E-04 -0.6213E-05  0.3969E-04 -0.1795E-04  0.1149E-03 -0.1864E-04  0.1191E-03
     -1.178 -0.3107E-05 -0.7742E-03 -0.2387E-07 -0.5952E-05 -0.2387E-07 -0.5952E-05 -0.2322E-06 -0.5789E-04 -0.8785E-08 -0.2194E-05 -0.1644E-08 -0.4105E-06 -0.3041E-08 -0.7576E-06 -0.8785E-08 -0.2194E-05 -0.9122E-08 -0.2273E-05
     -1.087 -0.1156E-11 -0.1680E-07 -0.1601E-13 -0.1292E-09 -0.1601E-13 -0.1292E-09 -0.7862E-13 -0.1256E-08 -0.3490E-14 -0.4762E-10 -0.3503E-14 -0.8910E-11 -0.1099E-14 -0.1644E-10 -0.3490E-14 -0.4762E-10 -0.3297E-14 -0.4933E-10
     -0.996 -0.7474E-06 -0.1577E-09 -0.5254E-07 -0.1109E-10 -0.5254E-07 -0.1109E-10 -0.4760E-08 -0.1005E-11 -0.3563E-08 -0.7540E-12 -0.1938E-07 -0.4098E-11 -0.5187E-09 -0.1094E-12 -0.3563E-08 -0.7540E-12 -0.1556E-08 -0.3283E-12
     -0.905 -0.3896E-02 -0.6173E-04 -0.2739E-03 -0.4343E-05 -0.2739E-03 -0.4343E-05 -0.2482E-04 -0.3934E-06 -0.1857E-04 -0.2951E-06 -0.1010E-03 -0.1604E-05 -0.2704E-05 -0.4284E-07 -0.1857E-04 -0.2951E-06 -0.8112E-05 -0.1285E-06
     -0.814  0.1321E+00 -0.4938E-02  0.9288E-02 -0.3474E-03  0.9288E-02 -0.3474E-03  0.8415E-03 -0.3147E-04  0.6298E-03 -0.2361E-04  0.3425E-02 -0.1283E-03  0.9169E-04 -0.3427E-05  0.6298E-03 -0.2361E-04  0.2751E-03 -0.1028E-04
     -0.723  0.9453E-01  0.2251E+00  0.6645E-02  0.1584E-01  0.6645E-02  0.1584E-01  0.6020E-03  0.1434E-02  0.4506E-03  0.1076E-02  0.2450E-02  0.5850E-02  0.6560E-04  0.1562E-03  0.4506E-03  0.1076E-02  0.1968E-03  0.4686E-03
     -0.632 -0.2303E-02  0.2616E-03 -0.1619E-03  0.1841E-04 -0.1619E-03  0.1841E-04 -0.1467E-04  0.1667E-05 -0.1098E-04  0.1251E-05 -0.5969E-04  0.6799E-05 -0.1598E-05  0.1815E-06 -0.1098E-04  0.1251E-05 -0.4794E-05  0.5446E-06
     -0.542 -0.1964E-06 -0.1234E-03 -0.1378E-07 -0.8683E-05 -0.1378E-07 -0.8683E-05 -0.1372E-08 -0.7865E-06 -0.1025E-08 -0.5901E-06 -0.5131E-08 -0.3207E-05 -0.1347E-09 -0.8564E-07 -0.1025E-08 -0.5901E-06 -0.4041E-09 -0.2569E-06
     -0.451 -0.1565E-03 -0.5508E-06 -0.9031E-05 -0.3180E-07 -0.9031E-05 -0.3180E-07 -0.9031E-05 -0.3176E-07 -0.6659E-05 -0.2348E-07 -0.6659E-05 -0.2349E-07 -0.5123E-11 -0.3743E-12 -0.6659E-05 -0.2348E-07 -0.2966E-16 -0.1123E-11
     -0.360  0.8124E-02 -0.1611E-02  0.4709E-03 -0.9297E-04  0.4618E-03 -0.9298E-04  0.4709E-03 -0.9297E-04  0.3474E-03 -0.6873E-04  0.3471E-03 -0.6873E-04 -0.2397E-05 -0.2441E-08  0.3471E-03 -0.6873E-04 -0.5419E-22 -0.2845E-23
     -0.269  0.5729E-01  0.4746E-01  0.3585E-02  0.2798E-02  0.2459E-02  0.2562E-02  0.3585E-02  0.2798E-02  0.2665E-02  0.2073E-02  0.2632E-02  0.2066E-02 -0.2968E-03 -0.6211E-04  0.2632E-02  0.2066E-02 -0.7623E-20  0.6739E-22
     -0.178  0.2041E+00  0.7803E-01  0.1331E-02  0.1661E-02  0.4329E-01  0.1309E-01  0.1331E-02  0.1661E-02  0.1945E-03  0.1013E-02  0.1419E-02  0.1347E-02  0.1106E-01  0.3009E-02  0.1419E-02  0.1347E-02  0.2862E-18  0.9329E-21
     -0.087  0.2551E-02  0.1529E+00  0.1797E-04  0.1064E-02  0.5371E-03  0.3227E-01  0.1797E-04  0.1064E-02  0.3515E-05  0.2006E-03  0.1867E-04  0.1113E-02  0.1368E-03  0.8216E-02  0.1867E-04  0.1113E-02  0.3541E-20  0.2441E-20
      0.004 -0.1422E-03 -0.5300E-02 -0.1011E-05 -0.3770E-04 -0.2991E-04 -0.1116E-02 -0.1011E-05 -0.3770E-04 -0.2037E-06 -0.7626E-05 -0.1047E-05 -0.3914E-04 -0.7613E-05 -0.2839E-03 -0.1047E-05 -0.3914E-04 -0.5748E-16 -0.1938E-21
      0.094 -0.8459E-07 -0.2327E-05 -0.5407E-08 -0.1656E-07 -0.4957E-09 -0.4900E-06 -0.1686E-07 -0.1656E-07 -0.5981E-08 -0.3349E-08 -0.1088E-08 -0.1719E-07 -0.1150E-08 -0.1247E-06 -0.1100E-08 -0.1719E-07 -0.1582E-08 -0.1551E-12
      0.185 -0.2159E-02 -0.1343E-04 -0.1391E-03 -0.8656E-06 -0.8737E-05 -0.5430E-07 -0.4342E-03 -0.2703E-05 -0.1540E-03 -0.9607E-06 -0.2788E-04 -0.1742E-06 -0.2859E-04 -0.1777E-06 -0.2818E-04 -0.1759E-06 -0.4073E-04 -0.2534E-06
      0.276  0.1048E+00 -0.1273E-01  0.6753E-02 -0.8204E-03  0.4241E-03 -0.5146E-04  0.2108E-01 -0.2562E-02  0.7476E-02 -0.9105E-03  0.1353E-02 -0.1651E-03  0.1388E-02 -0.1685E-03  0.1368E-02 -0.1667E-03  0.1977E-02 -0.2401E-03
      0.367  0.2895E+00  0.3374E+00  0.1865E-01  0.2175E-01  0.1171E-02  0.1364E-02  0.5822E-01  0.6790E-01  0.2065E-01  0.2414E-01  0.3738E-02  0.4376E-02  0.3833E-02  0.4466E-02  0.3778E-02  0.4419E-02  0.5462E-02  0.6366E-02
      0.458 -0.1288E-01  0.5819E-01 -0.7488E-03  0.3752E-02 -0.1435E-03  0.2337E-03 -0.2481E-02  0.1171E-01 -0.1042E-02  0.4160E-02 -0.4286E-03  0.7501E-03 -0.1439E-03  0.7706E-03 -0.4582E-03  0.7571E-03 -0.2228E-03  0.1098E-02
      0.549  0.9967E-01 -0.4984E-02  0.3589E-02 -0.2108E-03  0.3589E-02 -0.1440E-03  0.1620E-01 -0.8532E-03  0.1141E-01 -0.5247E-03  0.1043E-01 -0.4218E-03  0.3915E-03 -0.2986E-04  0.1141E-01 -0.4600E-03  0.1174E-02 -0.6653E-04
      0.640  0.7875E-01  0.1772E+00  0.2836E-02  0.6376E-02  0.2836E-02  0.6376E-02  0.1280E-01  0.2882E-01  0.9016E-02  0.2036E-01  0.8239E-02  0.1862E-01  0.3093E-03  0.6956E-03  0.9016E-02  0.2036E-01  0.9280E-03  0.2087E-02
      0.730 -0.1973E-02  0.1894E-03 -0.7105E-04  0.6816E-05 -0.7105E-04  0.6816E-05 -0.3208E-03  0.3080E-04 -0.2259E-03  0.2176E-04 -0.2064E-03  0.1990E-04 -0.7751E-05  0.7435E-06 -0.2259E-03  0.2176E-04 -0.2325E-04  0.2231E-05
      0.821 -0.1896E-06 -0.9694E-04 -0.6913E-08 -0.3489E-05 -0.6913E-08 -0.3489E-05 -0.3048E-07 -0.1577E-04 -0.2212E-07 -0.1114E-04 -0.2037E-07 -0.1019E-04 -0.7382E-09 -0.3806E-06 -0.2212E-07 -0.1114E-04 -0.2213E-08 -0.1142E-05
      0.912 -0.2455E-03 -0.9421E-06 -0.1905E-04 -0.6907E-07 -0.2006E-04 -0.6946E-07 -0.2370E-05 -0.1021E-07 -0.7102E-04 -0.2886E-06 -0.8285E-04 -0.3304E-06 -0.1384E-05 -0.1152E-08 -0.7103E-04 -0.2886E-06 -0.5888E-06 -0.2079E-08
      1.003  0.6535E-02 -0.3856E-02  0.7892E-03 -0.2960E-03 -0.7929E-03 -0.3503E-03  0.7350E-04 -0.3602E-04  0.3182E-02 -0.1079E-02  0.3670E-02 -0.1264E-02 -0.1864E-02 -0.6725E-04  0.3163E-02 -0.1080E-02  0.2526E-04 -0.9153E-05
      1.094  0.2951E+00  0.1244E+00  0.1548E-01  0.9635E-02  0.5907E-01  0.1161E-01  0.2551E-02  0.1132E-02  0.5134E-01  0.3431E-01  0.6091E-01  0.4036E-01  0.5173E-01  0.2436E-02  0.5185E-01  0.3433E-01  0.4482E-03  0.2992E-03
      1.185  0.9470E-01  0.2073E+00  0.1251E-01  0.6067E-02  0.2424E-01  0.5942E-01  0.2261E-03  0.1767E-02  0.8837E-03  0.2003E-01  0.1386E-01  0.2337E-01  0.1414E-01  0.6315E-01  0.1022E-02  0.2065E-01  0.7614E-03  0.1251E-03