    1    1    1    2
  0.1892174E+02  0.2991062E-09  0.2991062E-09  0.2991062E-09  0.5000000E-15
  1.000000000000000E-004
  CAR 
 unknown system                          
    5   28    9
 
  0.8333333E-01  0.8333333E-01  0.8333333E-01  0.9259259E-02
   1       -2.119159     -2.065000
   2        5.944260      5.989123
   3        6.308756      6.353681
   4        6.308756      6.353681
   5        9.017500      9.062362
   6        9.017500      9.062362
   7       18.714185     18.748623
   8       19.270212     19.306776
   9       21.707590     21.764051
 
  0.2500000E+00  0.8333333E-01  0.8333333E-01  0.2777778E-01
   1       -0.818985     -0.765232
   2        5.093707      5.138156
   3        6.561115      6.606993
   4        6.811902      6.856539
   5        8.257157      8.303326
   6        9.499823      9.543340
   7       19.262833     19.299814
   8       19.506946     19.557028
   9       21.257810     21.292942
 
  0.4166667E+00  0.8333333E-01  0.8333333E-01  0.2777778E-01
   1        1.036372      1.087080
   2        5.149265      5.197589
   3        5.956307      6.003589
   4        6.375586      6.422924
   5        9.806407      9.847856
   6       11.278062     11.317544
   7       16.930554     16.978878
   8       19.271764     19.308390
   9       19.862172     19.904113
 
 -0.4166667E+00  0.8333333E-01  0.8333333E-01  0.2777778E-01
   1        1.367279      1.415697
   2        5.414266      5.464928
   3        6.191279      6.238993
   4        6.238491      6.287069
   5       11.486851     11.524088
   6       11.653756     11.693339
   7       15.466598     15.510072
   8       18.354866     18.399573
   9       19.277161     19.313748
 
 -0.2500000E+00  0.8333333E-01  0.8333333E-01  0.2777778E-01
   1        0.545286      0.597588
   2        4.802984      4.848991
   3        6.148486      6.195866
   4        6.648146      6.694599
   5        9.376319      9.419485
   6       10.378050     10.419081
   7       17.746711     17.796570
   8       19.275081     19.311683
   9       21.252607     21.291339
 
 -0.8333333E-01  0.8333333E-01  0.8333333E-01  0.2777778E-01
   1       -1.434809     -1.380808
   2        5.343298      5.387771
   3        6.644729      6.689631
   4        6.668144      6.712931
   5        8.249389      8.295709
   6        9.343467      9.387665
   7       19.270142     19.306706
   8       19.991382     20.028061
   9       20.900134     20.950088
 
  0.2500000E+00  0.2500000E+00  0.8333333E-01  0.2777778E-01
   1       -0.217774     -0.163996
   2        4.434337      4.478386
   3        6.588863      6.636508
   4        7.396319      7.440819
   5        7.937823      7.982577
   6        9.935166      9.978068
   7       19.270491     19.307045
   8       20.715627     20.764905
   9       22.403086     22.436675
 
  0.4166667E+00  0.2500000E+00  0.8333333E-01  0.5555556E-01
   1        1.547504      1.600357
   2        3.890185      3.934415
   3        5.374337      5.422809
   4        7.983369      8.029155
   5        9.349589      9.392868
   6       11.562078     11.601352
   7       18.577050     18.627981
   8       19.284880     19.321758
   9       21.849050     21.926895
 
 -0.4166667E+00  0.2500000E+00  0.8333333E-01  0.5555556E-01
   1        2.563697      2.611324
   2        4.041215      4.092767
   3        5.441601      5.486551
   4        7.387359      7.434492
   5       11.050399     11.089341
   6       13.417584     13.461712
   7       14.637094     14.682917
   8       19.275488     19.312061
   9       20.688268     20.731137
 
 -0.2500000E+00  0.2500000E+00  0.8333333E-01  0.5555556E-01
   1        2.262421      2.313220
   2        4.397648      4.444195
   3        4.819182      4.866936
   4        7.520378      7.567824
   5        9.362211      9.403779
   6       12.667284     12.705994
   7       17.235018     17.286344
   8       19.278532     19.315155
   9       21.141516     21.186320
 
 -0.8333333E-01  0.2500000E+00  0.8333333E-01  0.5555556E-01
   1        0.290434      0.343735
   2        4.534117      4.578373
   3        6.129060      6.176745
   4        7.253546      7.299019
   5        8.277045      8.321892
   6       10.449023     10.490511
   7       19.211626     19.254148
   8       19.334955     19.378715
   9       22.476661     22.512625
 
  0.4166667E+00  0.4166667E+00  0.8333333E-01  0.2777778E-01
   1        1.613564      1.667236
   2        2.921303      2.964923
   3        6.524387      6.573045
   4        9.733617      9.776363
   5       10.795016     10.836572
   6       11.430973     11.469623
   7       18.031724     18.085367
   8       19.274447     19.311120
   9       19.412882     19.468374
 
 -0.4166667E+00  0.4166667E+00  0.8333333E-01  0.5555556E-01
   1        2.094888      2.147922
   2        3.060354      3.104157
   3        6.548669      6.594212
   4        9.532737      9.578916
   5       11.740688     11.776581
   6       13.884305     13.924474
   7       14.929415     14.983421
   8       17.901224     17.955486
   9       19.273520     19.310228
 
 -0.2500000E+00  0.4166667E+00  0.8333333E-01  0.5555556E-01
   1        3.161377      3.210128
   2        3.664643      3.714341
   3        5.194555      5.238615
   4        8.044819      8.092364
   5       10.694526     10.733007
   6       13.040190     13.090200
   7       16.282428     16.325747
   8       19.069575     19.113209
   9       19.290575     19.327817
 
 -0.8333333E-01  0.4166667E+00  0.8333333E-01  0.5555556E-01
   1        1.736196      1.785206
   2        4.844126      4.895168
   3        5.610462      5.656305
   4        6.691323      6.738701
   5       10.607663     10.647989
   6       12.249055     12.288080
   7       15.948714     15.995639
   8       19.275938     19.312543
   9       19.664809     19.708775
 
 -0.4166667E+00 -0.4166667E+00  0.8333333E-01  0.2777778E-01
   1        1.540944      1.594560
   2        2.579513      2.623042
   3        7.799436      7.847197
   4       10.824165     10.866158
   5       11.941629     11.976723
   6       12.458441     12.496015
   7       15.910989     15.967988
   8       17.577854     17.636433
   9       18.853275     18.900507
 
 -0.2500000E+00 -0.4166667E+00  0.8333333E-01  0.5555556E-01
   1        2.168525      2.221385
   2        3.352680      3.396815
   3        5.557613      5.605042
   4        8.962438      9.008122
   5       10.791242     10.831810
   6       12.599224     12.638063
   7       16.558382     16.611083
   8       19.274534     19.311208
   9       19.590127     19.643723
 
 -0.2500000E+00 -0.2500000E+00  0.8333333E-01  0.2777778E-01
   1        1.075759      1.129459
   2        3.570716      3.614487
   3        5.948623      5.997526
   4        8.462683      8.506526
   5        9.114934      9.158214
   6       10.679523     10.720585
   7       19.268306     19.304874
   8       20.421892     20.473712
   9       22.659768     21.968097
 
  0.2500000E+00  0.2500000E+00  0.2500000E+00  0.9259259E-02
   1       -0.333658     -0.280387
   2        5.027438      5.072693
   3        6.580469      6.626436
   4        6.580469      6.626436
   5        9.180947      9.224655
   6        9.180947      9.224655
   7       18.151786     18.202805
   8       19.274361     19.310961
   9       21.789166     21.823256
 
  0.4166667E+00  0.2500000E+00  0.2500000E+00  0.2777778E-01
   1        1.189714      1.241981
   2        4.580685      4.625308
   3        5.621010      5.669601
   4        7.130634      7.177749
   5        8.476479      8.519630
   6       11.637289     11.676723
   7       18.404509     18.454121
   8       19.281417     19.318147
   9       21.491681     21.537474
 
 -0.4166667E+00  0.2500000E+00  0.2500000E+00  0.2777778E-01
   1        2.862630      2.910614
   2        4.135102      4.187130
   3        5.016126      5.060381
   4        7.547392      7.594972
   5        9.838442      9.878346
   6       12.805839     12.850072
   7       16.827347     16.874238
   8       19.276538     19.313128
   9       19.948062     19.991252
 
 -0.2500000E+00  0.2500000E+00  0.2500000E+00  0.2777778E-01
   1        2.337059      2.387223
   2        3.719169      3.766966
   3        5.462892      5.509056
   4        7.969915      8.016037
   5       11.662055     11.698655
   6       12.603422     12.648662
   7       15.118436     15.166864
   8       19.275326     19.311902
   9       21.003376     21.297150
 
  0.4166667E+00  0.4166667E+00  0.2500000E+00  0.2777778E-01
   1        1.591375      1.642295
   2        4.337631      4.385051
   3        5.466978      5.514250
   4        7.141523      7.187998
   5       10.644502     10.687865
   6       11.372651     11.410854
   7       17.064606     17.113203
   8       19.277816     19.314429
   9       20.552350     20.595660
 
 -0.4166667E+00  0.4166667E+00  0.2500000E+00  0.5555556E-01
   1        3.054413      3.105374
   2        3.888946      3.936144
   3        4.632935      4.678273
   4        8.158738      8.206170
   5       10.586880     10.626348
   6       13.338913     13.382140
   7       16.164261     16.213285
   8       19.262837     19.300884
   9       19.355808     19.402804
 
 -0.2500000E+00  0.4166667E+00  0.2500000E+00  0.5555556E-01
   1        2.918764      2.971252
   2        3.888743      3.932876
   3        5.118742      5.163172
   4        8.110928      8.159975
   5       11.655700     11.692108
   6       14.579420     14.627436
   7       15.311306     15.359294
   8       17.684676     17.733758
   9       19.278943     19.315572
 
 -0.4166667E+00 -0.4166667E+00  0.2500000E+00  0.2777778E-01
   1        2.464694      2.515907
   2        3.424390      3.470480
   3        6.019883      6.064712
   4        8.889982      8.936113
   5       11.224397     11.261044
   6       13.148415     13.203773
   7       15.276619     15.316619
   8       19.235645     19.273029
   9       20.762055     19.444401
 
  0.4166667E+00  0.4166667E+00  0.4166667E+00  0.9259259E-02
   1        1.033410      1.082766
   2        5.875973      5.926960
   3        6.045304      6.092995
   4        6.045304      6.092995
   5       11.015181     11.053834
   6       11.015181     11.053834
   7       16.082400     16.128041
   8       18.462026     18.504562
   9       19.279102     19.315718
 
 -0.4166667E+00  0.4166667E+00  0.4166667E+00  0.2777778E-01
   1        2.047605      2.095454
   2        4.624420      4.676138
   3        5.808491      5.854389
   4        6.747233      6.794703
   5       10.862987     10.901517
   6       12.727383     12.769520
   7       15.193616     15.238661
   8       19.275962     19.312537
   9       19.853144     19.896212
