       N       E                     dE             d eps       ncg     rms          rms(c)
DAV:   1     0.238896491349E+01    0.23890E+01   -0.13809E+03  1245   0.214E+02
DAV:   2    -0.171129479173E+01   -0.41003E+01   -0.35674E+01  1168   0.312E+01
DAV:   3    -0.174869748401E+01   -0.37403E-01   -0.37372E-01  1360   0.276E+00
DAV:   4    -0.174872654245E+01   -0.29058E-04   -0.29050E-04  1215   0.538E-02
DAV:   5    -0.174872655648E+01   -0.14034E-07   -0.14130E-07  1273   0.120E-03    0.658E+00
DAV:   6    -0.111443722926E+02   -0.93956E+01   -0.25962E+00  1094   0.424E+00    0.460E+00
DAV:   7    -0.885422635009E+01    0.22901E+01   -0.35170E+00  1244   0.770E+00    0.450E+00
DAV:   8     0.390718498859E+02    0.47926E+02   -0.21303E+01  1363   0.237E+01    0.130E+01
DAV:   9    -0.115813514308E+02   -0.50653E+02   -0.63514E+00  1126   0.136E+01    0.234E+00
DAV:  10    -0.115844561062E+02   -0.31047E-02   -0.26611E-01  1305   0.282E+00    0.169E+00
DAV:  11    -0.115966892034E+02   -0.12233E-01   -0.65508E-02  1135   0.128E+00    0.100E+00
DAV:  12    -0.115034356582E+02    0.93254E-01   -0.40359E-01  1152   0.320E+00    0.239E+00
DAV:  13    -0.116276860009E+02   -0.12425E+00   -0.42639E-01  1068   0.326E+00    0.627E-01
DAV:  14    -0.116312726638E+02   -0.35867E-02   -0.66448E-03  1176   0.378E-01    0.206E-01
DAV:  15    -0.116310651552E+02    0.20751E-03   -0.84840E-04  1103   0.152E-01    0.101E-01
DAV:  16    -0.116314216812E+02   -0.35653E-03   -0.39467E-03  1094   0.312E-01    0.104E-01
DAV:  17    -0.116313452075E+02    0.76474E-04   -0.21655E-05   587   0.293E-02
   1 F= -.11631345E+02 E0= -.11631218E+02  d E =-.382041E-03  mag=     0.0573
