PROCAR lm decomposed
# of k-points:   28         # of bands:   9         # of ions:   1

 k-point    1 :    0.08333333 0.08333333 0.08333333     weight = 0.00925926

band   1 # energy   -2.11915907 # occ.  1.00000000
 
ion      s     py     pz     px    dxy    dyz    dz2    dxz    dx2    tot
  1  0.809  0.007  0.007  0.007  0.000  0.000  0.000  0.000  0.000  0.829
 
band   2 # energy    5.94425992 # occ.  0.00000000
 
ion      s     py     pz     px    dxy    dyz    dz2    dxz    dx2    tot
  1  0.000  0.003  0.003  0.003  0.325  0.325  0.000  0.325  0.000  0.985
 
band   3 # energy    6.30875617 # occ.  0.00000000
 
ion      s     py     pz     px    dxy    dyz    dz2    dxz    dx2    tot
  1  0.000  0.001  0.000  0.002  0.117  0.639  0.001  0.231  0.003  0.992
 
band   4 # energy    6.30875617 # occ.  0.00000000
 
ion      s     py     pz     px    dxy    dyz    dz2    dxz    dx2    tot
  1  0.000  0.001  0.001  0.000  0.541  0.019  0.003  0.427  0.001  0.992
 
band   5 # energy    9.01750048 # occ.  0.00000000
 
ion      s     py     pz     px    dxy    dyz    dz2    dxz    dx2    tot
  1  0.000  0.000  0.000  0.000  0.000  0.002  0.198  0.001  0.769  0.971
 
band   6 # energy    9.01750048 # occ.  0.00000000
 
ion      s     py     pz     px    dxy    dyz    dz2    dxz    dx2    tot
  1  0.000  0.000  0.000  0.000  0.002  0.000  0.769  0.001  0.198  0.971
 
band   7 # energy   18.71418490 # occ.  0.00000000
 
ion      s     py     pz     px    dxy    dyz    dz2    dxz    dx2    tot
  1  0.000  0.000  0.000  0.000  0.008  0.008  0.000  0.008  0.000  0.026
 
band   8 # energy   19.27021170 # occ.  0.00000000
 
ion      s     py     pz     px    dxy    dyz    dz2    dxz    dx2    tot
  1 43.816  0.000  0.000  0.000  0.000  0.000  0.000  0.000  0.000 43.816
 
band   9 # energy   21.70758975 # occ.  0.00000000
 
ion      s     py     pz     px    dxy    dyz    dz2    dxz    dx2    tot
  1  0.063  0.034  0.034  0.034  0.005  0.005  0.000  0.005  0.000  0.178
 

 k-point    2 :    0.25000000 0.08333333 0.08333333     weight = 0.02777778

band   1 # energy   -0.81898465 # occ.  1.00000000
 
ion      s     py     pz     px    dxy    dyz    dz2    dxz    dx2    tot
  1  0.721  0.051  0.051  0.005  0.003  0.019  0.001  0.003  0.002  0.855
 
band   2 # energy    5.09370686 # occ.  1.00000000
 
ion      s     py     pz     px    dxy    dyz    dz2    dxz    dx2    tot
  1  0.001  0.007  0.007  0.044  0.434  0.036  0.000  0.434  0.000  0.963
 
band   3 # energy    6.56111545 # occ.  0.00000000
 
ion      s     py     pz     px    dxy    dyz    dz2    dxz    dx2    tot
  1  0.000  0.015  0.015  0.001  0.020  0.702  0.049  0.020  0.148  0.969
 
band   4 # energy    6.81190206 # occ.  0.00000000
 
ion      s     py     pz     px    dxy    dyz    dz2    dxz    dx2    tot
  1  0.000  0.000  0.000  0.000  0.443  0.000  0.067  0.443  0.022  0.977
 
band   5 # energy    8.25715693 # occ.  0.00000000
 
ion      s     py     pz     px    dxy    dyz    dz2    dxz    dx2    tot
  1  0.000  0.002  0.002  0.000  0.044  0.000  0.636  0.044  0.212  0.940
 
band   6 # energy    9.49982341 # occ.  0.00000000
 
ion      s     py     pz     px    dxy    dyz    dz2    dxz    dx2    tot
  1  0.004  0.005  0.005  0.000  0.004  0.184  0.187  0.004  0.562  0.954
 
band   7 # energy   19.26283268 # occ.  0.00000000
 
ion      s     py     pz     px    dxy    dyz    dz2    dxz    dx2    tot
  1 41.728  0.001  0.001  0.001  0.000  0.001  0.000  0.000  0.001 41.734
 
band   8 # energy   19.50694609 # occ.  0.00000000
 
ion      s     py     pz     px    dxy    dyz    dz2    dxz    dx2    tot
  1  2.149  0.026  0.026  0.012  0.000  0.028  0.006  0.000  0.019  2.268
 
band   9 # energy   21.25781027 # occ.  0.00000000
 
ion      s     py     pz     px    dxy    dyz    dz2    dxz    dx2    tot
  1  0.040  0.010  0.010  0.003  0.074  0.030  0.001  0.074  0.003  0.244
 

 k-point    3 :    0.41666667 0.08333333 0.08333333     weight = 0.02777778

band   1 # energy    1.03637247 # occ.  1.00000000
 
ion      s     py     pz     px    dxy    dyz    dz2    dxz    dx2    tot
  1  0.468  0.046  0.046  0.002  0.111  0.142  0.001  0.111  0.002  0.930
 
band   2 # energy    5.14926535 # occ.  1.00000000
 
ion      s     py     pz     px    dxy    dyz    dz2    dxz    dx2    tot
  1  0.034  0.127  0.127  0.153  0.172  0.046  0.012  0.172  0.035  0.878
 
band   3 # energy    5.95630741 # occ.  0.00000000
 
ion      s     py     pz     px    dxy    dyz    dz2    dxz    dx2    tot
  1  0.004  0.001  0.001  0.012  0.090  0.294  0.118  0.090  0.353  0.962
 
band   4 # energy    6.37558566 # occ.  0.00000000
 
ion      s     py     pz     px    dxy    dyz    dz2    dxz    dx2    tot
  1  0.000  0.000  0.000  0.000  0.195  0.000  0.433  0.195  0.144  0.968
 
band   5 # energy    9.80640687 # occ.  0.00000000
 
ion      s     py     pz     px    dxy    dyz    dz2    dxz    dx2    tot
  1  0.000  0.006  0.006  0.000  0.282  0.000  0.268  0.282  0.089  0.934
 
band   6 # energy   11.27806241 # occ.  0.00000000
 
ion      s     py     pz     px    dxy    dyz    dz2    dxz    dx2    tot
  1  0.011  0.021  0.021  0.001  0.031  0.415  0.106  0.031  0.319  0.956
 
band   7 # energy   16.93055426 # occ.  0.00000000
 
ion      s     py     pz     px    dxy    dyz    dz2    dxz    dx2    tot
  1  0.191  0.035  0.035  0.029  0.052  0.109  0.005  0.052  0.014  0.522
 
band   8 # energy   19.27176417 # occ.  0.00000000
 
ion      s     py     pz     px    dxy    dyz    dz2    dxz    dx2    tot
  1 43.237  0.000  0.000  0.000  0.000  0.000  0.000  0.000  0.000 43.238
 
band   9 # energy   19.86217220 # occ.  0.00000000
 
ion      s     py     pz     px    dxy    dyz    dz2    dxz    dx2    tot
  1  0.862  0.068  0.068  0.035  0.075  0.031  0.001  0.075  0.004  1.219
 

 k-point    4 :   -0.41666667 0.08333333 0.08333333     weight = 0.02777778

band   1 # energy    1.36727927 # occ.  1.00000000
 
ion      s     py     pz     px    dxy    dyz    dz2    dxz    dx2    tot
  1  0.342  0.001  0.001  0.020  0.191  0.222  0.000  0.191  0.001  0.968
 
band   2 # energy    5.41426646 # occ.  1.00000000
 
ion      s     py     pz     px    dxy    dyz    dz2    dxz    dx2    tot
  1  0.001  0.078  0.078  0.041  0.043  0.062  0.137  0.043  0.412  0.896
 
band   3 # energy    6.19127901 # occ.  0.00000000
 
ion      s     py     pz     px    dxy    dyz    dz2    dxz    dx2    tot
  1  0.000  0.003  0.003  0.000  0.186  0.000  0.439  0.186  0.146  0.964
 
band   4 # energy    6.23849114 # occ.  0.00000000
 
ion      s     py     pz     px    dxy    dyz    dz2    dxz    dx2    tot
  1  0.005  0.157  0.157  0.190  0.032  0.268  0.015  0.032  0.046  0.902
 
band   5 # energy   11.48685066 # occ.  0.00000000
 
ion      s     py     pz     px    dxy    dyz    dz2    dxz    dx2    tot
  1  0.000  0.000  0.000  0.000  0.301  0.000  0.272  0.301  0.091  0.965
 
band   6 # energy   11.65375640 # occ.  0.00000000
 
ion      s     py     pz     px    dxy    dyz    dz2    dxz    dx2    tot
  1  0.000  0.022  0.022  0.051  0.097  0.314  0.084  0.097  0.253  0.941
 
band   7 # energy   15.46659842 # occ.  0.00000000
 
ion      s     py     pz     px    dxy    dyz    dz2    dxz    dx2    tot
  1  0.470  0.003  0.003  0.004  0.166  0.124  0.000  0.166  0.000  0.936
 
band   8 # energy   18.35486636 # occ.  0.00000000
 
ion      s     py     pz     px    dxy    dyz    dz2    dxz    dx2    tot
  1  0.004  0.013  0.013  0.024  0.000  0.026  0.004  0.000  0.011  0.097
 
band   9 # energy   19.27716098 # occ.  0.00000000
 
ion      s     py     pz     px    dxy    dyz    dz2    dxz    dx2    tot
  1 44.002  0.000  0.000  0.000  0.000  0.000  0.000  0.000  0.000 44.003
 

 k-point    5 :   -0.25000000 0.08333333 0.08333333     weight = 0.02777778

band   1 # energy    0.54528609 # occ.  1.00000000
 
ion      s     py     pz     px    dxy    dyz    dz2    dxz    dx2    tot
  1  0.568  0.020  0.020  0.092  0.065  0.059  0.002  0.065  0.007  0.899
 
band   2 # energy    4.80298439 # occ.  1.00000000
 
ion      s     py     pz     px    dxy    dyz    dz2    dxz    dx2    tot
  1  0.020  0.085  0.085  0.056  0.100  0.457  0.004  0.100  0.013  0.922
 
band   3 # energy    6.14848553 # occ.  0.00000000
 
ion      s     py     pz     px    dxy    dyz    dz2    dxz    dx2    tot
  1  0.003  0.001  0.001  0.000  0.100  0.229  0.130  0.100  0.391  0.956
 
band   4 # energy    6.64814585 # occ.  0.00000000
 
ion      s     py     pz     px    dxy    dyz    dz2    dxz    dx2    tot
  1  0.000  0.009  0.009  0.000  0.275  0.000  0.302  0.275  0.101  0.970
 
band   5 # energy    9.37631941 # occ.  0.00000000
 
ion      s     py     pz     px    dxy    dyz    dz2    dxz    dx2    tot
  1  0.008  0.005  0.005  0.040  0.161  0.176  0.095  0.161  0.284  0.933
 
band   6 # energy   10.37804967 # occ.  0.00000000
 
ion      s     py     pz     px    dxy    dyz    dz2    dxz    dx2    tot
  1  0.000  0.006  0.006  0.000  0.194  0.000  0.411  0.194  0.137  0.947
 
band   7 # energy   17.74671138 # occ.  0.00000000
 
ion      s     py     pz     px    dxy    dyz    dz2    dxz    dx2    tot
  1  0.096  0.033  0.033  0.027  0.052  0.012  0.004  0.052  0.012  0.321
 
band   8 # energy   19.27508056 # occ.  0.00000000
 
ion      s     py     pz     px    dxy    dyz    dz2    dxz    dx2    tot
  1 43.770  0.000  0.000  0.000  0.000  0.000  0.000  0.000  0.000 43.770
 
band   9 # energy   21.25260700 # occ.  0.00000000
 
ion      s     py     pz     px    dxy    dyz    dz2    dxz    dx2    tot
  1  0.291  0.068  0.068  0.083  0.089  0.128  0.002  0.089  0.006  0.825
 

 k-point    6 :   -0.08333333 0.08333333 0.08333333     weight = 0.02777778

band   1 # energy   -1.43480864 # occ.  1.00000000
 
ion      s     py     pz     px    dxy    dyz    dz2    dxz    dx2    tot
  1  0.765  0.006  0.006  0.057  0.002  0.000  0.001  0.002  0.002  0.841
 
band   2 # energy    5.34329848 # occ.  1.00000000
 
ion      s     py     pz     px    dxy    dyz    dz2    dxz    dx2    tot
  1  0.000  0.008  0.008  0.001  0.061  0.833  0.000  0.061  0.000  0.972
 
band   3 # energy    6.64472883 # occ.  0.00000000
 
ion      s     py     pz     px    dxy    dyz    dz2    dxz    dx2    tot
  1  0.000  0.006  0.006  0.003  0.394  0.130  0.011  0.394  0.032  0.977
 
band   4 # energy    6.66814435 # occ.  0.00000000
 
ion      s     py     pz     px    dxy    dyz    dz2    dxz    dx2    tot
  1  0.000  0.010  0.010  0.000  0.467  0.000  0.022  0.467  0.007  0.983
 
band   5 # energy    8.24938875 # occ.  0.00000000
 
ion      s     py     pz     px    dxy    dyz    dz2    dxz    dx2    tot
  1  0.003  0.000  0.000  0.003  0.018  0.005  0.223  0.018  0.669  0.941
 
band   6 # energy    9.34346725 # occ.  0.00000000
 
ion      s     py     pz     px    dxy    dyz    dz2    dxz    dx2    tot
  1  0.000  0.000  0.000  0.000  0.015  0.000  0.704  0.015  0.235  0.968
 
band   7 # energy   19.27014193 # occ.  0.00000000
 
ion      s     py     pz     px    dxy    dyz    dz2    dxz    dx2    tot
  1 43.731  0.000  0.000  0.000  0.000  0.000  0.000  0.000  0.000 43.732
 
band   8 # energy   19.99138164 # occ.  0.00000000
 
ion      s     py     pz     px    dxy    dyz    dz2    dxz    dx2    tot
  1  0.025  0.002  0.002  0.002  0.002  0.056  0.001  0.002  0.002  0.094
 
band   9 # energy   20.90013387 # occ.  0.00000000
 
ion      s     py     pz     px    dxy    dyz    dz2    dxz    dx2    tot
  1  0.139  0.021  0.021  0.032  0.020  0.018  0.008  0.020  0.025  0.303
 

 k-point    7 :    0.25000000 0.25000000 0.08333333     weight = 0.02777778

band   1 # energy   -0.21777354 # occ.  1.00000000
 
ion      s     py     pz     px    dxy    dyz    dz2    dxz    dx2    tot
  1  0.665  0.005  0.140  0.005  0.001  0.005  0.036  0.005  0.000  0.861
 
band   2 # energy    4.43433723 # occ.  1.00000000
 
ion      s     py     pz     px    dxy    dyz    dz2    dxz    dx2    tot
  1  0.000  0.008  0.001  0.008  0.920  0.017  0.001  0.017  0.000  0.971
 
band   3 # energy    6.58886289 # occ.  0.00000000
 
ion      s     py     pz     px    dxy    dyz    dz2    dxz    dx2    tot
  1  0.014  0.007  0.007  0.007  0.017  0.125  0.631  0.125  0.000  0.934
 
band   4 # energy    7.39631891 # occ.  0.00000000
 
ion      s     py     pz     px    dxy    dyz    dz2    dxz    dx2    tot
  1  0.000  0.023  0.000  0.023  0.000  0.418  0.000  0.418  0.082  0.964
 
band   5 # energy    7.93782291 # occ.  0.00000000
 
ion      s     py     pz     px    dxy    dyz    dz2    dxz    dx2    tot
  1  0.010  0.017  0.022  0.017  0.029  0.305  0.243  0.305  0.000  0.947
 
band   6 # energy    9.93516640 # occ.  0.00000000
 
ion      s     py     pz     px    dxy    dyz    dz2    dxz    dx2    tot
  1  0.000  0.001  0.000  0.001  0.000  0.039  0.000  0.039  0.884  0.965
 
band   7 # energy   19.27049052 # occ.  0.00000000
 
ion      s     py     pz     px    dxy    dyz    dz2    dxz    dx2    tot
  1 43.648  0.000  0.000  0.000  0.000  0.000  0.000  0.000  0.000 43.648
 
band   8 # energy   20.71562749 # occ.  0.00000000
 
ion      s     py     pz     px    dxy    dyz    dz2    dxz    dx2    tot
  1  0.213  0.036  0.021  0.036  0.000  0.028  0.093  0.028  0.000  0.454
 
band   9 # energy   22.40308560 # occ.  0.00000000
 
ion      s     py     pz     px    dxy    dyz    dz2    dxz    dx2    tot
  1  0.010  0.007  0.003  0.007  0.180  0.018  0.001  0.018  0.000  0.245
 

 k-point    8 :    0.41666667 0.25000000 0.08333333     weight = 0.05555556

band   1 # energy    1.54750392 # occ.  1.00000000
 
ion      s     py     pz     px    dxy    dyz    dz2    dxz    dx2    tot
  1  0.447  0.032  0.175  0.001  0.025  0.052  0.144  0.010  0.000  0.886
 
band   2 # energy    3.89018486 # occ.  1.00000000
 
ion      s     py     pz     px    dxy    dyz    dz2    dxz    dx2    tot
  1  0.003  0.016  0.006  0.064  0.795  0.006  0.024  0.052  0.000  0.965
 
band   3 # energy    5.37433720 # occ.  1.00000000
 
ion      s     py     pz     px    dxy    dyz    dz2    dxz    dx2    tot
  1  0.048  0.015  0.040  0.000  0.037  0.236  0.504  0.008  0.034  0.922
 
band   4 # energy    7.98336892 # occ.  0.00000000
 
ion      s     py     pz     px    dxy    dyz    dz2    dxz    dx2    tot
  1  0.004  0.022  0.028  0.017  0.016  0.137  0.077  0.259  0.380  0.940
 
band   5 # energy    9.34958930 # occ.  0.00000000
 
ion      s     py     pz     px    dxy    dyz    dz2    dxz    dx2    tot
  1  0.007  0.012  0.048  0.040  0.067  0.040  0.097  0.513  0.105  0.928
 
band   6 # energy   11.56207834 # occ.  0.00000000
 
ion      s     py     pz     px    dxy    dyz    dz2    dxz    dx2    tot
  1  0.022  0.023  0.029  0.000  0.001  0.420  0.040  0.009  0.423  0.968
 
band   7 # energy   18.57704970 # occ.  0.00000000
 
ion      s     py     pz     px    dxy    dyz    dz2    dxz    dx2    tot
  1  0.368  0.166  0.085  0.042  0.012  0.127  0.012  0.043  0.027  0.883
 
band   8 # energy   19.28488050 # occ.  0.00000000
 
ion      s     py     pz     px    dxy    dyz    dz2    dxz    dx2    tot
  1 43.718  0.003  0.001  0.001  0.000  0.003  0.000  0.001  0.000 43.726
 
band   9 # energy   21.84904998 # occ.  0.00000000
 
ion      s     py     pz     px    dxy    dyz    dz2    dxz    dx2    tot
  1  0.070  0.011  0.087  0.025  0.030  0.001  0.206  0.015  0.003  0.447
 

 k-point    9 :   -0.41666667 0.25000000 0.08333333     weight = 0.05555556

band   1 # energy    2.56369726 # occ.  1.00000000
 
ion      s     py     pz     px    dxy    dyz    dz2    dxz    dx2    tot
  1  0.232  0.000  0.068  0.024  0.338  0.157  0.052  0.087  0.000  0.958
 
band   2 # energy    4.04121550 # occ.  1.00000000
 
ion      s     py     pz     px    dxy    dyz    dz2    dxz    dx2    tot
  1  0.001  0.117  0.007  0.064  0.006  0.047  0.546  0.013  0.060  0.863
 
band   3 # energy    5.44160072 # occ.  1.00000011
 
ion      s     py     pz     px    dxy    dyz    dz2    dxz    dx2    tot
  1  0.014  0.038  0.166  0.090  0.339  0.260  0.018  0.011  0.010  0.945
 
band   4 # energy    7.38735898 # occ.  0.00000000
 
ion      s     py     pz     px    dxy    dyz    dz2    dxz    dx2    tot
  1  0.001  0.008  0.024  0.019  0.006  0.030  0.068  0.205  0.573  0.935
 
band   5 # energy   11.05039867 # occ.  0.00000000
 
ion      s     py     pz     px    dxy    dyz    dz2    dxz    dx2    tot
  1  0.034  0.003  0.006  0.002  0.074  0.173  0.028  0.436  0.179  0.936
 
band   6 # energy   13.41758360 # occ.  0.00000000
 
ion      s     py     pz     px    dxy    dyz    dz2    dxz    dx2    tot
  1  0.002  0.057  0.182  0.120  0.136  0.189  0.166  0.001  0.062  0.915
 
band   7 # energy   14.63709450 # occ.  0.00000000
 
ion      s     py     pz     px    dxy    dyz    dz2    dxz    dx2    tot
  1  0.496  0.003  0.001  0.004  0.053  0.116  0.021  0.203  0.024  0.920
 
band   8 # energy   19.27548778 # occ.  0.00000000
 
ion      s     py     pz     px    dxy    dyz    dz2    dxz    dx2    tot
  1 43.910  0.000  0.000  0.000  0.000  0.000  0.000  0.000  0.000 43.911
 
band   9 # energy   20.68826832 # occ.  0.00000000
 
ion      s     py     pz     px    dxy    dyz    dz2    dxz    dx2    tot
  1  0.028  0.013  0.117  0.000  0.012  0.063  0.195  0.012  0.006  0.446
 

 k-point   10 :   -0.25000000 0.25000000 0.08333333     weight = 0.05555556

band   1 # energy    2.26242136 # occ.  1.00000000
 
ion      s     py     pz     px    dxy    dyz    dz2    dxz    dx2    tot
  1  0.385  0.067  0.002  0.149  0.189  0.054  0.016  0.027  0.026  0.915
 
band   2 # energy    4.39764782 # occ.  1.00000000
 
ion      s     py     pz     px    dxy    dyz    dz2    dxz    dx2    tot
  1  0.004  0.057  0.125  0.027  0.022  0.399  0.129  0.116  0.039  0.919
 
band   3 # energy    4.81918227 # occ.  1.00000000
 
ion      s     py     pz     px    dxy    dyz    dz2    dxz    dx2    tot
  1  0.017  0.015  0.029  0.002  0.238  0.182  0.354  0.027  0.068  0.931
 
band   4 # energy    7.52037817 # occ.  0.00000000
 
ion      s     py     pz     px    dxy    dyz    dz2    dxz    dx2    tot
  1  0.001  0.002  0.002  0.049  0.012  0.032  0.079  0.108  0.645  0.931
 
band   5 # energy    9.36221143 # occ.  0.00000000
 
ion      s     py     pz     px    dxy    dyz    dz2    dxz    dx2    tot
  1  0.000  0.000  0.017  0.015  0.000  0.211  0.006  0.559  0.120  0.929
 
band   6 # energy   12.66728376 # occ.  0.00000000
 
ion      s     py     pz     px    dxy    dyz    dz2    dxz    dx2    tot
  1  0.107  0.021  0.003  0.043  0.510  0.002  0.295  0.001  0.000  0.981
 
band   7 # energy   17.23501769 # occ.  0.00000000
 
ion      s     py     pz     px    dxy    dyz    dz2    dxz    dx2    tot
  1  0.225  0.136  0.028  0.117  0.044  0.024  0.122  0.038  0.002  0.737
 
band   8 # energy   19.27853179 # occ.  0.00000000
 
ion      s     py     pz     px    dxy    dyz    dz2    dxz    dx2    tot
  1 43.994  0.000  0.000  0.000  0.000  0.000  0.000  0.000  0.000 43.996
 
band   9 # energy   21.14151563 # occ.  0.00000000
 
ion      s     py     pz     px    dxy    dyz    dz2    dxz    dx2    tot
  1  0.004  0.015  0.470  0.002  0.003  0.177  0.039  0.220  0.001  0.931
 

 k-point   11 :   -0.08333333 0.25000000 0.08333333     weight = 0.05555556

band   1 # energy    0.29043432 # occ.  1.00000000
 
ion      s     py     pz     px    dxy    dyz    dz2    dxz    dx2    tot
  1  0.625  0.040  0.003  0.126  0.045  0.008  0.008  0.008  0.012  0.874
 
band   2 # energy    4.53411676 # occ.  1.00000000
 
ion      s     py     pz     px    dxy    dyz    dz2    dxz    dx2    tot
  1  0.003  0.012  0.061  0.007  0.013  0.706  0.002  0.156  0.002  0.961
 
band   3 # energy    6.12905954 # occ.  0.00000000
 
ion      s     py     pz     px    dxy    dyz    dz2    dxz    dx2    tot
  1  0.004  0.024  0.000  0.001  0.367  0.038  0.317  0.004  0.184  0.939
 
band   4 # energy    7.25354602 # occ.  0.00000000
 
ion      s     py     pz     px    dxy    dyz    dz2    dxz    dx2    tot
  1  0.001  0.006  0.011  0.006  0.101  0.084  0.046  0.429  0.272  0.956
 
band   5 # energy    8.27704525 # occ.  0.00000000
 
ion      s     py     pz     px    dxy    dyz    dz2    dxz    dx2    tot
  1  0.006  0.004  0.009  0.025  0.072  0.103  0.001  0.294  0.426  0.939
 
band   6 # energy   10.44902290 # occ.  0.00000000
 
ion      s     py     pz     px    dxy    dyz    dz2    dxz    dx2    tot
  1  0.009  0.016  0.000  0.012  0.311  0.001  0.564  0.010  0.032  0.956
 
band   7 # energy   19.21162558 # occ.  0.00000000
 
ion      s     py     pz     px    dxy    dyz    dz2    dxz    dx2    tot
  1 20.368  0.031  0.009  0.019  0.042  0.001  0.026  0.006  0.005 20.507
 
band   8 # energy   19.33495503 # occ.  0.00000000
 
ion      s     py     pz     px    dxy    dyz    dz2    dxz    dx2    tot
  1 23.549  0.028  0.009  0.015  0.042  0.001  0.026  0.006  0.006 23.682
 
band   9 # energy   22.47666081 # occ.  0.00000000
 
ion      s     py     pz     px    dxy    dyz    dz2    dxz    dx2    tot
  1  0.082  0.051  0.038  0.041  0.044  0.160  0.001  0.089  0.004  0.511
 

 k-point   12 :    0.41666667 0.41666667 0.08333333     weight = 0.02777778

band   1 # energy    1.61356421 # occ.  1.00000000
 
ion      s     py     pz     px    dxy    dyz    dz2    dxz    dx2    tot
  1  0.224  0.004  0.079  0.004  0.005  0.001  0.566  0.001  0.000  0.885
 
band   2 # energy    2.92130321 # occ.  1.00000000
 
ion      s     py     pz     px    dxy    dyz    dz2    dxz    dx2    tot
  1  0.000  0.007  0.000  0.007  0.975  0.002  0.004  0.002  0.000  0.998
 
band   3 # energy    6.52438738 # occ.  0.00000000
 
ion      s     py     pz     px    dxy    dyz    dz2    dxz    dx2    tot
  1  0.149  0.002  0.410  0.002  0.002  0.058  0.240  0.058  0.000  0.921
 
band   4 # energy    9.73361665 # occ.  0.00000000
 
ion      s     py     pz     px    dxy    dyz    dz2    dxz    dx2    tot
  1  0.000  0.037  0.000  0.037  0.000  0.253  0.000  0.253  0.354  0.933
 
band   5 # energy   10.79501620 # occ.  0.00000000
 
ion      s     py     pz     px    dxy    dyz    dz2    dxz    dx2    tot
  1  0.011  0.047  0.076  0.047  0.007  0.354  0.032  0.354  0.000  0.927
 
band   6 # energy   11.43097319 # occ.  0.00000000
 
ion      s     py     pz     px    dxy    dyz    dz2    dxz    dx2    tot
  1  0.000  0.006  0.000  0.006  0.000  0.178  0.000  0.178  0.600  0.966
 
band   7 # energy   18.03172429 # occ.  0.00000000
 
ion      s     py     pz     px    dxy    dyz    dz2    dxz    dx2    tot
  1  0.149  0.187  0.060  0.187  0.008  0.081  0.008  0.081  0.000  0.761
 
band   8 # energy   19.27444724 # occ.  0.00000000
 
ion      s     py     pz     px    dxy    dyz    dz2    dxz    dx2    tot
  1 43.531  0.002  0.000  0.002  0.000  0.001  0.000  0.001  0.000 43.537
 
band   9 # energy   19.41288194 # occ.  0.00000000
 
ion      s     py     pz     px    dxy    dyz    dz2    dxz    dx2    tot
  1  0.000  0.293  0.000  0.293  0.000  0.086  0.000  0.086  0.022  0.780
 

 k-point   13 :   -0.41666667 0.41666667 0.08333333     weight = 0.05555556

band   1 # energy    2.09488781 # occ.  1.00000000
 
ion      s     py     pz     px    dxy    dyz    dz2    dxz    dx2    tot
  1  0.093  0.035  0.008  0.001  0.033  0.001  0.708  0.000  0.004  0.883
 
band   2 # energy    3.06035411 # occ.  1.00000000
 
ion      s     py     pz     px    dxy    dyz    dz2    dxz    dx2    tot
  1  0.000  0.013  0.000  0.062  0.890  0.001  0.021  0.002  0.000  0.989
 
band   3 # energy    6.54866941 # occ.  0.00000000
 
ion      s     py     pz     px    dxy    dyz    dz2    dxz    dx2    tot
  1  0.034  0.001  0.462  0.000  0.003  0.370  0.017  0.029  0.008  0.924
 
band   4 # energy    9.53273725 # occ.  0.00000000
 
ion      s     py     pz     px    dxy    dyz    dz2    dxz    dx2    tot
  1  0.031  0.056  0.026  0.007  0.000  0.001  0.007  0.021  0.760  0.911
 
band   5 # energy   11.74068824 # occ.  0.00000000
 
ion      s     py     pz     px    dxy    dyz    dz2    dxz    dx2    tot
  1  0.010  0.002  0.001  0.017  0.006  0.124  0.000  0.772  0.021  0.952
 
band   6 # energy   13.88430500 # occ.  0.00000000
 
ion      s     py     pz     px    dxy    dyz    dz2    dxz    dx2    tot
  1  0.023  0.007  0.312  0.015  0.003  0.488  0.023  0.093  0.008  0.972
 
band   7 # energy   14.92941518 # occ.  0.00000000
 
ion      s     py     pz     px    dxy    dyz    dz2    dxz    dx2    tot
  1  0.407  0.090  0.015  0.138  0.033  0.003  0.016  0.031  0.089  0.821
 
band   8 # energy   17.90122426 # occ.  0.00000000
 
ion      s     py     pz     px    dxy    dyz    dz2    dxz    dx2    tot
  1  0.071  0.029  0.022  0.495  0.037  0.002  0.045  0.033  0.076  0.810
 
band   9 # energy   19.27352015 # occ.  0.00000000
 
ion      s     py     pz     px    dxy    dyz    dz2    dxz    dx2    tot
  1 43.322  0.005  0.000  0.001  0.000  0.000  0.001  0.000  0.002 43.331
 

 k-point   14 :   -0.25000000 0.41666667 0.08333333     weight = 0.05555556

band   1 # energy    3.16137690 # occ.  1.00000000
 
ion      s     py     pz     px    dxy    dyz    dz2    dxz    dx2    tot
  1  0.107  0.007  0.016  0.015  0.412  0.020  0.340  0.011  0.007  0.935
 
band   2 # energy    3.66464251 # occ.  1.00000000
 
ion      s     py     pz     px    dxy    dyz    dz2    dxz    dx2    tot
  1  0.038  0.131  0.002  0.129  0.185  0.029  0.316  0.011  0.043  0.886
 
band   3 # energy    5.19455547 # occ.  1.00000000
 
ion      s     py     pz     px    dxy    dyz    dz2    dxz    dx2    tot
  1  0.001  0.009  0.268  0.020  0.079  0.468  0.002  0.094  0.001  0.941
 
band   4 # energy    8.04481939 # occ.  0.00000000
 
ion      s     py     pz     px    dxy    dyz    dz2    dxz    dx2    tot
  1  0.024  0.008  0.007  0.041  0.006  0.005  0.044  0.049  0.731  0.916
 
band   5 # energy   10.69452580 # occ.  0.00000000
 
ion      s     py     pz     px    dxy    dyz    dz2    dxz    dx2    tot
  1  0.023  0.001  0.009  0.000  0.019  0.242  0.002  0.606  0.035  0.936
 
band   6 # energy   13.04019027 # occ.  0.00000000
 
ion      s     py     pz     px    dxy    dyz    dz2    dxz    dx2    tot
  1  0.425  0.018  0.017  0.083  0.238  0.002  0.014  0.023  0.050  0.870
 
band   7 # energy   16.28242824 # occ.  0.00000000
 
ion      s     py     pz     px    dxy    dyz    dz2    dxz    dx2    tot
  1  0.104  0.037  0.255  0.075  0.013  0.179  0.154  0.146  0.002  0.964
 
band   8 # energy   19.06957467 # occ.  0.00000000
 
ion      s     py     pz     px    dxy    dyz    dz2    dxz    dx2    tot
  1  2.221  0.049  0.234  0.129  0.024  0.091  0.218  0.080  0.008  3.055
 
band   9 # energy   19.29057457 # occ.  0.00000000
 
ion      s     py     pz     px    dxy    dyz    dz2    dxz    dx2    tot
  1 41.827  0.004  0.014  0.008  0.001  0.005  0.018  0.004  0.001 41.883
 

 k-point   15 :   -0.08333333 0.41666667 0.08333333     weight = 0.05555556

band   1 # energy    1.73619644 # occ.  1.00000000
 
ion      s     py     pz     px    dxy    dyz    dz2    dxz    dx2    tot
  1  0.350  0.012  0.003  0.068  0.189  0.194  0.003  0.124  0.008  0.952
 
band   2 # energy    4.84412567 # occ.  1.00000000
 
ion      s     py     pz     px    dxy    dyz    dz2    dxz    dx2    tot
  1  0.005  0.129  0.081  0.060  0.071  0.014  0.318  0.027  0.158  0.862
 
band   3 # energy    5.61046176 # occ.  0.93530195
 
ion      s     py     pz     px    dxy    dyz    dz2    dxz    dx2    tot
  1  0.026  0.032  0.104  0.078  0.159  0.400  0.112  0.017  0.027  0.954
 
band   4 # energy    6.69132281 # occ.  0.00000000
 
ion      s     py     pz     px    dxy    dyz    dz2    dxz    dx2    tot
  1  0.000  0.004  0.004  0.016  0.047  0.049  0.147  0.244  0.442  0.953
 
band   5 # energy   10.60766270 # occ.  0.00000000
 
ion      s     py     pz     px    dxy    dyz    dz2    dxz    dx2    tot
  1  0.000  0.002  0.013  0.035  0.005  0.177  0.011  0.410  0.280  0.934
 
band   6 # energy   12.24905494 # occ.  0.00000000
 
ion      s     py     pz     px    dxy    dyz    dz2    dxz    dx2    tot
  1  0.032  0.028  0.021  0.054  0.441  0.033  0.340  0.013  0.002  0.963
 
band   7 # energy   15.94871442 # occ.  0.00000000
 
ion      s     py     pz     px    dxy    dyz    dz2    dxz    dx2    tot
  1  0.367  0.044  0.032  0.041  0.106  0.082  0.026  0.135  0.001  0.835
 
band   8 # energy   19.27593845 # occ.  0.00000000
 
ion      s     py     pz     px    dxy    dyz    dz2    dxz    dx2    tot
  1 43.808  0.000  0.000  0.000  0.000  0.000  0.000  0.000  0.000 43.809
 
band   9 # energy   19.66480904 # occ.  0.00000000
 
ion      s     py     pz     px    dxy    dyz    dz2    dxz    dx2    tot
  1  0.196  0.013  0.013  0.043  0.007  0.043  0.027  0.009  0.022  0.373
 

 k-point   16 :   -0.41666667-0.41666667 0.08333333     weight = 0.02777778

band   1 # energy    1.54094373 # occ.  1.00000000
 
ion      s     py     pz     px    dxy    dyz    dz2    dxz    dx2    tot
  1  0.124  0.004  0.008  0.004  0.004  0.000  0.743  0.000  0.000  0.887
 
band   2 # energy    2.57951348 # occ.  1.00000000
 
ion      s     py     pz     px    dxy    dyz    dz2    dxz    dx2    tot
  1  0.000  0.007  0.000  0.007  0.991  0.000  0.003  0.000  0.000  1.009
 
band   3 # energy    7.79943630 # occ.  0.00000000
 
ion      s     py     pz     px    dxy    dyz    dz2    dxz    dx2    tot
  1  0.037  0.000  0.698  0.000  0.000  0.075  0.027  0.075  0.000  0.914
 
band   4 # energy   10.82416520 # occ.  0.00000000
 
ion      s     py     pz     px    dxy    dyz    dz2    dxz    dx2    tot
  1  0.000  0.022  0.000  0.022  0.000  0.059  0.000  0.059  0.780  0.940
 
band   5 # energy   11.94162866 # occ.  0.00000000
 
ion      s     py     pz     px    dxy    dyz    dz2    dxz    dx2    tot
  1  0.000  0.002  0.000  0.002  0.000  0.409  0.000  0.409  0.143  0.967
 
band   6 # energy   12.45844088 # occ.  0.00000000
 
ion      s     py     pz     px    dxy    dyz    dz2    dxz    dx2    tot
  1  0.002  0.018  0.136  0.018  0.001  0.387  0.006  0.387  0.000  0.956
 