<?xml version="1.0" encoding="ISO-8859-1"?>
<modeling>
 <generator>
  <i name="program" type="string">vasp </i>
  <i name="version" type="string">5.2.12  </i>
  <i name="subversion" type="string">11Nov11 complex                                                      parallel </i>
  <i name="platform" type="string">LinuxIFC </i>
  <i name="date" type="string">2012 10 17 </i>
  <i name="time" type="string">11:06:58 </i>
 </generator>
 <incar>
  <i type="int" name="ISTART">     0</i>
  <i type="string" name="PREC">accurate</i>
  <i type="int" name="ISPIN">     2</i>
  <i name="ENCUT">    200.00000000</i>
  <v name="MAGMOM">      6.00000000</v>
  <i type="logical" name="LREAL"> F  </i>
  <i type="int" name="ISMEAR">     1</i>
  <i name="SIGMA">      0.05000000</i>
  <i type="logical" name="LORBIT"> F  </i>
 </incar>
 <kpoints>
  <generation param="Monkhorst-Pack">
   <v type="int" name="divisions">       6        6        6 </v>
   <v name="usershift">      0.00000000       0.00000000       0.00000000 </v>
   <v name="genvec1">      0.16666667       0.00000000       0.00000000 </v>
   <v name="genvec2">      0.00000000       0.16666667       0.00000000 </v>
   <v name="genvec3">      0.00000000       0.00000000       0.16666667 </v>
   <v name="shift">      0.50000000       0.50000000       0.50000000 </v>
  </generation>
  <varray name="kpointlist" >
   <v>       0.08333333       0.08333333       0.08333333 </v>
   <v>       0.25000000       0.08333333       0.08333333 </v>
   <v>       0.41666667       0.08333333       0.08333333 </v>
   <v>      -0.41666667       0.08333333       0.08333333 </v>
   <v>      -0.25000000       0.08333333       0.08333333 </v>
   <v>      -0.08333333       0.08333333       0.08333333 </v>
   <v>       0.25000000       0.25000000       0.08333333 </v>
   <v>       0.41666667       0.25000000       0.08333333 </v>
   <v>      -0.41666667       0.25000000       0.08333333 </v>
   <v>      -0.25000000       0.25000000       0.08333333 </v>
   <v>      -0.08333333       0.25000000       0.08333333 </v>
   <v>       0.41666667       0.41666667       0.08333333 </v>
   <v>      -0.41666667       0.41666667       0.08333333 </v>
   <v>      -0.25000000       0.41666667       0.08333333 </v>
   <v>      -0.08333333       0.41666667       0.08333333 </v>
   <v>      -0.41666667      -0.41666667       0.08333333 </v>
   <v>      -0.25000000      -0.41666667       0.08333333 </v>
   <v>      -0.25000000      -0.25000000       0.08333333 </v>
   <v>       0.25000000       0.25000000       0.25000000 </v>
   <v>       0.41666667       0.25000000       0.25000000 </v>
   <v>      -0.41666667       0.25000000       0.25000000 </v>
   <v>      -0.25000000       0.25000000       0.25000000 </v>
   <v>       0.41666667       0.41666667       0.25000000 </v>
   <v>      -0.41666667       0.41666667       0.25000000 </v>
   <v>      -0.25000000       0.41666667       0.25000000 </v>
   <v>      -0.41666667      -0.41666667       0.25000000 </v>
   <v>       0.41666667       0.41666667       0.41666667 </v>
   <v>      -0.41666667       0.41666667       0.41666667 </v>
  </varray>
  <varray name="weights" >
   <v>       0.00925926 </v>
   <v>       0.02777778 </v>
   <v>       0.02777778 </v>
   <v>       0.02777778 </v>
   <v>       0.02777778 </v>
   <v>       0.02777778 </v>
   <v>       0.02777778 </v>
   <v>       0.05555556 </v>
   <v>       0.05555556 </v>
   <v>       0.05555556 </v>
   <v>       0.05555556 </v>
   <v>       0.02777778 </v>
   <v>       0.05555556 </v>
   <v>       0.05555556 </v>
   <v>       0.05555556 </v>
   <v>       0.02777778 </v>
   <v>       0.05555556 </v>
   <v>       0.02777778 </v>
   <v>       0.00925926 </v>
   <v>       0.02777778 </v>
   <v>       0.02777778 </v>
   <v>       0.02777778 </v>
   <v>       0.02777778 </v>
   <v>       0.05555556 </v>
   <v>       0.05555556 </v>
   <v>       0.02777778 </v>
   <v>       0.00925926 </v>
   <v>       0.02777778 </v>
  </varray>
 </kpoints>
 <parameters>
  <separator name="general" >
   <i type="string" name="SYSTEM">unknown system</i>
   <i type="logical" name="LCOMPAT"> F  </i>
  </separator>
  <separator name="electronic" >
   <i type="string" name="PREC">accura</i>
   <i name="ENMAX">    200.00000000</i>
   <i name="ENAUG">    332.07500000</i>
   <i name="EDIFF">      0.00010000</i>
   <i type="int" name="IALGO">    38</i>
   <i type="int" name="IWAVPR">    10</i>
   <i type="int" name="NBANDS">     9</i>
   <i name="NELECT">      5.00000000</i>
   <i type="int" name="TURBO">     0</i>
   <i type="int" name="IRESTART">     0</i>
   <i type="int" name="NREBOOT">     0</i>
   <i type="int" name="NMIN">     0</i>
   <i name="EREF">      0.00000000</i>
   <separator name="electronic smearing" >
    <i type="int" name="ISMEAR">     1</i>
    <i name="SIGMA">      0.05000000</i>
    <i name="KSPACING">      0.50000000</i>
    <i type="logical" name="KGAMMA"> T  </i>
   </separator>
   <separator name="electronic projectors" >
    <i type="logical" name="LREAL"> F  </i>
    <v name="ROPT">      0.00000000</v>
    <i type="int" name="LMAXPAW">  -100</i>
    <i type="int" name="LMAXMIX">     2</i>
    <i type="logical" name="NLSPLINE"> F  </i>
   </separator>
   <separator name="electronic startup" >
    <i type="int" name="ISTART">     0</i>
    <i type="int" name="ICHARG">     2</i>
    <i type="int" name="INIWAV">     1</i>
   </separator>
   <separator name="electronic spin" >
    <i type="int" name="ISPIN">     2</i>
    <i type="logical" name="LNONCOLLINEAR"> F  </i>
    <v name="MAGMOM">      6.00000000</v>
    <i name="NUPDOWN">     -1.00000000</i>
    <i type="logical" name="LSORBIT"> F  </i>
    <v name="SAXIS">      0.00000000      0.00000000      1.00000000</v>
    <i type="logical" name="LSPIRAL"> F  </i>
    <v name="QSPIRAL">      0.00000000      0.00000000      0.00000000</v>
    <i type="logical" name="LZEROZ"> F  </i>
   </separator>
   <separator name="electronic exchange-correlation" >
    <i type="logical" name="LASPH"> F  </i>
    <i type="logical" name="LMETAGGA"> F  </i>
   </separator>
   <separator name="electronic convergence" >
    <i type="int" name="NELM">    60</i>
    <i type="int" name="NELMDL">    -5</i>
    <i type="int" name="NELMIN">     2</i>
    <i name="ENINI">    200.00000000</i>
    <separator name="electronic convergence detail" >
     <i type="logical" name="LDIAG"> T  </i>
     <i type="logical" name="LSUBROT"> T  </i>
     <i name="WEIMIN">      0.00000000</i>
     <i name="EBREAK">      0.00000278</i>
     <i name="DEPER">      0.30000000</i>
     <i type="int" name="NRMM">     4</i>
     <i name="TIME">      0.40000000</i>
    </separator>
   </separator>
   <separator name="electronic mixer" >
    <i name="AMIX">      0.40000000</i>
    <i name="BMIX">      1.00000000</i>
    <i name="AMIN">      0.10000000</i>
    <i name="AMIX_MAG">      1.60000000</i>
    <i name="BMIX_MAG">      1.00000000</i>
    <separator name="electronic mixer details" >
     <i type="int" name="IMIX">     4</i>
     <i type="int" name="MAXMIX">   -45</i>
     <i name="WC">    100.00000000</i>
     <i type="int" name="INIMIX">     1</i>
     <i type="int" name="MIXPRE">     1</i>
     <i type="int" name="MREMOVE">     5</i>
    </separator>
   </separator>
   <separator name="electronic dipolcorrection" >
    <i type="logical" name="LDIPOL"> F  </i>
    <i type="logical" name="LMONO"> F  </i>
    <i type="int" name="IDIPOL">     0</i>
    <i name="EPSILON">      1.00000000</i>
    <v name="DIPOL">   -100.00000000   -100.00000000   -100.00000000</v>
    <i name="EFIELD">      0.00000000</i>
   </separator>
  </separator>
  <separator name="grids" >
   <i type="int" name="NGX">    14</i>
   <i type="int" name="NGY">    14</i>
   <i type="int" name="NGZ">    14</i>
   <i type="int" name="NGXF">    28</i>
   <i type="int" name="NGYF">    28</i>
   <i type="int" name="NGZF">    28</i>
   <i type="logical" name="ADDGRID"> F  </i>
  </separator>
  <separator name="ionic" >
   <i type="int" name="NSW">     0</i>
   <i type="int" name="IBRION">    -1</i>
   <i type="int" name="ISIF">     2</i>
   <i name="PSTRESS">      0.00000000</i>
   <i name="EDIFFG">      0.00100000</i>
   <i type="int" name="NFREE">     0</i>
   <i name="POTIM">      0.50000000</i>
   <i name="SMASS">     -3.00000000</i>
   <i name="SCALEE">      1.00000000</i>
  </separator>
  <separator name="ionic md" >
   <i name="TEBEG">      0.00010000</i>
   <i name="TEEND">      0.00010000</i>
   <i type="int" name="NBLOCK">     1</i>
   <i type="int" name="KBLOCK">     1</i>
   <i type="int" name="NPACO">   256</i>
   <i name="APACO">     16.00000000</i>
  </separator>
  <separator name="symmetry" >
   <i type="int" name="ISYM">     2</i>
   <i name="SYMPREC">      0.00001000</i>
  </separator>
  <separator name="dos" >
   <i type="logical" name="LORBIT"> F  </i>
   <v name="RWIGS">     -1.00000000</v>
   <i type="int" name="NEDOS">   301</i>
   <i name="EMIN">     10.00000000</i>
   <i name="EMAX">    -10.00000000</i>
   <i name="EFERMI">      0.00000000</i>
  </separator>
  <separator name="writing" >
   <i type="int" name="NWRITE">     2</i>
   <i type="logical" name="LWAVE"> T  </i>
   <i type="logical" name="LCHARG"> T  </i>
   <i type="logical" name="LPARD"> F  </i>
   <i type="logical" name="LVTOT"> F  </i>
   <i type="logical" name="LVHAR"> F  </i>
   <i type="logical" name="LELF"> F  </i>
   <i type="logical" name="LOPTICS"> F  </i>
   <v name="STM">      0.00000000      0.00000000      0.00000000      0.00000000      0.00000000      0.00000000      0.00000000</v>
  </separator>
  <separator name="performance" >
   <i type="int" name="NPAR">     1</i>
   <i type="int" name="NSIM">     4</i>
   <i type="int" name="NBLK">    -1</i>
   <i type="logical" name="LPLANE"> T  </i>
   <i type="logical" name="LSCALAPACK"> F  </i>
   <i type="logical" name="LSCAAWARE"> F  </i>
   <i type="logical" name="LSCALU"> F  </i>
   <i type="logical" name="LASYNC"> F  </i>
   <i type="logical" name="LORBITALREAL"> F  </i>
  </separator>
  <separator name="miscellaneous" >
   <i type="int" name="IDIOT">     3</i>
   <i type="logical" name="LMUSIC"> F  </i>
   <v name="POMASS">    180.94800000</v>
   <v name="DARWINR">      0.00000000</v>
   <v name="DARWINV">      1.00000000</v>
   <i type="logical" name="LCORR"> T  </i>
  </separator>
  <i type="logical" name="GGA_COMPAT"> T  </i>
  <i type="logical" name="LBERRY"> F  </i>
  <i type="int" name="ICORELEVEL">     0</i>
  <i type="logical" name="LDAU"> F  </i>
  <i type="int" name="I_CONSTRAINED_M">     0</i>
  <separator name="electronic exchange-correlation" >
   <i type="string" name="GGA">--</i>
   <i type="int" name="VOSKOWN">     0</i>
   <i type="logical" name="LHFCALC"> F  </i>
   <i type="string" name="PRECFOCK"></i>
   <i type="logical" name="LHFONE"> F  </i>
   <i type="logical" name="LRHFCALC"> F  </i>
   <i type="logical" name="LTHOMAS"> F  </i>
   <i type="logical" name="LMODELHF"> F  </i>
   <i name="ENCUT4O">     -1.00000000</i>
   <i type="int" name="EXXOEP">     0</i>
   <i type="int" name="FOURORBIT">     0</i>
   <i name="AEXX">      0.00000000</i>
   <i name="HFALPHA">      0.00000000</i>
   <i name="ALDAX">      1.00000000</i>
   <i name="AGGAX">      1.00000000</i>
   <i name="ALDAC">      1.00000000</i>
   <i name="AGGAC">      1.00000000</i>
   <i type="int" name="NKREDX">     1</i>
   <i type="int" name="NKREDY">     1</i>
   <i type="int" name="NKREDZ">     1</i>
   <i type="logical" name="SHIFTRED"> F  </i>
   <i type="logical" name="ODDONLY"> F  </i>
   <i type="logical" name="EVENONLY"> F  </i>
   <i type="int" name="LMAXFOCK">     0</i>
   <i type="int" name="NMAXFOCKAE">     0</i>
   <i type="logical" name="LFOCKAEDFT"> F  </i>
   <i name="HFSCREEN">      0.00000000</i>
   <i name="HFSCREENC">      0.00000000</i>
  </separator>
  <separator name="vdW DFT" >
   <i type="logical" name="LUSE_VDW"> F  </i>
   <i name="Zab_VDW">     -0.84910000</i>
   <i name="PARAM1">      0.12340000</i>
   <i name="PARAM2">      1.00000000</i>
   <i name="PARAM3">      0.00000000</i>
  </separator>
  <separator name="model GW" >
   <i type="int" name="MODEL_GW">     0</i>
   <i name="MODEL_EPS0">     11.35304505</i>
   <i name="MODEL_ALPHA">      1.00000000</i>
  </separator>
  <separator name="linear response parameters" >
   <i type="logical" name="LEPSILON"> F  </i>
   <i type="logical" name="LRPA"> F  </i>
   <i type="logical" name="LNABLA"> F  </i>
   <i type="logical" name="LVEL"> F  </i>
   <i type="int" name="KINTER">     0</i>
   <i name="CSHIFT">      0.10000000</i>
   <i name="OMEGAMAX">     -1.00000000</i>
  </separator>
  <separator name="orbital magnetization" >
   <i type="logical" name="NUCIND"> F  </i>
   <v name="MAGPOS">      0.00000000      0.00000000      0.00000000</v>
   <i type="logical" name="LNICSALL"> T  </i>
   <i type="logical" name="ORBITALMAG"> F  </i>
   <i type="logical" name="LMAGBLOCH"> F  </i>
   <i type="logical" name="LCHIMAG"> F  </i>
   <i type="logical" name="LGAUGE"> T  </i>
   <i type="int" name="MAGATOM">     0</i>
   <v name="MAGDIPOL">      0.00000000      0.00000000      0.00000000</v>
   <v name="AVECCONST">      0.00000000      0.00000000      0.00000000</v>
  </separator>
  <separator name="response functions" >
   <i type="logical" name="LADDER"> F  </i>
   <i type="logical" name="LHARTREE"> T  </i>
   <i type="int" name="IBSE">     0</i>
   <i type="logical" name="LTCTE"> F  </i>
   <i type="logical" name="LTETE"> F  </i>
   <i type="logical" name="LFXCEPS"> F  </i>
   <i type="logical" name="L2ORDER"> F  </i>
   <i type="logical" name="LUSEW"> F  </i>
   <i name="ENCUTGW">     -2.00000000</i>
   <i name="ENCUTGWSOFT">     -2.00000000</i>
   <i name="ENCUTLF">     -1.00000000</i>
   <i type="int" name="LMAXMP2">    -1</i>
   <i name="SCISSOR">      0.00000000</i>
   <i type="int" name="NOMEGA">     0</i>
   <i type="int" name="NOMEGAR">     0</i>
   <i type="int" name="NBANDSGW">    -1</i>
   <i type="int" name="NBANDSO">    -1</i>
   <i type="int" name="NBANDSV">    -1</i>
   <i name="OPTEMAX">      0.00000000</i>
   <i type="int" name="NELM">     1</i>
   <i type="int" name="DIM">     3</i>
   <i type="int" name="ANTIRES">     0</i>
   <i name="OMEGAMAX">    -30.00000000</i>
   <i name="OMEGATL">   -200.00000000</i>
   <i type="int" name="OMEGAGRID">     0</i>
   <i name="CSHIFT">     -0.10000000</i>
   <i type="logical" name="SELFENERGY"> F  </i>
   <i type="logical" name="LSPECTRAL"> F  </i>
   <i type="logical" name="ODDONLYGW"> F  </i>
   <i type="logical" name="EVENONLYGW"> F  </i>
   <i type="int" name="NKREDLFX">     1</i>
   <i type="int" name="NKREDLFY">     1</i>
   <i type="int" name="NKREDLFZ">     1</i>
   <i type="int" name="MAXMEM">  1800</i>
   <i type="int" name="TELESCOPE">     0</i>
  </separator>
 </parameters>
 <atominfo>
  <atoms>       1 </atoms>
  <types>       1 </types>
  <array name="atoms" >
   <dimension dim="1">ion</dimension>
   <field type="string">element</field>
   <field type="int">atomtype</field>
   <set>
    <rc><c>Ta</c><c>   1</c></rc>
   </set>
  </array>
  <array name="atomtypes" >
   <dimension dim="1">type</dimension>
   <field type="int">atomspertype</field>
   <field type="string">element</field>
   <field>mass</field>
   <field>valence</field>
   <field type="string">pseudopotential</field>
   <set>
    <rc><c>   1</c><c>Ta</c><c>    180.94800000</c><c>      5.00000000</c><c>  PAW_PBE Ta 17Jan2003                  </c></rc>
   </set>
  </array>
 </atominfo>
 <structure name="initialpos" >
  <crystal>
   <varray name="basis" >
    <v>       0.00000000       2.11500000       2.11500000 </v>
    <v>       2.11500000       0.00000000       2.11500000 </v>
    <v>       2.11500000       2.11500000       0.00000000 </v>
   </varray>
   <i name="volume">     18.92174175 </i>
   <varray name="rec_basis" >
    <v>      -0.23640662       0.23640662       0.23640662 </v>
    <v>       0.23640662      -0.23640662       0.23640662 </v>
    <v>       0.23640662       0.23640662      -0.23640662 </v>
   </varray>
  </crystal>
  <varray name="positions" >
   <v>       0.00000000       0.00000000       0.00000000 </v>
  </varray>
 </structure>
 <calculation>
  <scstep>
   <time name="dav">    0.63    0.63</time>
   <time name="total">    0.72    0.73</time>
   <energy>
    <i name="alphaZ">     29.30743413 </i>
    <i name="ewald">   -195.09763016 </i>
    <i name="hartreedc">     -2.79657379 </i>
    <i name="XCdc">    -60.70025433 </i>
    <i name="pawpsdc">    143.51874798 </i>
    <i name="pawaedc">    -69.33493833 </i>
    <i name="eentropy">     -0.00016306 </i>
    <i name="bandstr">     26.91284217 </i>
    <i name="atom">    130.57950032 </i>
    <i name="e_fr_energy">      2.38896491 </i>
    <i name="e_wo_entrp">      2.38912798 </i>
    <i name="e_0_energy">      2.38901927 </i>
   </energy>
  </scstep>
  <scstep>
   <time name="dav">    0.59    0.59</time>
   <time name="total">    0.60    0.61</time>
   <energy>
    <i name="e_fr_energy">     -1.71129479 </i>
    <i name="e_wo_entrp">     -1.71108059 </i>
    <i name="e_0_energy">     -1.71122339 </i>
   </energy>
  </scstep>
  <scstep>
   <time name="dav">    0.67    0.67</time>
   <time name="total">    0.68    0.69</time>
   <energy>
    <i name="e_fr_energy">     -1.74869748 </i>
    <i name="e_wo_entrp">     -1.74852881 </i>
    <i name="e_0_energy">     -1.74864126 </i>
   </energy>
  </scstep>
  <scstep>
   <time name="dav">    0.61    0.61</time>
   <time name="total">    0.61    0.63</time>
   <energy>
    <i name="e_fr_energy">     -1.74872654 </i>
    <i name="e_wo_entrp">     -1.74855812 </i>
    <i name="e_0_energy">     -1.74867040 </i>
   </energy>
  </scstep>
  <scstep>
   <time name="dav">    0.67    0.67</time>
   <time name="total">    0.73    0.75</time>
   <energy>
    <i name="e_fr_energy">     -1.74872656 </i>
    <i name="e_wo_entrp">     -1.74855814 </i>
    <i name="e_0_energy">     -1.74867042 </i>
   </energy>
  </scstep>
  <scstep>
   <time name="dav">    0.61    0.62</time>
   <time name="total">    0.76    0.77</time>
   <energy>
    <i name="e_fr_energy">    -11.14437229 </i>
    <i name="e_wo_entrp">    -11.14462257 </i>
    <i name="e_0_energy">    -11.14445572 </i>
   </energy>
  </scstep>
  <scstep>
   <time name="dav">    0.65    0.65</time>
   <time name="total">    0.79    0.80</time>
   <energy>
    <i name="e_fr_energy">     -8.85422635 </i>
    <i name="e_wo_entrp">     -8.85425682 </i>
    <i name="e_0_energy">     -8.85423651 </i>
   </energy>
  </scstep>
  <scstep>
   <time name="dav">    0.73    0.73</time>
   <time name="total">    0.88    0.89</time>
   <energy>
    <i name="e_fr_energy">     39.07184989 </i>
    <i name="e_wo_entrp">     39.07176062 </i>
    <i name="e_0_energy">     39.07182013 </i>
   </energy>
  </scstep>
  <scstep>
   <time name="dav">    0.61    0.61</time>
   <time name="total">    0.75    0.77</time>
   <energy>
    <i name="e_fr_energy">    -11.58135143 </i>
    <i name="e_wo_entrp">    -11.58117019 </i>
    <i name="e_0_energy">    -11.58129102 </i>
   </energy>
  </scstep>
  <scstep>
   <time name="dav">    0.69    0.69</time>
   <time name="total">    0.83    0.85</time>
   <energy>
    <i name="e_fr_energy">    -11.58445611 </i>
    <i name="e_wo_entrp">    -11.58382663 </i>
    <i name="e_0_energy">    -11.58424628 </i>
   </energy>
  </scstep>
  <scstep>
   <time name="dav">    0.60    0.60</time>
   <time name="total">    0.74    0.76</time>
   <energy>
    <i name="e_fr_energy">    -11.59668920 </i>
    <i name="e_wo_entrp">    -11.59657371 </i>
    <i name="e_0_energy">    -11.59665070 </i>
   </energy>
  </scstep>
  <scstep>
   <time name="dav">    0.62    0.62</time>
   <time name="total">    0.76    0.78</time>
   <energy>
    <i name="e_fr_energy">    -11.50343566 </i>
    <i name="e_wo_entrp">    -11.50376615 </i>
    <i name="e_0_energy">    -11.50354582 </i>
   </energy>
  </scstep>
  <scstep>
   <time name="dav">    0.57    0.57</time>
   <time name="total">    0.71    0.73</time>
   <energy>
    <i name="e_fr_energy">    -11.62768600 </i>
    <i name="e_wo_entrp">    -11.62710885 </i>
    <i name="e_0_energy">    -11.62749362 </i>
   </energy>
  </scstep>
  <scstep>
   <time name="dav">    0.61    0.61</time>
   <time name="total">    0.75    0.76</time>
   <energy>
    <i name="e_fr_energy">    -11.63127266 </i>
    <i name="e_wo_entrp">    -11.63110352 </i>
    <i name="e_0_energy">    -11.63121628 </i>
   </energy>
  </scstep>
  <scstep>
   <time name="dav">    0.57    0.57</time>
   <time name="total">    0.71    0.73</time>
   <energy>
    <i name="e_fr_energy">    -11.63106516 </i>
    <i name="e_wo_entrp">    -11.63085571 </i>
    <i name="e_0_energy">    -11.63099534 </i>
   </energy>
  </scstep>
  <scstep>
   <time name="dav">    0.57    0.57</time>
   <time name="total">    0.71    0.72</time>
   <energy>
    <i name="e_fr_energy">    -11.63142168 </i>
    <i name="e_wo_entrp">    -11.63071433 </i>
    <i name="e_0_energy">    -11.63118590 </i>
   </energy>
  </scstep>
  <scstep>
   <time name="dav">    0.38    0.38</time>
   <time name="total">    0.47    0.49</time>
   <energy>
    <i name="alphaZ">     29.30743413 </i>
    <i name="ewald">   -195.09763016 </i>
    <i name="hartreedc">     -0.73464770 </i>
    <i name="XCdc">    -66.04420329 </i>
    <i name="pawpsdc">    185.33338508 </i>
    <i name="pawaedc">   -111.91865189 </i>
    <i name="eentropy">     -0.00038204 </i>
    <i name="bandstr">     16.94385034 </i>
    <i name="atom">    130.57950032 </i>
    <i name="e_fr_energy">    -11.63134521 </i>
    <i name="e_wo_entrp">    -11.63096317 </i>
    <i name="e_0_energy">    -11.63121786 </i>
   </energy>
  </scstep>
  <parameters_embedded>
   <separator name="dft+d2" >
    <i type="logical" name="LVDW"> F  </i>
   </separator>
  </parameters_embedded>
  <structure>
   <crystal>
    <varray name="basis" >
     <v>       0.00000000       2.11500000       2.11500000 </v>
     <v>       2.11500000       0.00000000       2.11500000 </v>
     <v>       2.11500000       2.11500000       0.00000000 </v>
    </varray>
    <i name="volume">     18.92174175 </i>
    <varray name="rec_basis" >
     <v>      -0.23640662       0.23640662       0.23640662 </v>
     <v>       0.23640662      -0.23640662       0.23640662 </v>
     <v>       0.23640662       0.23640662      -0.23640662 </v>
    </varray>
   </crystal>
   <varray name="positions" >
    <v>       0.00000000       0.00000000       0.00000000 </v>
   </varray>
  </structure>
  <varray name="forces" >
   <v>       0.00000000       0.00000000       0.00000000 </v>
  </varray>
  <varray name="stress" >
   <v>     -64.68022759       0.00000000       0.00000000 </v>
   <v>       0.00000000     -64.68022759       0.00000000 </v>
   <v>       0.00000000       0.00000000     -64.68022759 </v>
  </varray>
  <energy>
   <i name="e_fr_energy">    -11.63134521 </i>
   <i name="e_wo_entrp">    -11.63121786 </i>
   <i name="e_0_energy">     -0.00038204 </i>
  </energy>
  <time name="totalsc">   12.79   14.70</time>
  <eigenvalues>
   <array>
    <dimension dim="1">band</dimension>
    <dimension dim="2">kpoint</dimension>
    <dimension dim="3">spin</dimension>
    <field>eigene</field>
    <field>occ</field>
    <set>
     <set comment="spin 1">
      <set comment="kpoint 1">
       <r>   -2.1192    1.0000 </r>
       <r>    5.9443    0.0000 </r>
       <r>    6.3088    0.0000 </r>
       <r>    6.3088    0.0000 </r>
       <r>    9.0175    0.0000 </r>
       <r>    9.0175    0.0000 </r>
       <r>   18.7142    0.0000 </r>
       <r>   19.2702    0.0000 </r>
       <r>   21.7076    0.0000 </r>
      </set>
      <set comment="kpoint 2">
       <r>   -0.8190    1.0000 </r>
       <r>    5.0937    1.0000 </r>
       <r>    6.5611    0.0000 </r>
       <r>    6.8119    0.0000 </r>
       <r>    8.2572    0.0000 </r>
       <r>    9.4998    0.0000 </r>
       <r>   19.2628    0.0000 </r>
       <r>   19.5069    0.0000 </r>
       <r>   21.2578    0.0000 </r>
      </set>
      <set comment="kpoint 3">
       <r>    1.0364    1.0000 </r>
       <r>    5.1493    1.0000 </r>
       <r>    5.9563    0.0000 </r>
       <r>    6.3756    0.0000 </r>
       <r>    9.8064    0.0000 </r>
       <r>   11.2781    0.0000 </r>
       <r>   16.9306    0.0000 </r>
       <r>   19.2718    0.0000 </r>
       <r>   19.8622    0.0000 </r>
      </set>
      <set comment="kpoint 4">
       <r>    1.3673    1.0000 </r>
       <r>    5.4143    1.0000 </r>
       <r>    6.1913    0.0000 </r>
       <r>    6.2385    0.0000 </r>
       <r>   11.4869    0.0000 </r>
       <r>   11.6538    0.0000 </r>
       <r>   15.4666    0.0000 </r>
       <r>   18.3549    0.0000 </r>
       <r>   19.2772    0.0000 </r>
      </set>
      <set comment="kpoint 5">
       <r>    0.5453    1.0000 </r>
       <r>    4.8030    1.0000 </r>
       <r>    6.1485    0.0000 </r>
       <r>    6.6481    0.0000 </r>
       <r>    9.3763    0.0000 </r>
       <r>   10.3780    0.0000 </r>
       <r>   17.7467    0.0000 </r>
       <r>   19.2751    0.0000 </r>
       <r>   21.2526    0.0000 </r>
      </set>
      <set comment="kpoint 6">
       <r>   -1.4348    1.0000 </r>
       <r>    5.3433    1.0000 </r>
       <r>    6.6447    0.0000 </r>
       <r>    6.6681    0.0000 </r>
       <r>    8.2494    0.0000 </r>
       <r>    9.3435    0.0000 </r>
       <r>   19.2701    0.0000 </r>
       <r>   19.9914    0.0000 </r>
       <r>   20.9001    0.0000 </r>
      </set>
      <set comment="kpoint 7">
       <r>   -0.2178    1.0000 </r>
       <r>    4.4343    1.0000 </r>
       <r>    6.5889    0.0000 </r>
       <r>    7.3963    0.0000 </r>
       <r>    7.9378    0.0000 </r>
       <r>    9.9352    0.0000 </r>
       <r>   19.2705    0.0000 </r>
       <r>   20.7156    0.0000 </r>
       <r>   22.4031    0.0000 </r>
      </set>
      <set comment="kpoint 8">
       <r>    1.5475    1.0000 </r>
       <r>    3.8902    1.0000 </r>
       <r>    5.3743    1.0000 </r>
       <r>    7.9834    0.0000 </r>
       <r>    9.3496    0.0000 </r>
       <r>   11.5621    0.0000 </r>
       <r>   18.5770    0.0000 </r>
       <r>   19.2849    0.0000 </r>
       <r>   21.8490    0.0000 </r>
      </set>
      <set comment="kpoint 9">
       <r>    2.5637    1.0000 </r>
       <r>    4.0412    1.0000 </r>
       <r>    5.4416    1.0000 </r>
       <r>    7.3874    0.0000 </r>
       <r>   11.0504    0.0000 </r>
       <r>   13.4176    0.0000 </r>
       <r>   14.6371    0.0000 </r>
       <r>   19.2755    0.0000 </r>
       <r>   20.6883    0.0000 </r>
      </set>
      <set comment="kpoint 10">
       <r>    2.2624    1.0000 </r>
       <r>    4.3976    1.0000 </r>
       <r>    4.8192    1.0000 </r>
       <r>    7.5204    0.0000 </r>
       <r>    9.3622    0.0000 </r>
       <r>   12.6673    0.0000 </r>
       <r>   17.2350    0.0000 </r>
       <r>   19.2785    0.0000 </r>
       <r>   21.1415    0.0000 </r>
      </set>
      <set comment="kpoint 11">
       <r>    0.2904    1.0000 </r>
       <r>    4.5341    1.0000 </r>
       <r>    6.1291    0.0000 </r>
       <r>    7.2535    0.0000 </r>
       <r>    8.2770    0.0000 </r>
       <r>   10.4490    0.0000 </r>
       <r>   19.2116    0.0000 </r>
       <r>   19.3350    0.0000 </r>
       <r>   22.4767    0.0000 </r>
      </set>
      <set comment="kpoint 12">
       <r>    1.6136    1.0000 </r>
       <r>    2.9213    1.0000 </r>
       <r>    6.5244    0.0000 </r>
       <r>    9.7336    0.0000 </r>
       <r>   10.7950    0.0000 </r>
       <r>   11.4310    0.0000 </r>
       <r>   18.0317    0.0000 </r>
       <r>   19.2744    0.0000 </r>
       <r>   19.4129    0.0000 </r>
      </set>
      <set comment="kpoint 13">
       <r>    2.0949    1.0000 </r>
       <r>    3.0604    1.0000 </r>
       <r>    6.5487    0.0000 </r>
       <r>    9.5327    0.0000 </r>
       <r>   11.7407    0.0000 </r>
       <r>   13.8843    0.0000 </r>
       <r>   14.9294    0.0000 </r>
       <r>   17.9012    0.0000 </r>
       <r>   19.2735    0.0000 </r>
      </set>
      <set comment="kpoint 14">
       <r>    3.1614    1.0000 </r>
       <r>    3.6646    1.0000 </r>
       <r>    5.1946    1.0000 </r>
       <r>    8.0448    0.0000 </r>
       <r>   10.6945    0.0000 </r>
       <r>   13.0402    0.0000 </r>
       <r>   16.2824    0.0000 </r>
       <r>   19.0696    0.0000 </r>
       <r>   19.2906    0.0000 </r>
      </set>
      <set comment="kpoint 15">
       <r>    1.7362    1.0000 </r>
       <r>    4.8441    1.0000 </r>
       <r>    5.6105    0.9353 </r>
       <r>    6.6913    0.0000 </r>
       <r>   10.6077    0.0000 </r>
       <r>   12.2491    0.0000 </r>
       <r>   15.9487    0.0000 </r>
       <r>   19.2759    0.0000 </r>
       <r>   19.6648    0.0000 </r>
      </set>
      <set comment="kpoint 16">
       <r>    1.5409    1.0000 </r>
       <r>    2.5795    1.0000 </r>
       <r>    7.7994    0.0000 </r>
       <r>   10.8242    0.0000 </r>
       <r>   11.9416    0.0000 </r>
       <r>   12.4584    0.0000 </r>
       <r>   15.9110    0.0000 </r>
       <r>   17.5779    0.0000 </r>
       <r>   18.8533    0.0000 </r>
      </set>
      <set comment="kpoint 17">
       <r>    2.1685    1.0000 </r>
       <r>    3.3527    1.0000 </r>
       <r>    5.5576    1.0189 </r>
       <r>    8.9624    0.0000 </r>
       <r>   10.7912    0.0000 </r>
       <r>   12.5992    0.0000 </r>
       <r>   16.5584    0.0000 </r>
       <r>   19.2745    0.0000 </r>
       <r>   19.5901    0.0000 </r>
      </set>
      <set comment="kpoint 18">
       <r>    1.0758    1.0000 </r>
       <r>    3.5707    1.0000 </r>
       <r>    5.9486    0.0000 </r>
       <r>    8.4627    0.0000 </r>
       <r>    9.1149    0.0000 </r>
       <r>   10.6795    0.0000 </r>
       <r>   19.2683    0.0000 </r>
       <r>   20.4219    0.0000 </r>
       <r>   22.6598    0.0000 </r>
      </set>
      <set comment="kpoint 19">
       <r>   -0.3337    1.0000 </r>
       <r>    5.0274    1.0000 </r>
       <r>    6.5805    0.0000 </r>
       <r>    6.5805    0.0000 </r>
       <r>    9.1809    0.0000 </r>
       <r>    9.1809    0.0000 </r>
       <r>   18.1518    0.0000 </r>
       <r>   19.2744    0.0000 </r>
       <r>   21.7892    0.0000 </r>
      </set>
      <set comment="kpoint 20">
       <r>    1.1897    1.0000 </r>
       <r>    4.5807    1.0000 </r>
       <r>    5.6210    0.8259 </r>
       <r>    7.1306    0.0000 </r>
       <r>    8.4765    0.0000 </r>
       <r>   11.6373    0.0000 </r>
       <r>   18.4045    0.0000 </r>
       <r>   19.2814    0.0000 </r>
       <r>   21.4917    0.0000 </r>
      </set>
      <set comment="kpoint 21">
       <r>    2.8626    1.0000 </r>
       <r>    4.1351    1.0000 </r>
       <r>    5.0161    1.0000 </r>
       <r>    7.5474    0.0000 </r>
       <r>    9.8384    0.0000 </r>
       <r>   12.8058    0.0000 </r>
       <r>   16.8273    0.0000 </r>
       <r>   19.2765    0.0000 </r>
       <r>   19.9481    0.0000 </r>
      </set>
      <set comment="kpoint 22">
       <r>    2.3371    1.0000 </r>
       <r>    3.7192    1.0000 </r>
       <r>    5.4629    1.0000 </r>
       <r>    7.9699    0.0000 </r>
       <r>   11.6621    0.0000 </r>
       <r>   12.6034    0.0000 </r>
       <r>   15.1184    0.0000 </r>
       <r>   19.2753    0.0000 </r>
       <r>   21.0034    0.0000 </r>
      </set>
      <set comment="kpoint 23">
       <r>    1.5914    1.0000 </r>
       <r>    4.3376    1.0000 </r>
       <r>    5.4670    1.0000 </r>
       <r>    7.1415    0.0000 </r>
       <r>   10.6445    0.0000 </r>
       <r>   11.3727    0.0000 </r>
       <r>   17.0646    0.0000 </r>
       <r>   19.2778    0.0000 </r>
       <r>   20.5524    0.0000 </r>
      </set>
      <set comment="kpoint 24">
       <r>    3.0544    1.0000 </r>
       <r>    3.8889    1.0000 </r>
       <r>    4.6329    1.0000 </r>
       <r>    8.1587    0.0000 </r>
       <r>   10.5869    0.0000 </r>
       <r>   13.3389    0.0000 </r>
       <r>   16.1643    0.0000 </r>
       <r>   19.2628    0.0000 </r>
       <r>   19.3558    0.0000 </r>
      </set>
      <set comment="kpoint 25">
       <r>    2.9188    1.0000 </r>
       <r>    3.8887    1.0000 </r>
       <r>    5.1187    1.0000 </r>
       <r>    8.1109    0.0000 </r>
       <r>   11.6557    0.0000 </r>
       <r>   14.5794    0.0000 </r>
       <r>   15.3113    0.0000 </r>
       <r>   17.6847    0.0000 </r>
       <r>   19.2789    0.0000 </r>
      </set>
      <set comment="kpoint 26">
       <r>    2.4647    1.0000 </r>
       <r>    3.4244    1.0000 </r>
       <r>    6.0199    0.0000 </r>
       <r>    8.8900    0.0000 </r>
       <r>   11.2244    0.0000 </r>
       <r>   13.1484    0.0000 </r>
       <r>   15.2766    0.0000 </r>
       <r>   19.2356    0.0000 </r>
       <r>   20.7621    0.0000 </r>
      </set>
      <set comment="kpoint 27">
       <r>    1.0334    1.0000 </r>
       <r>    5.8760    0.0000 </r>
       <r>    6.0453    0.0000 </r>
       <r>    6.0453    0.0000 </r>
       <r>   11.0152    0.0000 </r>
       <r>   11.0152    0.0000 </r>
       <r>   16.0824    0.0000 </r>
       <r>   18.4620    0.0000 </r>
       <r>   19.2791    0.0000 </r>
      </set>
      <set comment="kpoint 28">
       <r>    2.0476    1.0000 </r>
       <r>    4.6244    1.0000 </r>
       <r>    5.8085    0.0000 </r>
       <r>    6.7472    0.0000 </r>
       <r>   10.8630    0.0000 </r>
       <r>   12.7274    0.0000 </r>
       <r>   15.1936    0.0000 </r>
       <r>   19.2760    0.0000 </r>
       <r>   19.8531    0.0000 </r>
      </set>
     </set>
     <set comment="spin 2">
      <set comment="kpoint 1">
       <r>   -2.0650    1.0000 </r>
       <r>    5.9891    0.0000 </r>
       <r>    6.3537    0.0000 </r>
       <r>    6.3537    0.0000 </r>
       <r>    9.0624    0.0000 </r>
       <r>    9.0624    0.0000 </r>
       <r>   18.7486    0.0000 </r>
       <r>   19.3068    0.0000 </r>
       <r>   21.7641    0.0000 </r>
      </set>
      <set comment="kpoint 2">
       <r>   -0.7652    1.0000 </r>
       <r>    5.1382    1.0000 </r>
       <r>    6.6070    0.0000 </r>
       <r>    6.8565    0.0000 </r>
       <r>    8.3033    0.0000 </r>
       <r>    9.5433    0.0000 </r>
       <r>   19.2998    0.0000 </r>
       <r>   19.5570    0.0000 </r>
       <r>   21.2929    0.0000 </r>
      </set>
      <set comment="kpoint 3">
       <r>    1.0871    1.0000 </r>
       <r>    5.1976    1.0000 </r>
       <r>    6.0036    0.0000 </r>
       <r>    6.4229    0.0000 </r>
       <r>    9.8479    0.0000 </r>
       <r>   11.3175    0.0000 </r>
       <r>   16.9789    0.0000 </r>
       <r>   19.3084    0.0000 </r>
       <r>   19.9041    0.0000 </r>
      </set>
      <set comment="kpoint 4">
       <r>    1.4157    1.0000 </r>
       <r>    5.4649    1.0000 </r>
       <r>    6.2390    0.0000 </r>
       <r>    6.2871    0.0000 </r>
       <r>   11.5241    0.0000 </r>
       <r>   11.6933    0.0000 </r>
       <r>   15.5101    0.0000 </r>
       <r>   18.3996    0.0000 </r>
       <r>   19.3137    0.0000 </r>
      </set>
      <set comment="kpoint 5">
       <r>    0.5976    1.0000 </r>
       <r>    4.8490    1.0000 </r>
       <r>    6.1959    0.0000 </r>
       <r>    6.6946    0.0000 </r>
       <r>    9.4195    0.0000 </r>
       <r>   10.4191    0.0000 </r>
       <r>   17.7966    0.0000 </r>
       <r>   19.3117    0.0000 </r>
       <r>   21.2913    0.0000 </r>
      </set>
      <set comment="kpoint 6">
       <r>   -1.3808    1.0000 </r>
       <r>    5.3878    1.0000 </r>
       <r>    6.6896    0.0000 </r>
       <r>    6.7129    0.0000 </r>
       <r>    8.2957    0.0000 </r>
       <r>    9.3877    0.0000 </r>
       <r>   19.3067    0.0000 </r>
       <r>   20.0281    0.0000 </r>
       <r>   20.9501    0.0000 </r>
      </set>
      <set comment="kpoint 7">
       <r>   -0.1640    1.0000 </r>
       <r>    4.4784    1.0000 </r>
       <r>    6.6365    0.0000 </r>
       <r>    7.4408    0.0000 </r>
       <r>    7.9826    0.0000 </r>
       <r>    9.9781    0.0000 </r>
       <r>   19.3070    0.0000 </r>
       <r>   20.7649    0.0000 </r>
       <r>   22.4367    0.0000 </r>
      </set>
      <set comment="kpoint 8">
       <r>    1.6004    1.0000 </r>
       <r>    3.9344    1.0000 </r>
       <r>    5.4228    1.0000 </r>
       <r>    8.0292    0.0000 </r>
       <r>    9.3929    0.0000 </r>
       <r>   11.6014    0.0000 </r>
       <r>   18.6280    0.0000 </r>
       <r>   19.3218    0.0000 </r>
       <r>   21.9269    0.0000 </r>
      </set>
      <set comment="kpoint 9">
       <r>    2.6113    1.0000 </r>
       <r>    4.0928    1.0000 </r>
       <r>    5.4866    1.0000 </r>
       <r>    7.4345    0.0000 </r>
       <r>   11.0893    0.0000 </r>
       <r>   13.4617    0.0000 </r>
       <r>   14.6829    0.0000 </r>
       <r>   19.3121    0.0000 </r>
       <r>   20.7311    0.0000 </r>
      </set>
      <set comment="kpoint 10">
       <r>    2.3132    1.0000 </r>
       <r>    4.4442    1.0000 </r>
       <r>    4.8669    1.0000 </r>
       <r>    7.5678    0.0000 </r>
       <r>    9.4038    0.0000 </r>
       <r>   12.7060    0.0000 </r>
       <r>   17.2863    0.0000 </r>
       <r>   19.3152    0.0000 </r>
       <r>   21.1863    0.0000 </r>
      </set>
      <set comment="kpoint 11">
       <r>    0.3437    1.0000 </r>
       <r>    4.5784    1.0000 </r>
       <r>    6.1767    0.0000 </r>
       <r>    7.2990    0.0000 </r>
       <r>    8.3219    0.0000 </r>
       <r>   10.4905    0.0000 </r>
       <r>   19.2541    0.0000 </r>
       <r>   19.3787    0.0000 </r>
       <r>   22.5126    0.0000 </r>
      </set>
      <set comment="kpoint 12">
       <r>    1.6672    1.0000 </r>
       <r>    2.9649    1.0000 </r>
       <r>    6.5730    0.0000 </r>
       <r>    9.7764    0.0000 </r>
       <r>   10.8366    0.0000 </r>
       <r>   11.4696    0.0000 </r>
       <r>   18.0854    0.0000 </r>
       <r>   19.3111    0.0000 </r>
       <r>   19.4684    0.0000 </r>
      </set>
      <set comment="kpoint 13">
       <r>    2.1479    1.0000 </r>
       <r>    3.1042    1.0000 </r>
       <r>    6.5942    0.0000 </r>
       <r>    9.5789    0.0000 </r>
       <r>   11.7766    0.0000 </r>
       <r>   13.9245    0.0000 </r>
       <r>   14.9834    0.0000 </r>
       <r>   17.9555    0.0000 </r>
       <r>   19.3102    0.0000 </r>
      </set>
      <set comment="kpoint 14">
       <r>    3.2101    1.0000 </r>
       <r>    3.7143    1.0000 </r>
       <r>    5.2386    1.0000 </r>
       <r>    8.0924    0.0000 </r>
       <r>   10.7330    0.0000 </r>
       <r>   13.0902    0.0000 </r>
       <r>   16.3257    0.0000 </r>
       <r>   19.1132    0.0000 </r>
       <r>   19.3278    0.0000 </r>
      </set>
      <set comment="kpoint 15">
       <r>    1.7852    1.0000 </r>
       <r>    4.8952    1.0000 </r>
       <r>    5.6563    0.2720 </r>
       <r>    6.7387    0.0000 </r>
       <r>   10.6480    0.0000 </r>
       <r>   12.2881    0.0000 </r>
       <r>   15.9956    0.0000 </r>
       <r>   19.3125    0.0000 </r>
       <r>   19.7088    0.0000 </r>
      </set>
      <set comment="kpoint 16">
       <r>    1.5946    1.0000 </r>
       <r>    2.6230    1.0000 </r>
       <r>    7.8472    0.0000 </r>
       <r>   10.8662    0.0000 </r>
       <r>   11.9767    0.0000 </r>
       <r>   12.4960    0.0000 </r>
       <r>   15.9680    0.0000 </r>
       <r>   17.6364    0.0000 </r>
       <r>   18.9005    0.0000 </r>
      </set>
      <set comment="kpoint 17">
       <r>    2.2214    1.0000 </r>
       <r>    3.3968    1.0000 </r>
       <r>    5.6050    0.9743 </r>
       <r>    9.0081    0.0000 </r>
       <r>   10.8318    0.0000 </r>
       <r>   12.6381    0.0000 </r>
       <r>   16.6111    0.0000 </r>
       <r>   19.3112    0.0000 </r>
       <r>   19.6437    0.0000 </r>
      </set>
      <set comment="kpoint 18">
       <r>    1.1295    1.0000 </r>
       <r>    3.6145    1.0000 </r>
       <r>    5.9975    0.0000 </r>
       <r>    8.5065    0.0000 </r>
       <r>    9.1582    0.0000 </r>
       <r>   10.7206    0.0000 </r>
       <r>   19.3049    0.0000 </r>
       <r>   20.4737    0.0000 </r>
       <r>   21.9681    0.0000 </r>
      </set>
      <set comment="kpoint 19">
       <r>   -0.2804    1.0000 </r>
       <r>    5.0727    1.0000 </r>
       <r>    6.6264    0.0000 </r>
       <r>    6.6264    0.0000 </r>
       <r>    9.2247    0.0000 </r>
       <r>    9.2247    0.0000 </r>
       <r>   18.2028    0.0000 </r>
       <r>   19.3110    0.0000 </r>
       <r>   21.8233    0.0000 </r>
      </set>
      <set comment="kpoint 20">
       <r>    1.2420    1.0000 </r>
       <r>    4.6253    1.0000 </r>
       <r>    5.6696    0.1050 </r>
       <r>    7.1777    0.0000 </r>
       <r>    8.5196    0.0000 </r>
       <r>   11.6767    0.0000 </r>
       <r>   18.4541    0.0000 </r>
       <r>   19.3181    0.0000 </r>
       <r>   21.5375    0.0000 </r>
      </set>
      <set comment="kpoint 21">
       <r>    2.9106    1.0000 </r>
       <r>    4.1871    1.0000 </r>
       <r>    5.0604    1.0000 </r>
       <r>    7.5950    0.0000 </r>
       <r>    9.8783    0.0000 </r>
       <r>   12.8501    0.0000 </r>
       <r>   16.8742    0.0000 </r>
       <r>   19.3131    0.0000 </r>
       <r>   19.9913    0.0000 </r>
      </set>
      <set comment="kpoint 22">
       <r>    2.3872    1.0000 </r>
       <r>    3.7670    1.0000 </r>
       <r>    5.5091    1.0005 </r>
       <r>    8.0160    0.0000 </r>
       <r>   11.6987    0.0000 </r>
       <r>   12.6487    0.0000 </r>
       <r>   15.1669    0.0000 </r>
       <r>   19.3119    0.0000 </r>
       <r>   21.2971    0.0000 </r>
      </set>
      <set comment="kpoint 23">
       <r>    1.6423    1.0000 </r>
       <r>    4.3851    1.0000 </r>
       <r>    5.5143    1.0009 </r>
       <r>    7.1880    0.0000 </r>
       <r>   10.6879    0.0000 </r>
       <r>   11.4109    0.0000 </r>
       <r>   17.1132    0.0000 </r>
       <r>   19.3144    0.0000 </r>
       <r>   20.5957    0.0000 </r>
      </set>
      <set comment="kpoint 24">
       <r>    3.1054    1.0000 </r>
       <r>    3.9361    1.0000 </r>
       <r>    4.6783    1.0000 </r>
       <r>    8.2062    0.0000 </r>
       <r>   10.6263    0.0000 </r>
       <r>   13.3821    0.0000 </r>
       <r>   16.2133    0.0000 </r>
       <r>   19.3009    0.0000 </r>
       <r>   19.4028    0.0000 </r>
      </set>
      <set comment="kpoint 25">
       <r>    2.9713    1.0000 </r>
       <r>    3.9329    1.0000 </r>
       <r>    5.1632    1.0000 </r>
       <r>    8.1600    0.0000 </r>
       <r>   11.6921    0.0000 </r>
       <r>   14.6274    0.0000 </r>
       <r>   15.3593    0.0000 </r>
       <r>   17.7338    0.0000 </r>
       <r>   19.3156    0.0000 </r>
      </set>
      <set comment="kpoint 26">
       <r>    2.5159    1.0000 </r>
       <r>    3.4705    1.0000 </r>
       <r>    6.0647    0.0000 </r>
       <r>    8.9361    0.0000 </r>
       <r>   11.2610    0.0000 </r>
       <r>   13.2038    0.0000 </r>
       <r>   15.3166    0.0000 </r>
       <r>   19.2730    0.0000 </r>
       <r>   19.4444    0.0000 </r>
      </set>
      <set comment="kpoint 27">
       <r>    1.0828    1.0000 </r>
       <r>    5.9270    0.0000 </r>
       <r>    6.0930    0.0000 </r>
       <r>    6.0930    0.0000 </r>
       <r>   11.0538    0.0000 </r>
       <r>   11.0538    0.0000 </r>
       <r>   16.1280    0.0000 </r>
       <r>   18.5046    0.0000 </r>
       <r>   19.3157    0.0000 </r>
      </set>
      <set comment="kpoint 28">
       <r>    2.0955    1.0000 </r>
       <r>    4.6761    1.0000 </r>
       <r>    5.8544    0.0000 </r>
       <r>    6.7947    0.0000 </r>
       <r>   10.9015    0.0000 </r>
       <r>   12.7695    0.0000 </r>
       <r>   15.2387    0.0000 </r>
       <r>   19.3125    0.0000 </r>
       <r>   19.8962    0.0000 </r>
      </set>
     </set>
    </set>
   </array>
  </eigenvalues>
  <separator name="orbital magnetization" >
   <v name="MAGDIPOLOUT">      0.00000000      0.00000000      0.00000000</v>
  </separator>
  <dos>
   <i name="efermi">      5.64223596 </i>
   <total>
    <array>
     <dimension dim="1">gridpoints</dimension>
     <dimension dim="2">spin</dimension>
     <field>energy</field>
     <field>total</field>
     <field>integrated</field>
     <set>
      <set comment="spin 1">
       <r>    -3.3581     0.0000     0.0000 </r>
       <r>    -3.2672     0.0000     0.0000 </r>
       <r>    -3.1764     0.0000     0.0000 </r>
       <r>    -3.0855     0.0000     0.0000 </r>
       <r>    -2.9947     0.0000     0.0000 </r>
       <r>    -2.9038     0.0000     0.0000 </r>
       <r>    -2.8130     0.0000     0.0000 </r>
       <r>    -2.7221     0.0000     0.0000 </r>
       <r>    -2.6313     0.0000     0.0000 </r>
       <r>    -2.5404     0.0000     0.0000 </r>
       <r>    -2.4495     0.0000     0.0000 </r>
       <r>    -2.3587     0.0000     0.0000 </r>
       <r>    -2.2678     0.0000     0.0000 </r>
       <r>    -2.1770    -0.0035    -0.0003 </r>
       <r>    -2.0861     0.0999     0.0088 </r>
       <r>    -1.9953     0.0057     0.0093 </r>
       <r>    -1.9044    -0.0001     0.0093 </r>
       <r>    -1.8136     0.0000     0.0093 </r>
       <r>    -1.7227     0.0000     0.0093 </r>
       <r>    -1.6318     0.0000     0.0093 </r>
       <r>    -1.5410    -0.0016     0.0091 </r>
       <r>    -1.4501     0.0792     0.0163 </r>
       <r>    -1.3593     0.2365     0.0378 </r>
       <r>    -1.2684    -0.0083     0.0370 </r>
       <r>    -1.1776     0.0000     0.0370 </r>
       <r>    -1.0867     0.0000     0.0370 </r>
       <r>    -0.9958     0.0000     0.0370 </r>
       <r>    -0.9050    -0.0054     0.0365 </r>
       <r>    -0.8141     0.1832     0.0532 </r>
       <r>    -0.7233     0.1311     0.0651 </r>
       <r>    -0.6324    -0.0032     0.0648 </r>
       <r>    -0.5416     0.0000     0.0648 </r>
       <r>    -0.4507    -0.0002     0.0648 </r>
       <r>    -0.3599     0.0121     0.0659 </r>
       <r>    -0.2690     0.0852     0.0736 </r>
       <r>    -0.1781     0.3070     0.1015 </r>
       <r>    -0.0873     0.0038     0.1019 </r>
       <r>     0.0036    -0.0002     0.1019 </r>
       <r>     0.0944     0.0000     0.1019 </r>
       <r>     0.1853    -0.0035     0.1015 </r>
       <r>     0.2761     0.1677     0.1168 </r>
       <r>     0.3670     0.4633     0.1589 </r>
       <r>     0.4578    -0.0211     0.1570 </r>
       <r>     0.5487     0.1755     0.1729 </r>
       <r>     0.6396     0.1387     0.1855 </r>
       <r>     0.7304    -0.0035     0.1852 </r>
       <r>     0.8213     0.0000     0.1852 </r>
       <r>     0.9121    -0.0005     0.1851 </r>
       <r>     1.0030     0.0151     0.1865 </r>
       <r>     1.0938     0.6440     0.2450 </r>
       <r>     1.1847     0.1832     0.2617 </r>
       <r>     1.2756     0.1788     0.2779 </r>
       <r>     1.3664     0.1469     0.2913 </r>
       <r>     1.4573     0.1469     0.3046 </r>
       <r>     1.5481     0.5002     0.3500 </r>
       <r>     1.6390     1.0117     0.4420 </r>
       <r>     1.7298     0.2686     0.4664 </r>
       <r>     1.8207     0.3818     0.5011 </r>
       <r>     1.9115    -0.0117     0.5000 </r>
       <r>     2.0024    -0.0113     0.4990 </r>
       <r>     2.0933     0.5934     0.5529 </r>
       <r>     2.1841     0.7881     0.6245 </r>
       <r>     2.2750     0.5820     0.6774 </r>
       <r>     2.3658     0.4670     0.7198 </r>
       <r>     2.4567     0.1358     0.7321 </r>
       <r>     2.5475     0.3700     0.7657 </r>
       <r>     2.6384     0.7717     0.8359 </r>
       <r>     2.7293    -0.0279     0.8333 </r>
       <r>     2.8201    -0.0080     0.8326 </r>
       <r>     2.9110     0.6469     0.8914 </r>
       <r>     3.0018     0.5640     0.9426 </r>
       <r>     3.0927     1.1744     1.0493 </r>
       <r>     3.1835     0.5819     1.1022 </r>
       <r>     3.2744     0.0850     1.1099 </r>
       <r>     3.3652     0.4337     1.1493 </r>
       <r>     3.4561     0.4797     1.1929 </r>
       <r>     3.5470     0.0600     1.1984 </r>
       <r>     3.6378     0.3338     1.2287 </r>
       <r>     3.7287     0.7627     1.2980 </r>
       <r>     3.8195     0.0272     1.3005 </r>
       <r>     3.9104     1.5674     1.4429 </r>
       <r>     4.0012     0.3354     1.4733 </r>
       <r>     4.0921     0.6144     1.5292 </r>
       <r>     4.1829     0.2968     1.5561 </r>
       <r>     4.2738    -0.0177     1.5545 </r>
       <r>     4.3647     0.3078     1.5825 </r>
       <r>     4.4555     0.8797     1.6624 </r>
       <r>     4.5464     0.4720     1.7053 </r>
       <r>     4.6372     1.0731     1.8028 </r>
       <r>     4.7281     0.3263     1.8324 </r>
       <r>     4.8189     0.6221     1.8890 </r>
       <r>     4.9098     0.9456     1.9749 </r>
       <r>     5.0007     0.0539     1.9798 </r>
       <r>     5.0915     0.5283     2.0278 </r>
       <r>     5.1824     1.2124     2.1379 </r>
       <r>     5.2732     0.4191     2.1760 </r>
       <r>     5.3641     0.4239     2.2145 </r>
       <r>     5.4549     1.4500     2.3463 </r>
       <r>     5.5458     0.7460     2.4140 </r>
       <r>     5.6366     1.2206     2.5249 </r>
       <r>     5.7275     0.1294     2.5367 </r>
       <r>     5.8184     0.2027     2.5551 </r>
       <r>     5.9092     0.2070     2.5739 </r>
       <r>     6.0001     0.7850     2.6452 </r>
       <r>     6.0909     0.4515     2.6863 </r>
       <r>     6.1818     1.0018     2.7773 </r>
       <r>     6.2726     0.5128     2.8239 </r>
       <r>     6.3635     0.3054     2.8516 </r>
       <r>     6.4543     0.1954     2.8694 </r>
       <r>     6.5452     0.6078     2.9246 </r>
       <r>     6.6361     1.3667     3.0488 </r>
       <r>     6.7269     1.3515     3.1715 </r>
       <r>     6.8178     0.4453     3.2120 </r>
       <r>     6.9086     0.1155     3.2225 </r>
       <r>     6.9995    -0.0033     3.2222 </r>
       <r>     7.0903    -0.0055     3.2217 </r>
       <r>     7.1812     0.6034     3.2765 </r>
       <r>     7.2721     0.4956     3.3216 </r>
       <r>     7.3629     0.2312     3.3426 </r>
       <r>     7.4538     0.8227     3.4173 </r>
       <r>     7.5446     0.6585     3.4771 </r>
       <r>     7.6355     0.2582     3.5006 </r>
       <r>     7.7263    -0.0155     3.4992 </r>
       <r>     7.8172     0.2470     3.5216 </r>
       <r>     7.9080     0.0663     3.5277 </r>
       <r>     7.9989     1.0437     3.6225 </r>
       <r>     8.0898     0.8897     3.7033 </r>
       <r>     8.1806     1.0195     3.7959 </r>
       <r>     8.2715     0.8357     3.8719 </r>
       <r>     8.3623     0.5037     3.9176 </r>
       <r>     8.4532     0.1397     3.9303 </r>
       <r>     8.5440     0.4781     3.9738 </r>
       <r>     8.6349    -0.0169     3.9722 </r>
       <r>     8.7258     0.0000     3.9722 </r>
       <r>     8.8166    -0.0090     3.9714 </r>
       <r>     8.9075     0.2257     3.9919 </r>
       <r>     8.9983     0.7211     4.0574 </r>
       <r>     9.0892     0.2246     4.0778 </r>
       <r>     9.1800     0.3737     4.1118 </r>
       <r>     9.2709     0.0636     4.1176 </r>
       <r>     9.3617     1.0808     4.2158 </r>
       <r>     9.4526     0.7868     4.2873 </r>
       <r>     9.5435     0.7192     4.3526 </r>
       <r>     9.6343     0.1976     4.3706 </r>
       <r>     9.7252     0.1002     4.3797 </r>
       <r>     9.8160     0.4598     4.4214 </r>
       <r>     9.9069     0.3970     4.4575 </r>
       <r>     9.9977     0.2748     4.4825 </r>
       <r>    10.0886    -0.0108     4.4815 </r>
       <r>    10.1794     0.0000     4.4815 </r>
       <r>    10.2703    -0.0014     4.4814 </r>
       <r>    10.3612     0.0623     4.4870 </r>
       <r>    10.4520     0.5899     4.5406 </r>
       <r>    10.5429     0.2451     4.5629 </r>
       <r>    10.6337     1.2549     4.6769 </r>
       <r>    10.7246     1.1429     4.7807 </r>
       <r>    10.8154     0.9491     4.8670 </r>
       <r>    10.9063     0.6587     4.9268 </r>
       <r>    10.9972     0.0156     4.9282 </r>
       <r>    11.0880     0.7816     4.9992 </r>
       <r>    11.1789     0.0022     4.9994 </r>
       <r>    11.2697     0.4240     5.0380 </r>
       <r>    11.3606     0.2825     5.0636 </r>
       <r>    11.4514     0.4829     5.1075 </r>
       <r>    11.5423     0.4674     5.1500 </r>
       <r>    11.6331     0.8167     5.2242 </r>
       <r>    11.7240     1.3905     5.3505 </r>
       <r>    11.8149     0.4395     5.3904 </r>
       <r>    11.9057    -0.0067     5.3898 </r>
       <r>    11.9966     0.3053     5.4176 </r>
       <r>    12.0874    -0.0099     5.4167 </r>
       <r>    12.1783    -0.0191     5.4149 </r>
       <r>    12.2691     0.5152     5.4617 </r>
       <r>    12.3600     0.1149     5.4722 </r>
       <r>    12.4509     0.1144     5.4826 </r>
       <r>    12.5417     0.1653     5.4976 </r>
       <r>    12.6326     0.9072     5.5800 </r>
       <r>    12.7234     0.7958     5.6523 </r>
       <r>    12.8143     0.3589     5.6849 </r>
       <r>    12.9051     0.1069     5.6947 </r>
       <r>    12.9960    -0.0075     5.6940 </r>
       <r>    13.0868     0.6161     5.7499 </r>
       <r>    13.1777     0.2801     5.7754 </r>
       <r>    13.2686     0.0075     5.7761 </r>
       <r>    13.3594     0.4969     5.8212 </r>
       <r>    13.4503     0.7120     5.8859 </r>
       <r>    13.5411     0.0337     5.8890 </r>
       <r>    13.6320    -0.0008     5.8889 </r>
       <r>    13.7228     0.0000     5.8889 </r>
       <r>    13.8137    -0.0191     5.8871 </r>
       <r>    13.9045     0.5166     5.9341 </r>
       <r>    13.9954     0.1163     5.9446 </r>
       <r>    14.0863    -0.0022     5.9444 </r>
       <r>    14.1771     0.0000     5.9444 </r>
       <r>    14.2680     0.0000     5.9444 </r>
       <r>    14.3588     0.0000     5.9444 </r>
       <r>    14.4497    -0.0005     5.9444 </r>
       <r>    14.5405     0.0041     5.9448 </r>
       <r>    14.6314     0.8726     6.0241 </r>
       <r>    14.7223     0.3581     6.0566 </r>
       <r>    14.8131    -0.0129     6.0554 </r>
       <r>    14.9040     0.0779     6.0625 </r>
       <r>    14.9948     0.5557     6.1130 </r>
       <r>    15.0857    -0.0047     6.1126 </r>
       <r>    15.1765     0.3676     6.1460 </r>
       <r>    15.2674     0.3381     6.1767 </r>
       <r>    15.3582     0.8229     6.2514 </r>
       <r>    15.4491     0.0524     6.2562 </r>
       <r>    15.5400     0.2462     6.2786 </r>
       <r>    15.6308    -0.0089     6.2778 </r>
       <r>    15.7217     0.0000     6.2778 </r>
       <r>    15.8125    -0.0029     6.2775 </r>
       <r>    15.9034     0.1093     6.2874 </r>
       <r>    15.9942     0.8234     6.3623 </r>
       <r>    16.0851     0.0287     6.3649 </r>
       <r>    16.1759     0.4818     6.4086 </r>
       <r>    16.2668     0.3469     6.4402 </r>
       <r>    16.3577     0.4717     6.4830 </r>
       <r>    16.4485    -0.0192     6.4813 </r>
       <r>    16.5394     0.1263     6.4927 </r>
       <r>    16.6302     0.5061     6.5387 </r>
       <r>    16.7211    -0.0201     6.5369 </r>
       <r>    16.8119     0.0782     6.5440 </r>
       <r>    16.9028     0.2684     6.5684 </r>
       <r>    16.9937     0.2678     6.5927 </r>
       <r>    17.0845     0.2460     6.6151 </r>
       <r>    17.1754     0.0380     6.6185 </r>
       <r>    17.2662     0.5894     6.6721 </r>
       <r>    17.3571     0.0434     6.6760 </r>
       <r>    17.4479    -0.0011     6.6759 </r>
       <r>    17.5388     0.0047     6.6763 </r>
       <r>    17.6296     0.2893     6.7026 </r>
       <r>    17.7205     0.6382     6.7606 </r>
       <r>    17.8114     0.2934     6.7873 </r>
       <r>    17.9022     0.3134     6.8157 </r>
       <r>    17.9931     0.3089     6.8438 </r>
       <r>    18.0839     0.2980     6.8709 </r>
       <r>    18.1748     0.0809     6.8782 </r>
       <r>    18.2656     0.0111     6.8792 </r>
       <r>    18.3565     0.1588     6.8937 </r>
       <r>    18.4474     0.4882     6.9380 </r>
       <r>    18.5382     0.0835     6.9456 </r>
       <r>    18.6291     0.6145     7.0014 </r>
       <r>    18.7199     0.0450     7.0055 </r>
       <r>    18.8108     0.0416     7.0093 </r>
       <r>    18.9016     0.3118     7.0376 </r>
       <r>    18.9925    -0.0222     7.0356 </r>
       <r>    19.0833     0.4575     7.0772 </r>
       <r>    19.1742     0.1015     7.0864 </r>
       <r>    19.2651     4.1684     7.4651 </r>
       <r>    19.3559     7.6238     8.1578 </r>
       <r>    19.4468     0.4902     8.2023 </r>
       <r>    19.5376     0.2799     8.2278 </r>
       <r>    19.6285     0.6604     8.2878 </r>
       <r>    19.7193     0.6234     8.3444 </r>
       <r>    19.8102    -0.0298     8.3417 </r>
       <r>    19.9010     0.6129     8.3974 </r>
       <r>    19.9919     0.4723     8.4403 </r>
       <r>    20.0828     0.1519     8.4541 </r>
       <r>    20.1736    -0.0042     8.4537 </r>
       <r>    20.2645     0.0000     8.4537 </r>
       <r>    20.3553    -0.0104     8.4528 </r>
       <r>    20.4462     0.2724     8.4775 </r>
       <r>    20.5370     0.1221     8.4886 </r>
       <r>    20.6279     0.2089     8.5076 </r>
       <r>    20.7188     0.7511     8.5758 </r>
       <r>    20.8096     0.4964     8.6209 </r>
       <r>    20.9005     0.1465     8.6342 </r>
       <r>    20.9913     0.2496     8.6569 </r>
       <r>    21.0822     0.1951     8.6746 </r>
       <r>    21.1730     0.5718     8.7266 </r>
       <r>    21.2639     0.4484     8.7673 </r>
       <r>    21.3547     0.2219     8.7875 </r>
       <r>    21.4456    -0.0095     8.7866 </r>
       <r>    21.5365     0.3136     8.8151 </r>
       <r>    21.6273    -0.0054     8.8146 </r>
       <r>    21.7182     0.0674     8.8207 </r>
       <r>    21.8090     0.1259     8.8322 </r>
       <r>    21.8999     0.6410     8.8904 </r>
       <r>    21.9907    -0.0166     8.8889 </r>
       <r>    22.0816    -0.0001     8.8889 </r>
       <r>    22.1724     0.0000     8.8889 </r>
       <r>    22.2633    -0.0001     8.8889 </r>
       <r>    22.3542    -0.0078     8.8882 </r>
       <r>    22.4450     0.3536     8.9203 </r>
       <r>    22.5359     0.5928     8.9742 </r>
       <r>    22.6267    -0.0046     8.9737 </r>
       <r>    22.7176     0.2996     9.0010 </r>
       <r>    22.8084    -0.0106     9.0000 </r>
       <r>    22.8993     0.0000     9.0000 </r>
       <r>    22.9902     0.0000     9.0000 </r>
       <r>    23.0810     0.0000     9.0000 </r>
       <r>    23.1719     0.0000     9.0000 </r>
       <r>    23.2627     0.0000     9.0000 </r>
       <r>    23.3536     0.0000     9.0000 </r>
       <r>    23.4444     0.0000     9.0000 </r>
       <r>    23.5353     0.0000     9.0000 </r>
       <r>    23.6261     0.0000     9.0000 </r>
       <r>    23.7170     0.0000     9.0000 </r>
       <r>    23.8079     0.0000     9.0000 </r>
       <r>    23.8987     0.0000     9.0000 </r>
      </set>
      <set comment="spin 2">
       <r>    -3.3581     0.0000     0.0000 </r>
       <r>    -3.2672     0.0000     0.0000 </r>
       <r>    -3.1764     0.0000     0.0000 </r>
       <r>    -3.0855     0.0000     0.0000 </r>
       <r>    -2.9947     0.0000     0.0000 </r>
       <r>    -2.9038     0.0000     0.0000 </r>
       <r>    -2.8130     0.0000     0.0000 </r>
       <r>    -2.7221     0.0000     0.0000 </r>
       <r>    -2.6313     0.0000     0.0000 </r>
       <r>    -2.5404     0.0000     0.0000 </r>
       <r>    -2.4495     0.0000     0.0000 </r>
       <r>    -2.3587     0.0000     0.0000 </r>
       <r>    -2.2678     0.0000     0.0000 </r>
       <r>    -2.1770    -0.0003     0.0000 </r>
       <r>    -2.0861     0.0182     0.0016 </r>
       <r>    -1.9953     0.0873     0.0096 </r>
       <r>    -1.9044    -0.0033     0.0093 </r>
       <r>    -1.8136     0.0000     0.0093 </r>
       <r>    -1.7227     0.0000     0.0093 </r>
       <r>    -1.6318     0.0000     0.0093 </r>
       <r>    -1.5410     0.0000     0.0093 </r>
       <r>    -1.4501    -0.0099     0.0084 </r>
       <r>    -1.3593     0.2635     0.0323 </r>
       <r>    -1.2684     0.0531     0.0371 </r>
       <r>    -1.1776    -0.0010     0.0370 </r>
       <r>    -1.0867     0.0000     0.0370 </r>
       <r>    -0.9958     0.0000     0.0370 </r>
       <r>    -0.9050    -0.0001     0.0370 </r>
       <r>    -0.8141    -0.0069     0.0364 </r>
       <r>    -0.7233     0.3125     0.0648 </r>
       <r>    -0.6324     0.0004     0.0648 </r>
       <r>    -0.5416    -0.0002     0.0648 </r>
       <r>    -0.4507     0.0000     0.0648 </r>
       <r>    -0.3599    -0.0024     0.0646 </r>
       <r>    -0.2690     0.0707     0.0710 </r>
       <r>    -0.1781     0.1171     0.0817 </r>
       <r>    -0.0873     0.2302     0.1026 </r>
       <r>     0.0036    -0.0080     0.1019 </r>
       <r>     0.0944     0.0000     0.1019 </r>
       <r>     0.1853     0.0000     0.1018 </r>
       <r>     0.2761    -0.0204     0.1000 </r>
       <r>     0.3670     0.5404     0.1491 </r>
       <r>     0.4578     0.0932     0.1576 </r>
       <r>     0.5487    -0.0086     0.1568 </r>
       <r>     0.6396     0.3125     0.1852 </r>
       <r>     0.7304     0.0003     0.1852 </r>
       <r>     0.8213    -0.0002     0.1852 </r>
       <r>     0.9121     0.0000     0.1852 </r>
       <r>     1.0030    -0.0086     0.1844 </r>
       <r>     1.0938     0.2766     0.2095 </r>
       <r>     1.1847     0.4485     0.2503 </r>
       <r>     1.2756     0.2872     0.2764 </r>
       <r>     1.3664     0.0086     0.2772 </r>
       <r>     1.4573     0.3116     0.3055 </r>
       <r>     1.5481    -0.0257     0.3031 </r>
       <r>     1.6390     1.1012     0.4032 </r>
       <r>     1.7298     0.4504     0.4441 </r>
       <r>     1.8207     0.5927     0.4980 </r>
       <r>     1.9115     0.0231     0.5001 </r>
       <r>     2.0024    -0.0045     0.4997 </r>
       <r>     2.0933     0.1251     0.5110 </r>
       <r>     2.1841     0.7960     0.5833 </r>
       <r>     2.2750     0.6418     0.6417 </r>
       <r>     2.3658     0.6519     0.7009 </r>
       <r>     2.4567     0.2340     0.7221 </r>
       <r>     2.5475     0.2567     0.7455 </r>
       <r>     2.6384     0.8241     0.8203 </r>
       <r>     2.7293     0.1459     0.8336 </r>
       <r>     2.8201    -0.0073     0.8329 </r>
       <r>     2.9110     0.1278     0.8445 </r>
       <r>     3.0018     1.0414     0.9392 </r>
       <r>     3.0927     0.4273     0.9780 </r>
       <r>     3.1835     0.9525     1.0645 </r>
       <r>     3.2744     0.5333     1.1130 </r>
       <r>     3.3652     0.0184     1.1146 </r>
       <r>     3.4561     0.6758     1.1760 </r>
       <r>     3.5470     0.2003     1.1943 </r>
       <r>     3.6378     0.2460     1.2166 </r>
       <r>     3.7287     0.5160     1.2635 </r>
       <r>     3.8195     0.4705     1.3062 </r>
       <r>     3.9104     0.2499     1.3289 </r>
       <r>     4.0012     1.6308     1.4771 </r>
       <r>     4.0921     0.2416     1.4991 </r>
       <r>     4.1829     0.4560     1.5405 </r>
       <r>     4.2738     0.1698     1.5559 </r>
       <r>     4.3647     0.0371     1.5593 </r>
       <r>     4.4555     0.7401     1.6265 </r>
       <r>     4.5464     0.4865     1.6707 </r>
       <r>     4.6372     0.8085     1.7442 </r>
       <r>     4.7281     1.0064     1.8356 </r>
       <r>     4.8189    -0.0295     1.8330 </r>
       <r>     4.9098     1.3844     1.9587 </r>
       <r>     5.0007     0.1382     1.9713 </r>
       <r>     5.0915     0.3501     2.0031 </r>
       <r>     5.1824     0.9235     2.0870 </r>
       <r>     5.2732     0.9624     2.1744 </r>
       <r>     5.3641     0.0365     2.1778 </r>
       <r>     5.4549     0.9916     2.2679 </r>
       <r>     5.5458     1.4099     2.3960 </r>
       <r>     5.6366     0.7316     2.4624 </r>
       <r>     5.7275     0.8514     2.5398 </r>
       <r>     5.8184    -0.0203     2.5379 </r>
       <r>     5.9092     0.3177     2.5668 </r>
       <r>     6.0001     0.4402     2.6068 </r>
       <r>     6.0909     0.7150     2.6717 </r>
       <r>     6.1818     0.5803     2.7245 </r>
       <r>     6.2726     0.8667     2.8032 </r>
       <r>     6.3635     0.3624     2.8361 </r>
       <r>     6.4543     0.3569     2.8686 </r>
       <r>     6.5452     0.0175     2.8702 </r>
       <r>     6.6361     1.4612     3.0029 </r>
       <r>     6.7269     1.2652     3.1179 </r>
       <r>     6.8178     0.8187     3.1922 </r>
       <r>     6.9086     0.3398     3.2231 </r>
       <r>     6.9995    -0.0097     3.2222 </r>
       <r>     7.0903    -0.0079     3.2215 </r>
       <r>     7.1812     0.2953     3.2483 </r>
       <r>     7.2721     0.4002     3.2847 </r>
       <r>     7.3629     0.5305     3.3329 </r>
       <r>     7.4538     0.7102     3.3974 </r>
       <r>     7.5446     0.3002     3.4247 </r>
       <r>     7.6355     0.8470     3.5016 </r>
       <r>     7.7263    -0.0184     3.5000 </r>
       <r>     7.8172     0.0247     3.5022 </r>
       <r>     7.9080     0.2812     3.5278 </r>
       <r>     7.9989     0.3427     3.5589 </r>
       <r>     8.0898     1.1704     3.6652 </r>
       <r>     8.1806     0.9061     3.7476 </r>
       <r>     8.2715     0.7077     3.8119 </r>
       <r>     8.3623     1.1700     3.9182 </r>
       <r>     8.4532    -0.0357     3.9149 </r>
       <r>     8.5440     0.5818     3.9678 </r>
       <r>     8.6349     0.0501     3.9723 </r>
       <r>     8.7258    -0.0011     3.9722 </r>
       <r>     8.8166    -0.0006     3.9722 </r>
       <r>     8.9075     0.0241     3.9744 </r>
       <r>     8.9983     0.4923     4.0191 </r>
       <r>     9.0892     0.5862     4.0723 </r>
       <r>     9.1800     0.2722     4.0971 </r>
       <r>     9.2709     0.2586     4.1206 </r>
       <r>     9.3617     0.0671     4.1267 </r>
       <r>     9.4526     1.7898     4.2893 </r>
       <r>     9.5435     0.1521     4.3031 </r>
       <r>     9.6343     0.7648     4.3726 </r>
       <r>     9.7252    -0.0331     4.3696 </r>
       <r>     9.8160     0.3197     4.3986 </r>
       <r>     9.9069     0.5791     4.4512 </r>
       <r>     9.9977     0.2741     4.4761 </r>
       <r>    10.0886     0.0599     4.4816 </r>
       <r>    10.1794    -0.0012     4.4815 </r>
       <r>    10.2703     0.0000     4.4815 </r>
       <r>    10.3612    -0.0111     4.4805 </r>
       <r>    10.4520     0.3109     4.5087 </r>
       <r>    10.5429     0.6200     4.5651 </r>
       <r>    10.6337     0.5233     4.6126 </r>
       <r>    10.7246     1.4048     4.7402 </r>
       <r>    10.8154     0.7176     4.8054 </r>
       <r>    10.9063     1.2221     4.9165 </r>
       <r>    10.9972     0.0928     4.9249 </r>
       <r>    11.0880     0.4977     4.9701 </r>
       <r>    11.1789     0.3316     5.0002 </r>
       <r>    11.2697     0.1881     5.0173 </r>
       <r>    11.3606     0.4152     5.0551 </r>
       <r>    11.4514     0.3653     5.0883 </r>
       <r>    11.5423     0.4796     5.1318 </r>
       <r>    11.6331     0.6062     5.1869 </r>
       <r>    11.7240     1.4999     5.3232 </r>
       <r>    11.8149     0.7136     5.3880 </r>
       <r>    11.9057     0.0006     5.3881 </r>
       <r>    11.9966     0.2561     5.4113 </r>
       <r>    12.0874     0.0597     5.4168 </r>
       <r>    12.1783    -0.0036     5.4164 </r>
       <r>    12.2691     0.1269     5.4280 </r>
       <r>    12.3600     0.5054     5.4739 </r>
       <r>    12.4509    -0.0220     5.4719 </r>
       <r>    12.5417     0.3059     5.4997 </r>
       <r>    12.6326     0.3091     5.5278 </r>
       <r>    12.7234     1.1009     5.6278 </r>
       <r>    12.8143     0.4445     5.6682 </r>
       <r>    12.9051     0.2993     5.6954 </r>
       <r>    12.9960    -0.0171     5.6938 </r>
       <r>    13.0868     0.2773     5.7190 </r>
       <r>    13.1777     0.3873     5.7542 </r>
       <r>    13.2686     0.2683     5.7786 </r>
       <r>    13.3594     0.0823     5.7861 </r>
       <r>    13.4503     0.7312     5.8525 </r>
       <r>    13.5411     0.4151     5.8902 </r>
       <r>    13.6320    -0.0145     5.8889 </r>
       <r>    13.7228     0.0000     5.8889 </r>
       <r>    13.8137    -0.0023     5.8887 </r>
       <r>    13.9045     0.1188     5.8995 </r>
       <r>    13.9954     0.5139     5.9462 </r>
       <r>    14.0863    -0.0190     5.9444 </r>
       <r>    14.1771     0.0000     5.9444 </r>
       <r>    14.2680     0.0000     5.9444 </r>
       <r>    14.3588     0.0000     5.9444 </r>
       <r>    14.4497     0.0000     5.9444 </r>
       <r>    14.5405    -0.0105     5.9435 </r>
       <r>    14.6314     0.3399     5.9744 </r>
       <r>    14.7223     0.8920     6.0554 </r>
       <r>    14.8131     0.0019     6.0556 </r>
       <r>    14.9040    -0.0148     6.0542 </r>
       <r>    14.9948     0.4348     6.0937 </r>
       <r>    15.0857     0.1886     6.1109 </r>
       <r>    15.1765     0.1935     6.1285 </r>
       <r>    15.2674     0.3797     6.1630 </r>
       <r>    15.3582     0.6413     6.2212 </r>
       <r>    15.4491     0.3149     6.2498 </r>
       <r>    15.5400     0.2827     6.2755 </r>
       <r>    15.6308     0.0253     6.2778 </r>
       <r>    15.7217    -0.0005     6.2778 </r>
       <r>    15.8125     0.0000     6.2778 </r>
       <r>    15.9034    -0.0184     6.2761 </r>
       <r>    15.9942     0.5797     6.3288 </r>
       <r>    16.0851     0.3648     6.3619 </r>
       <r>    16.1759     0.1102     6.3719 </r>
       <r>    16.2668     0.5918     6.4257 </r>
       <r>    16.3577     0.5752     6.4780 </r>
       <r>    16.4485     0.0396     6.4816 </r>
       <r>    16.5394    -0.0195     6.4798 </r>
       <r>    16.6302     0.5073     6.5259 </r>
       <r>    16.7211     0.1252     6.5373 </r>
       <r>    16.8119    -0.0132     6.5361 </r>
       <r>    16.9028     0.2799     6.5615 </r>
       <r>    16.9937     0.2624     6.5853 </r>
       <r>    17.0845     0.1098     6.5953 </r>
       <r>    17.1754     0.2845     6.6211 </r>
       <r>    17.2662     0.1065     6.6308 </r>
       <r>    17.3571     0.5155     6.6777 </r>
       <r>    17.4479    -0.0191     6.6759 </r>
       <r>    17.5388    -0.0029     6.6757 </r>
       <r>    17.6296     0.1172     6.6863 </r>
       <r>    17.7205     0.3629     6.7193 </r>
       <r>    17.8114     0.6811     6.7812 </r>
       <r>    17.9022     0.0475     6.7855 </r>
       <r>    17.9931     0.6104     6.8409 </r>
       <r>    18.0839     0.1639     6.8558 </r>
       <r>    18.1748     0.1746     6.8717 </r>
       <r>    18.2656     0.0908     6.8799 </r>
       <r>    18.3565    -0.0076     6.8793 </r>
       <r>    18.4474     0.4306     6.9184 </r>
       <r>    18.5382     0.2789     6.9437 </r>
       <r>    18.6291     0.3249     6.9732 </r>
       <r>    18.7199     0.3119     7.0016 </r>
       <r>    18.8108     0.0837     7.0092 </r>
       <r>    18.9016     0.1596     7.0237 </r>
       <r>    18.9925     0.1500     7.0373 </r>
       <r>    19.0833     0.0467     7.0415 </r>
       <r>    19.1742     0.5629     7.0927 </r>
       <r>    19.2651     0.3936     7.1285 </r>
       <r>    19.3559    10.3847     8.0720 </r>
       <r>    19.4468     1.3905     8.1983 </r>
       <r>    19.5376     0.4361     8.2379 </r>
       <r>    19.6285     0.3860     8.2730 </r>
       <r>    19.7193     0.8892     8.3538 </r>
       <r>    19.8102     0.1780     8.3700 </r>
       <r>    19.9010     0.3146     8.3985 </r>
       <r>    19.9919     0.4756     8.4418 </r>
       <r>    20.0828     0.4512     8.4827 </r>
       <r>    20.1736    -0.0139     8.4815 </r>
       <r>    20.2645     0.0000     8.4815 </r>
       <r>    20.3553    -0.0006     8.4814 </r>
       <r>    20.4462     0.0322     8.4844 </r>
       <r>    20.5370     0.2742     8.5093 </r>
       <r>    20.6279     0.2830     8.5350 </r>
       <r>    20.7188     0.2003     8.5532 </r>
       <r>    20.8096     0.7577     8.6220 </r>
       <r>    20.9005    -0.0254     8.6197 </r>
       <r>    20.9913     0.3118     8.6480 </r>
       <r>    21.0822    -0.0023     8.6478 </r>
       <r>    21.1730     0.1754     8.6638 </r>
       <r>    21.2639     0.5302     8.7119 </r>
       <r>    21.3547     0.8588     8.7900 </r>
       <r>    21.4456    -0.0361     8.7867 </r>
       <r>    21.5365     0.1515     8.8004 </r>
       <r>    21.6273     0.1625     8.8152 </r>
       <r>    21.7182    -0.0065     8.8146 </r>
       <r>    21.8090     0.1313     8.8266 </r>
       <r>    21.8999     0.1336     8.8387 </r>
       <r>    21.9907     0.8316     8.9143 </r>
       <r>    22.0816     0.0275     8.9168 </r>
       <r>    22.1724    -0.0010     8.9167 </r>
       <r>    22.2633     0.0000     8.9167 </r>
       <r>    22.3542    -0.0064     8.9161 </r>
       <r>    22.4450     0.1813     8.9326 </r>
       <r>    22.5359     0.6532     8.9919 </r>
       <r>    22.6267     0.0908     9.0002 </r>
       <r>    22.7176    -0.0018     9.0000 </r>
       <r>    22.8084     0.0000     9.0000 </r>
       <r>    22.8993     0.0000     9.0000 </r>
       <r>    22.9902     0.0000     9.0000 </r>
       <r>    23.0810     0.0000     9.0000 </r>
       <r>    23.1719     0.0000     9.0000 </r>
       <r>    23.2627     0.0000     9.0000 </r>
       <r>    23.3536     0.0000     9.0000 </r>
       <r>    23.4444     0.0000     9.0000 </r>
       <r>    23.5353     0.0000     9.0000 </r>
       <r>    23.6261     0.0000     9.0000 </r>
       <r>    23.7170     0.0000     9.0000 </r>
       <r>    23.8079     0.0000     9.0000 </r>
       <r>    23.8987     0.0000     9.0000 </r>
      </set>
     </set>
    </array>
   </total>
   <partial>
    <array>
     <dimension dim="1">gridpoints</dimension>
     <dimension dim="2">spin</dimension>
     <dimension dim="3">ion</dimension>
     <field>energy</field>
     <field>  s</field>
     <field> py</field>
     <field> pz</field>
     <field> px</field>
     <field>dxy</field>
     <field>dyz</field>
     <field>dz2</field>
     <field>dxz</field>
     <field>dx2</field>
     <set>
      <set comment="ion 1">
       <set comment="spin 1">
        <r>    -3.3581     0.0000     0.0000     0.0000     0.0000     0.0000     0.0000     0.0000     0.0000     0.0000 </r>
        <r>    -3.2672     0.0000     0.0000     0.0000     0.0000     0.0000     0.0000     0.0000     0.0000     0.0000 </r>
        <r>    -3.1764     0.0000     0.0000     0.0000     0.0000     0.0000     0.0000     0.0000     0.0000     0.0000 </r>
        <r>    -3.0855     0.0000     0.0000     0.0000     0.0000     0.0000     0.0000     0.0000     0.0000     0.0000 </r>
        <r>    -2.9947     0.0000     0.0000     0.0000     0.0000     0.0000     0.0000     0.0000     0.0000     0.0000 </r>
        <r>    -2.9038     0.0000     0.0000     0.0000     0.0000     0.0000     0.0000     0.0000     0.0000     0.0000 </r>
        <r>    -2.8130     0.0000     0.0000     0.0000     0.0000     0.0000     0.0000     0.0000     0.0000     0.0000 </r>
        <r>    -2.7221     0.0000     0.0000     0.0000     0.0000     0.0000     0.0000     0.0000     0.0000     0.0000 </r>
        <r>    -2.6313     0.0000     0.0000     0.0000     0.0000     0.0000     0.0000     0.0000     0.0000     0.0000 </r>
        <r>    -2.5404     0.0000     0.0000     0.0000     0.0000     0.0000     0.0000     0.0000     0.0000     0.0000 </r>
        <r>    -2.4495     0.0000     0.0000     0.0000     0.0000     0.0000     0.0000     0.0000     0.0000     0.0000 </r>
        <r>    -2.3587     0.0000     0.0000     0.0000     0.0000     0.0000     0.0000     0.0000     0.0000     0.0000 </r>
        <r>    -2.2678     0.0000     0.0000     0.0000     0.0000     0.0000     0.0000     0.0000     0.0000     0.0000 </r>
        <r>    -2.1770    -0.0028     0.0000     0.0000     0.0000     0.0000     0.0000     0.0000     0.0000     0.0000 </r>
        <r>    -2.0861     0.0808     0.0007     0.0007     0.0007     0.0000     0.0000     0.0000     0.0000     0.0000 </r>
        <r>    -1.9953     0.0046     0.0000     0.0000     0.0000     0.0000     0.0000     0.0000     0.0000     0.0000 </r>
        <r>    -1.9044    -0.0001     0.0000     0.0000     0.0000     0.0000     0.0000     0.0000     0.0000     0.0000 </r>
        <r>    -1.8136     0.0000     0.0000     0.0000     0.0000     0.0000     0.0000     0.0000     0.0000     0.0000 </r>
        <r>    -1.7227     0.0000     0.0000     0.0000     0.0000     0.0000     0.0000     0.0000     0.0000     0.0000 </r>
        <r>    -1.6318     0.0000     0.0000     0.0000     0.0000     0.0000     0.0000     0.0000     0.0000     0.0000 </r>
        <r>    -1.5410    -0.0012     0.0000     0.0000    -0.0001     0.0000     0.0000     0.0000     0.0000     0.0000 </r>
        <r>    -1.4501     0.0605     0.0005     0.0005     0.0045     0.0002     0.0000     0.0001     0.0002     0.0002 </r>
        <r>    -1.3593     0.1808     0.0014     0.0014     0.0135     0.0005     0.0001     0.0002     0.0005     0.0005 </r>
        <r>    -1.2684    -0.0063     0.0000     0.0000    -0.0005     0.0000     0.0000     0.0000     0.0000     0.0000 </r>
        <r>    -1.1776     0.0000     0.0000     0.0000     0.0000     0.0000     0.0000     0.0000     0.0000     0.0000 </r>
        <r>    -1.0867     0.0000     0.0000     0.0000     0.0000     0.0000     0.0000     0.0000     0.0000     0.0000 </r>
        <r>    -0.9958     0.0000     0.0000     0.0000     0.0000     0.0000     0.0000     0.0000     0.0000     0.0000 </r>
        <r>    -0.9050    -0.0039    -0.0003    -0.0003     0.0000     0.0000    -0.0001     0.0000     0.0000     0.0000 </r>
        <r>    -0.8141     0.1321     0.0093     0.0093     0.0008     0.0006     0.0034     0.0001     0.0006     0.0003 </r>
        <r>    -0.7233     0.0945     0.0066     0.0066     0.0006     0.0005     0.0025     0.0001     0.0005     0.0002 </r>
        <r>    -0.6324    -0.0023    -0.0002    -0.0002     0.0000     0.0000    -0.0001     0.0000     0.0000     0.0000 </r>
        <r>    -0.5416     0.0000     0.0000     0.0000     0.0000     0.0000     0.0000     0.0000     0.0000     0.0000 </r>
        <r>    -0.4507    -0.0002     0.0000     0.0000     0.0000     0.0000     0.0000     0.0000     0.0000     0.0000 </r>
        <r>    -0.3599     0.0081     0.0005     0.0005     0.0005     0.0003     0.0003     0.0000     0.0003     0.0000 </r>
        <r>    -0.2690     0.0573     0.0036     0.0025     0.0036     0.0027     0.0026    -0.0003     0.0026     0.0000 </r>
        <r>    -0.1781     0.2041     0.0013     0.0433     0.0013     0.0002     0.0014     0.0111     0.0014     0.0000 </r>
        <r>    -0.0873     0.0026     0.0000     0.0005     0.0000     0.0000     0.0000     0.0001     0.0000     0.0000 </r>
        <r>     0.0036    -0.0001     0.0000     0.0000     0.0000     0.0000     0.0000     0.0000     0.0000     0.0000 </r>
        <r>     0.0944     0.0000     0.0000     0.0000     0.0000     0.0000     0.0000     0.0000     0.0000     0.0000 </r>
        <r>     0.1853    -0.0022    -0.0001     0.0000    -0.0004    -0.0002     0.0000     0.0000     0.0000     0.0000 </r>
        <r>     0.2761     0.1048     0.0068     0.0004     0.0211     0.0075     0.0014     0.0014     0.0014     0.0020 </r>
        <r>     0.3670     0.2895     0.0187     0.0012     0.0582     0.0207     0.0037     0.0038     0.0038     0.0055 </r>
[...]
        <r>  0.0005 </r>
       </set>
       <set comment="band 3">
        <r>  0.0015 </r>
       </set>
       <set comment="band 4">
        <r>  0.0000 </r>
       </set>
       <set comment="band 5">
        <r>  0.0000 </r>
       </set>
       <set comment="band 6">
        <r>  0.0957 </r>
       </set>
       <set comment="band 7">
        <r>  0.4159 </r>
       </set>
       <set comment="band 8">
        <r> 43.9573 </r>
       </set>
       <set comment="band 9">
        <r>  0.0000 </r>
       </set>
      </set>
     </set>
     <set comment="spin2">
      <set comment="kpoint 1">
       <set comment="band 1">
        <r>  0.8081 </r>
       </set>
       <set comment="band 2">
        <r>  0.0001 </r>
       </set>
       <set comment="band 3">
        <r>  0.0000 </r>
       </set>
       <set comment="band 4">
        <r>  0.0000 </r>
       </set>
       <set comment="band 5">
        <r>  0.0000 </r>
       </set>
       <set comment="band 6">
        <r>  0.0000 </r>
       </set>
       <set comment="band 7">
        <r>  0.0004 </r>
       </set>
       <set comment="band 8">
        <r> 43.8156 </r>
       </set>
       <set comment="band 9">
        <r>  0.0628 </r>
       </set>
      </set>
      <set comment="kpoint 2">
       <set comment="band 1">
        <r>  0.7204 </r>
       </set>
       <set comment="band 2">
        <r>  0.0013 </r>
       </set>
       <set comment="band 3">
        <r>  0.0000 </r>
       </set>
       <set comment="band 4">
        <r>  0.0000 </r>
       </set>
       <set comment="band 5">
        <r>  0.0000 </r>
       </set>
       <set comment="band 6">
        <r>  0.0039 </r>
       </set>
       <set comment="band 7">
        <r> 41.9047 </r>
       </set>
       <set comment="band 8">
        <r>  1.9709 </r>
       </set>
       <set comment="band 9">
        <r>  0.0399 </r>
       </set>
      </set>
      <set comment="kpoint 3">
       <set comment="band 1">
        <r>  0.4671 </r>
       </set>
       <set comment="band 2">
        <r>  0.0340 </r>
       </set>
       <set comment="band 3">
        <r>  0.0037 </r>
       </set>
       <set comment="band 4">
        <r>  0.0000 </r>
       </set>
       <set comment="band 5">
        <r>  0.0000 </r>
       </set>
       <set comment="band 6">
        <r>  0.0114 </r>
       </set>
       <set comment="band 7">
        <r>  0.1906 </r>
       </set>
       <set comment="band 8">
        <r> 43.2446 </r>
       </set>
       <set comment="band 9">
        <r>  0.8536 </r>
       </set>
      </set>
      <set comment="kpoint 4">
       <set comment="band 1">
        <r>  0.3408 </r>
       </set>
       <set comment="band 2">
        <r>  0.0005 </r>
       </set>
       <set comment="band 3">
        <r>  0.0000 </r>
       </set>
       <set comment="band 4">
        <r>  0.0052 </r>
       </set>
       <set comment="band 5">
        <r>  0.0000 </r>
       </set>
       <set comment="band 6">
        <r>  0.0000 </r>
       </set>
       <set comment="band 7">
        <r>  0.4689 </r>
       </set>
       <set comment="band 8">
        <r>  0.0039 </r>
       </set>
       <set comment="band 9">
        <r> 44.0024 </r>
       </set>
      </set>
      <set comment="kpoint 5">
       <set comment="band 1">
        <r>  0.5670 </r>
       </set>
       <set comment="band 2">
        <r>  0.0203 </r>
       </set>
       <set comment="band 3">
        <r>  0.0034 </r>
       </set>
       <set comment="band 4">
        <r>  0.0000 </r>
       </set>
       <set comment="band 5">
        <r>  0.0077 </r>
       </set>
       <set comment="band 6">
        <r>  0.0000 </r>
       </set>
       <set comment="band 7">
        <r>  0.0962 </r>
       </set>
       <set comment="band 8">
        <r> 43.7687 </r>
       </set>
       <set comment="band 9">
        <r>  0.2913 </r>
       </set>
      </set>
      <set comment="kpoint 6">
       <set comment="band 1">
        <r>  0.7641 </r>
       </set>
       <set comment="band 2">
        <r>  0.0002 </r>
       </set>
       <set comment="band 3">
        <r>  0.0000 </r>
       </set>
       <set comment="band 4">
        <r>  0.0000 </r>
       </set>
       <set comment="band 5">
        <r>  0.0032 </r>
       </set>
       <set comment="band 6">
        <r>  0.0000 </r>
       </set>
       <set comment="band 7">
        <r> 43.7318 </r>
       </set>
       <set comment="band 8">
        <r>  0.0238 </r>
       </set>
       <set comment="band 9">
        <r>  0.1388 </r>
       </set>
      </set>
      <set comment="kpoint 7">
       <set comment="band 1">
        <r>  0.6643 </r>
       </set>
       <set comment="band 2">
        <r>  0.0002 </r>
       </set>
       <set comment="band 3">
        <r>  0.0143 </r>
       </set>
       <set comment="band 4">
        <r>  0.0000 </r>
       </set>
       <set comment="band 5">
        <r>  0.0101 </r>
       </set>
       <set comment="band 6">
        <r>  0.0000 </r>
       </set>
       <set comment="band 7">
        <r> 43.6478 </r>
       </set>
       <set comment="band 8">
        <r>  0.2118 </r>
       </set>
       <set comment="band 9">
        <r>  0.0103 </r>
       </set>
      </set>
      <set comment="kpoint 8">
       <set comment="band 1">
        <r>  0.4465 </r>
       </set>
       <set comment="band 2">
        <r>  0.0026 </r>
       </set>
       <set comment="band 3">
        <r>  0.0474 </r>
       </set>
       <set comment="band 4">
        <r>  0.0038 </r>
       </set>
       <set comment="band 5">
        <r>  0.0073 </r>
       </set>
       <set comment="band 6">
        <r>  0.0222 </r>
       </set>
       <set comment="band 7">
        <r>  0.3874 </r>
       </set>
       <set comment="band 8">
        <r> 43.6977 </r>
       </set>
       <set comment="band 9">
        <r>  0.0014 </r>
       </set>
      </set>
      <set comment="kpoint 9">
       <set comment="band 1">
        <r>  0.2315 </r>
       </set>
       <set comment="band 2">
        <r>  0.0009 </r>
       </set>
       <set comment="band 3">
        <r>  0.0143 </r>
       </set>
       <set comment="band 4">
        <r>  0.0012 </r>
       </set>
       <set comment="band 5">
        <r>  0.0338 </r>
       </set>
       <set comment="band 6">
        <r>  0.0021 </r>
       </set>
       <set comment="band 7">
        <r>  0.4954 </r>
       </set>
       <set comment="band 8">
        <r> 43.9102 </r>
       </set>
       <set comment="band 9">
        <r>  0.0285 </r>
       </set>
      </set>
      <set comment="kpoint 10">
       <set comment="band 1">
        <r>  0.3838 </r>
       </set>
       <set comment="band 2">
        <r>  0.0039 </r>
       </set>
       <set comment="band 3">
        <r>  0.0172 </r>
       </set>
       <set comment="band 4">
        <r>  0.0009 </r>
       </set>
       <set comment="band 5">
        <r>  0.0001 </r>
       </set>
       <set comment="band 6">
        <r>  0.1065 </r>
       </set>
       <set comment="band 7">
        <r>  0.2242 </r>
       </set>
       <set comment="band 8">
        <r> 43.9947 </r>
       </set>
       <set comment="band 9">
        <r>  0.0036 </r>
       </set>
      </set>
      <set comment="kpoint 11">
       <set comment="band 1">
        <r>  0.6244 </r>
       </set>
       <set comment="band 2">
        <r>  0.0026 </r>
       </set>
       <set comment="band 3">
        <r>  0.0040 </r>
       </set>
       <set comment="band 4">
        <r>  0.0011 </r>
       </set>
       <set comment="band 5">
        <r>  0.0056 </r>
       </set>
       <set comment="band 6">
        <r>  0.0093 </r>
       </set>
       <set comment="band 7">
        <r> 22.6862 </r>
       </set>
       <set comment="band 8">
        <r> 21.2299 </r>
       </set>
       <set comment="band 9">
        <r>  0.0811 </r>
       </set>
      </set>
      <set comment="kpoint 12">
       <set comment="band 1">
        <r>  0.2241 </r>
       </set>
       <set comment="band 2">
        <r>  0.0001 </r>
       </set>
       <set comment="band 3">
        <r>  0.1491 </r>
       </set>
       <set comment="band 4">
        <r>  0.0000 </r>
       </set>
       <set comment="band 5">
        <r>  0.0114 </r>
       </set>
       <set comment="band 6">
        <r>  0.0000 </r>
       </set>
       <set comment="band 7">
        <r>  0.1500 </r>
       </set>
       <set comment="band 8">
        <r> 43.5314 </r>
       </set>
       <set comment="band 9">
        <r>  0.0000 </r>
       </set>
      </set>
      <set comment="kpoint 13">
       <set comment="band 1">
        <r>  0.0928 </r>
       </set>
       <set comment="band 2">
        <r>  0.0002 </r>
       </set>
       <set comment="band 3">
        <r>  0.0339 </r>
       </set>
       <set comment="band 4">
        <r>  0.0311 </r>
       </set>
       <set comment="band 5">
        <r>  0.0101 </r>
       </set>
       <set comment="band 6">
        <r>  0.0232 </r>
       </set>
       <set comment="band 7">
        <r>  0.4068 </r>
       </set>
       <set comment="band 8">
        <r>  0.0709 </r>
       </set>
       <set comment="band 9">
        <r> 43.4401 </r>
       </set>
      </set>
      <set comment="kpoint 14">
       <set comment="band 1">
        <r>  0.1076 </r>
       </set>
       <set comment="band 2">
        <r>  0.0375 </r>
       </set>
       <set comment="band 3">
        <r>  0.0014 </r>
       </set>
       <set comment="band 4">
        <r>  0.0240 </r>
       </set>
       <set comment="band 5">
        <r>  0.0224 </r>
       </set>
       <set comment="band 6">
        <r>  0.4242 </r>
       </set>
       <set comment="band 7">
        <r>  0.1038 </r>
       </set>
       <set comment="band 8">
        <r>  2.4155 </r>
       </set>
       <set comment="band 9">
        <r> 41.6343 </r>
       </set>
      </set>
      <set comment="kpoint 15">
       <set comment="band 1">
        <r>  0.3492 </r>
       </set>
       <set comment="band 2">
        <r>  0.0046 </r>
       </set>
       <set comment="band 3">
        <r>  0.0260 </r>
       </set>
       <set comment="band 4">
        <r>  0.0003 </r>
       </set>
       <set comment="band 5">
        <r>  0.0000 </r>
       </set>
       <set comment="band 6">
        <r>  0.0317 </r>
       </set>
       <set comment="band 7">
        <r>  0.3662 </r>
       </set>
       <set comment="band 8">
        <r> 43.8136 </r>
       </set>
       <set comment="band 9">
        <r>  0.1913 </r>
       </set>
      </set>
      <set comment="kpoint 16">
       <set comment="band 1">
        <r>  0.1236 </r>
       </set>
       <set comment="band 2">
        <r>  0.0000 </r>
       </set>
       <set comment="band 3">
        <r>  0.0370 </r>
       </set>
       <set comment="band 4">
        <r>  0.0000 </r>
       </set>
       <set comment="band 5">
        <r>  0.0000 </r>
       </set>
       <set comment="band 6">
        <r>  0.0020 </r>
       </set>
       <set comment="band 7">
        <r>  0.2693 </r>
       </set>
       <set comment="band 8">
        <r>  0.0000 </r>
       </set>
       <set comment="band 9">
        <r>  2.0380 </r>
       </set>
      </set>
      <set comment="kpoint 17">
       <set comment="band 1">
        <r>  0.1985 </r>
       </set>
       <set comment="band 2">
        <r>  0.0001 </r>
       </set>
       <set comment="band 3">
        <r>  0.1201 </r>
       </set>
       <set comment="band 4">
        <r>  0.0003 </r>
       </set>
       <set comment="band 5">
        <r>  0.0000 </r>
       </set>
       <set comment="band 6">
        <r>  0.0540 </r>
       </set>
       <set comment="band 7">
        <r>  0.2840 </r>
       </set>
       <set comment="band 8">
        <r> 43.5115 </r>
       </set>
       <set comment="band 9">
        <r>  0.3901 </r>
       </set>
      </set>
      <set comment="kpoint 18">
       <set comment="band 1">
        <r>  0.4693 </r>
       </set>
       <set comment="band 2">
        <r>  0.0002 </r>
       </set>
       <set comment="band 3">
        <r>  0.0860 </r>
       </set>
       <set comment="band 4">
        <r>  0.0000 </r>
       </set>
       <set comment="band 5">
        <r>  0.0111 </r>
       </set>
       <set comment="band 6">
        <r>  0.0000 </r>
       </set>
       <set comment="band 7">
        <r> 43.3636 </r>
       </set>
       <set comment="band 8">
        <r>  0.4921 </r>
       </set>
       <set comment="band 9">
        <r>  0.0000 </r>
       </set>
      </set>
      <set comment="kpoint 19">
       <set comment="band 1">
        <r>  0.6711 </r>
       </set>
       <set comment="band 2">
        <r>  0.0099 </r>
       </set>
       <set comment="band 3">
        <r>  0.0000 </r>
       </set>
       <set comment="band 4">
        <r>  0.0000 </r>
       </set>
       <set comment="band 5">
        <r>  0.0000 </r>
       </set>
       <set comment="band 6">
        <r>  0.0000 </r>
       </set>
       <set comment="band 7">
        <r>  0.0598 </r>
       </set>
       <set comment="band 8">
        <r> 43.8164 </r>
       </set>
       <set comment="band 9">
        <r>  0.1171 </r>
       </set>
      </set>
      <set comment="kpoint 20">
       <set comment="band 1">
        <r>  0.5335 </r>
       </set>
       <set comment="band 2">
        <r>  0.0074 </r>
       </set>
       <set comment="band 3">
        <r>  0.0014 </r>
       </set>
       <set comment="band 4">
        <r>  0.0000 </r>
       </set>
       <set comment="band 5">
        <r>  0.0000 </r>
       </set>
       <set comment="band 6">
        <r>  0.0349 </r>
       </set>
       <set comment="band 7">
        <r>  0.2204 </r>
       </set>
       <set comment="band 8">
        <r> 43.8333 </r>
       </set>
       <set comment="band 9">
        <r>  0.1395 </r>
       </set>
      </set>
      <set comment="kpoint 21">
       <set comment="band 1">
        <r>  0.2671 </r>
       </set>
       <set comment="band 2">
        <r>  0.0009 </r>
       </set>
       <set comment="band 3">
        <r>  0.0052 </r>
       </set>
       <set comment="band 4">
        <r>  0.0000 </r>
       </set>
       <set comment="band 5">
        <r>  0.0000 </r>
       </set>
       <set comment="band 6">
        <r>  0.3136 </r>
       </set>
       <set comment="band 7">
        <r>  0.1761 </r>
       </set>
       <set comment="band 8">
        <r> 43.8617 </r>
       </set>
       <set comment="band 9">
        <r>  0.1394 </r>
       </set>
      </set>
      <set comment="kpoint 22">
       <set comment="band 1">
        <r>  0.2078 </r>
       </set>
       <set comment="band 2">
        <r>  0.0000 </r>
       </set>
       <set comment="band 3">
        <r>  0.0813 </r>
       </set>
       <set comment="band 4">
        <r>  0.0000 </r>
       </set>
       <set comment="band 5">
        <r>  0.0000 </r>
       </set>
       <set comment="band 6">
        <r>  0.0008 </r>
       </set>
       <set comment="band 7">
        <r>  0.4383 </r>
       </set>
       <set comment="band 8">
        <r> 43.8659 </r>
       </set>
       <set comment="band 9">
        <r>  0.0028 </r>
       </set>
      </set>
      <set comment="kpoint 23">
       <set comment="band 1">
        <r>  0.4057 </r>
       </set>
       <set comment="band 2">
        <r>  0.0125 </r>
       </set>
       <set comment="band 3">
        <r>  0.0396 </r>
       </set>
       <set comment="band 4">
        <r>  0.0000 </r>
       </set>
       <set comment="band 5">
        <r>  0.0169 </r>
       </set>
       <set comment="band 6">
        <r>  0.0000 </r>
       </set>
       <set comment="band 7">
        <r>  0.2397 </r>
       </set>
       <set comment="band 8">
        <r> 43.9142 </r>
       </set>
       <set comment="band 9">
        <r>  0.1247 </r>
       </set>
      </set>
      <set comment="kpoint 24">
       <set comment="band 1">
        <r>  0.1512 </r>
       </set>
       <set comment="band 2">
        <r>  0.0246 </r>
       </set>
       <set comment="band 3">
        <r>  0.0622 </r>
       </set>
       <set comment="band 4">
        <r>  0.0092 </r>
       </set>
       <set comment="band 5">
        <r>  0.0127 </r>
       </set>
       <set comment="band 6">
        <r>  0.2507 </r>
       </set>
       <set comment="band 7">
        <r>  0.2246 </r>
       </set>
       <set comment="band 8">
        <r> 37.9210 </r>
       </set>
       <set comment="band 9">
        <r>  6.0758 </r>
       </set>
      </set>
      <set comment="kpoint 25">
       <set comment="band 1">
        <r>  0.0253 </r>
       </set>
       <set comment="band 2">
        <r>  0.0182 </r>
       </set>
       <set comment="band 3">
        <r>  0.0280 </r>
       </set>
       <set comment="band 4">
        <r>  0.1223 </r>
       </set>
       <set comment="band 5">
        <r>  0.0174 </r>
       </set>
       <set comment="band 6">
        <r>  0.4404 </r>
       </set>
       <set comment="band 7">
        <r>  0.0216 </r>
       </set>
       <set comment="band 8">
        <r>  0.0893 </r>
       </set>
       <set comment="band 9">
        <r> 44.0206 </r>
       </set>
      </set>
      <set comment="kpoint 26">
       <set comment="band 1">
        <r>  0.0948 </r>
       </set>
       <set comment="band 2">
        <r>  0.0052 </r>
       </set>
       <set comment="band 3">
        <r>  0.0216 </r>
       </set>
       <set comment="band 4">
        <r>  0.0000 </r>
       </set>
       <set comment="band 5">
        <r>  0.0000 </r>
       </set>
       <set comment="band 6">
        <r>  0.4583 </r>
       </set>
       <set comment="band 7">
        <r>  0.0777 </r>
       </set>
       <set comment="band 8">
        <r> 32.0075 </r>
       </set>
       <set comment="band 9">
        <r> 12.1157 </r>
       </set>
      </set>
      <set comment="kpoint 27">
       <set comment="band 1">
        <r>  0.3999 </r>
       </set>
       <set comment="band 2">
        <r>  0.0321 </r>
       </set>
       <set comment="band 3">
        <r>  0.0000 </r>
       </set>
       <set comment="band 4">
        <r>  0.0000 </r>
       </set>
       <set comment="band 5">
        <r>  0.0000 </r>
       </set>
       <set comment="band 6">
        <r>  0.0000 </r>
       </set>
       <set comment="band 7">
        <r>  0.3093 </r>
       </set>
       <set comment="band 8">
        <r>  0.0845 </r>
       </set>
       <set comment="band 9">
        <r> 44.0005 </r>
       </set>
      </set>
      <set comment="kpoint 28">
       <set comment="band 1">
        <r>  0.2899 </r>
       </set>
       <set comment="band 2">
        <r>  0.0005 </r>
       </set>
       <set comment="band 3">
        <r>  0.0015 </r>
       </set>
       <set comment="band 4">
        <r>  0.0000 </r>
       </set>
       <set comment="band 5">
        <r>  0.0000 </r>
       </set>
       <set comment="band 6">
        <r>  0.0953 </r>
       </set>
       <set comment="band 7">
        <r>  0.4157 </r>
       </set>
       <set comment="band 8">
        <r> 43.9576 </r>
       </set>
       <set comment="band 9">
        <r>  0.0000 </r>
       </set>
      </set>
     </set>
    </set>
   </array>
  </projected>
 </calculation>
 <structure name="finalpos" >
  <crystal>
   <varray name="basis" >
    <v>       0.00000000       2.11500000       2.11500000 </v>
    <v>       2.11500000       0.00000000       2.11500000 </v>
    <v>       2.11500000       2.11500000       0.00000000 </v>
   </varray>
   <i name="volume">     18.92174175 </i>
   <varray name="rec_basis" >
    <v>      -0.23640662       0.23640662       0.23640662 </v>
    <v>       0.23640662      -0.23640662       0.23640662 </v>
    <v>       0.23640662       0.23640662      -0.23640662 </v>
   </varray>
  </crystal>
  <varray name="positions" >
   <v>       0.00000000       0.00000000       0.00000000 </v>
  </varray>
 </structure>
</modeling>
