   1   1   1   0
  0.1879769E+02  0.2901185E-09  0.2901185E-09  0.2901185E-09  0.5000000E-15
  1.000000000000000E-004
  CAR 
 unknown system                          
     25.30347022     -3.11550897  301      5.37098917      1.00000000
     -3.116  0.0000E+00  0.0000E+00  0.0000E+00  0.0000E+00
     -3.021  0.0000E+00  0.0000E+00  0.0000E+00  0.0000E+00
     -2.926  0.0000E+00  0.0000E+00  0.0000E+00  0.0000E+00
     -2.831  0.0000E+00  0.0000E+00  0.0000E+00  0.0000E+00
     -2.737  0.0000E+00  0.0000E+00  0.0000E+00  0.0000E+00
     -2.642  0.0000E+00  0.0000E+00  0.0000E+00  0.0000E+00
     -2.547  0.0000E+00  0.0000E+00  0.0000E+00  0.0000E+00
     -2.452  0.0000E+00  0.0000E+00  0.0000E+00  0.0000E+00
     -2.358  0.0000E+00  0.0000E+00  0.0000E+00  0.0000E+00
     -2.263 -0.2246E-33  0.0000E+00 -0.2127E-34  0.0000E+00
     -2.168 -0.1387E-20 -0.4765E-36 -0.1314E-21 -0.4514E-37
     -2.073 -0.5804E-11 -0.1103E-22 -0.5498E-12 -0.1045E-23
     -1.979 -0.1546E-04 -0.1750E-12 -0.1465E-05 -0.1657E-13
     -1.884 -0.1036E-01 -0.1824E-05 -0.9833E-03 -0.1728E-06
     -1.789  0.2907E+00 -0.7421E-02  0.2655E-01 -0.7031E-03
     -1.695  0.1315E-01  0.2339E+00  0.2780E-01  0.2145E-01
     -1.600 -0.2319E-03  0.6777E-01  0.2778E-01  0.2787E-01
     -1.505 -0.6883E-09 -0.1010E-02  0.2778E-01  0.2778E-01
     -1.410  0.0000E+00 -0.1236E-07  0.2778E-01  0.2778E-01
     -1.316  0.0000E+00 -0.6511E-16  0.2778E-01  0.2778E-01
     -1.221 -0.4541E-30  0.0000E+00  0.2778E-01  0.2778E-01
     -1.126 -0.5416E-18 -0.1495E-32  0.2778E-01  0.2778E-01
     -1.031 -0.4290E-09 -0.6484E-20  0.2778E-01  0.2778E-01
     -0.937 -0.2049E-03 -0.1897E-10  0.2776E-01  0.2778E-01
     -0.842  0.6667E-02 -0.3499E-04  0.2839E-01  0.2777E-01
     -0.747  0.3976E+00 -0.1296E-01  0.6606E-01  0.2655E-01
     -0.653 -0.1306E-01  0.3982E+00  0.6482E-01  0.6427E-01
     -0.558 -0.3379E-04  0.5992E-02  0.6481E-01  0.6483E-01
     -0.463 -0.1787E-10 -0.1988E-03  0.6481E-01  0.6481E-01
     -0.368 -0.2294E-30 -0.4059E-09  0.6481E-01  0.6481E-01
     -0.274 -0.4115E-18 -0.9546E-33  0.6481E-01  0.6481E-01
     -0.179 -0.4927E-09 -0.5820E-20  0.6481E-01  0.6481E-01
     -0.084 -0.3615E-03 -0.2402E-10  0.6478E-01  0.6481E-01
      0.011 -0.9216E-02 -0.6312E-04  0.6391E-01  0.6481E-01
      0.105  0.1213E+01 -0.4143E-01  0.1789E+00  0.6088E-01
      0.200 -0.3076E-01  0.1164E+01  0.1759E+00  0.1712E+00
      0.295 -0.1824E-03  0.5111E-01  0.1759E+00  0.1760E+00
      0.389 -0.1475E-09 -0.9126E-03  0.1759E+00  0.1759E+00
      0.484  0.0000E+00 -0.2671E-08  0.1759E+00  0.1759E+00
      0.579  0.0000E+00  0.0000E+00  0.1759E+00  0.1759E+00
      0.674  0.0000E+00  0.0000E+00  0.1759E+00  0.1759E+00
      0.768  0.0000E+00  0.0000E+00  0.1759E+00  0.1759E+00
      0.863 -0.4918E-33  0.0000E+00  0.1759E+00  0.1759E+00
      0.958 -0.3466E-20 -0.1810E-35  0.1759E+00  0.1759E+00
      1.053 -0.1656E-10 -0.4235E-22  0.1759E+00  0.1759E+00
      1.147 -0.5057E-04 -0.6793E-12  0.1759E+00  0.1759E+00
      1.242 -0.4160E-01 -0.7160E-05  0.1720E+00  0.1759E+00
      1.337  0.1109E+01 -0.2955E-01  0.2770E+00  0.1731E+00
      1.432  0.1264E+01  0.8949E+00  0.3967E+00  0.2579E+00
      1.526  0.1490E-01  0.1344E+01  0.3981E+00  0.3852E+00
      1.621  0.4385E-01  0.1383E+00  0.4023E+00  0.3983E+00
      1.716  0.2505E+00  0.1028E-01  0.4260E+00  0.3993E+00
      1.810  0.5982E+00  0.2709E+00  0.4827E+00  0.4250E+00
      1.905  0.2628E-01  0.5749E+00  0.4852E+00  0.4794E+00
      2.000  0.1175E+01 -0.6866E-02  0.5965E+00  0.4788E+00
      2.095 -0.3425E-01  0.1214E+01  0.5932E+00  0.5938E+00
      2.189  0.3535E+00 -0.5083E-03  0.6267E+00  0.5937E+00
      2.284  0.2344E+00  0.3560E+00  0.6489E+00  0.6275E+00
      2.379 -0.8111E-02  0.2259E+00  0.6481E+00  0.6489E+00
      2.474 -0.2113E-02 -0.7586E-02  0.6479E+00  0.6481E+00
      2.568  0.1323E+00 -0.7959E-03  0.6605E+00  0.6481E+00
      2.663  0.1812E+01  0.2261E-01  0.8322E+00  0.6502E+00
      2.758  0.3976E+00  0.1860E+01  0.8698E+00  0.8264E+00
      2.852  0.4805E+00  0.4591E+00  0.9153E+00  0.8699E+00
      2.947  0.1243E+01  0.5209E+00  0.1033E+01  0.9192E+00
      3.042  0.2408E+00  0.9082E+00  0.1056E+01  0.1005E+01
      3.137 -0.3580E-02  0.5419E+00  0.1056E+01  0.1057E+01
      3.231 -0.3850E-07 -0.1111E-01  0.1056E+01  0.1056E+01
      3.326 -0.2635E-04 -0.4649E-06  0.1056E+01  0.1056E+01
      3.421 -0.3923E-01 -0.3241E-04  0.1052E+01  0.1056E+01
      3.516  0.1088E+01 -0.4027E-01  0.1155E+01  0.1052E+01
      3.610  0.1258E+00  0.1109E+01  0.1167E+01  0.1157E+01
      3.705 -0.1773E-02  0.1062E+00  0.1167E+01  0.1167E+01
      3.800 -0.1832E-01 -0.1522E-02  0.1165E+01  0.1167E+01
      3.895  0.5221E+00 -0.9748E-02  0.1214E+01  0.1166E+01
      3.989  0.5053E-01  0.3762E+00  0.1219E+01  0.1201E+01
      4.084  0.1160E+01  0.1825E+00  0.1329E+01  0.1219E+01
      4.179  0.1381E+01  0.1095E+01  0.1460E+01  0.1322E+01
      4.273  0.1253E+01  0.1373E+01  0.1579E+01  0.1452E+01
      4.368  0.9251E+00  0.1172E+01  0.1666E+01  0.1563E+01
      4.463  0.1512E+01  0.6189E+00  0.1809E+01  0.1622E+01
      4.558  0.2355E-01  0.2001E+01  0.1812E+01  0.1812E+01
      4.652  0.1696E+01  0.4008E-02  0.1972E+01  0.1812E+01
      4.747  0.1571E+01  0.1600E+01  0.2121E+01  0.1964E+01
      4.842  0.4911E+00  0.1461E+01  0.2168E+01  0.2102E+01
      4.937 -0.1027E-01  0.7006E+00  0.2167E+01  0.2168E+01
      5.031 -0.6932E-03 -0.1856E-01  0.2167E+01  0.2167E+01
      5.126  0.1730E-01 -0.1377E-03  0.2168E+01  0.2167E+01
      5.221  0.1645E+01 -0.4033E-01  0.2324E+01  0.2163E+01
      5.315  0.2263E+01  0.1415E+01  0.2538E+01  0.2297E+01
      5.410  0.3835E+00  0.2392E+01  0.2575E+01  0.2523E+01
      5.505 -0.1906E-01  0.5464E+00  0.2573E+01  0.2575E+01
      5.600  0.5524E+00 -0.2081E-01  0.2625E+01  0.2573E+01
      5.694  0.6467E+00  0.4589E+00  0.2687E+01  0.2617E+01
      5.789 -0.1481E-01  0.7414E+00  0.2685E+01  0.2687E+01
      5.884 -0.7218E-05 -0.1897E-01  0.2685E+01  0.2685E+01
      5.979 -0.1775E-01 -0.2692E-05  0.2684E+01  0.2685E+01
      6.073  0.5348E+00 -0.9493E-02  0.2734E+01  0.2684E+01
      6.168  0.1078E+01  0.3454E+00  0.2836E+01  0.2717E+01
      6.263 -0.3122E-01  0.1237E+01  0.2833E+01  0.2834E+01
      6.357  0.3824E-01 -0.9238E-02  0.2837E+01  0.2833E+01
      6.452  0.2461E+00  0.3919E-02  0.2860E+01  0.2834E+01
      6.547  0.7063E+00  0.2903E+00  0.2927E+01  0.2861E+01
      6.642  0.1032E+01  0.4373E+00  0.3025E+01  0.2903E+01
      6.736  0.3129E-01  0.1212E+01  0.3028E+01  0.3017E+01
      6.831 -0.6078E-03  0.1104E+00  0.3028E+01  0.3028E+01
      6.926 -0.2290E-08 -0.1905E-02  0.3028E+01  0.3028E+01
      7.021 -0.6158E-05 -0.2186E-07  0.3028E+01  0.3028E+01
      7.115 -0.2829E-01 -0.1960E-05  0.3025E+01  0.3028E+01
      7.210  0.9129E+00 -0.1946E-01  0.3112E+01  0.3026E+01
      7.305  0.2927E+00  0.7518E+00  0.3139E+01  0.3097E+01
      7.400 -0.4457E-02  0.4488E+00  0.3139E+01  0.3140E+01
      7.494 -0.6070E-07 -0.8131E-02  0.3139E+01  0.3139E+01
      7.589 -0.6901E-07 -0.2250E-06  0.3139E+01  0.3139E+01
      7.684 -0.4736E-02 -0.1469E-06  0.3138E+01  0.3139E+01
      7.778  0.3044E+00 -0.6719E-02  0.3167E+01  0.3138E+01
      7.873  0.1064E+01  0.3928E+00  0.3268E+01  0.3175E+01
      7.968  0.1019E+01  0.9554E+00  0.3365E+01  0.3266E+01
      8.063 -0.5041E-01  0.1042E+01  0.3360E+01  0.3365E+01
      8.157  0.3760E+00 -0.4872E-01  0.3395E+01  0.3360E+01
      8.252  0.2437E-01  0.3267E+00  0.3398E+01  0.3391E+01
      8.347  0.1494E+00  0.6707E-01  0.3412E+01  0.3397E+01
      8.442  0.1138E+01  0.2229E+00  0.3520E+01  0.3419E+01
      8.536  0.1727E+01  0.1025E+01  0.3683E+01  0.3516E+01
      8.631  0.1136E+01  0.1768E+01  0.3791E+01  0.3683E+01
      8.726 -0.4062E-01  0.1139E+01  0.3787E+01  0.3791E+01
      8.820 -0.8608E-04 -0.4199E-01  0.3787E+01  0.3787E+01
      8.915 -0.1460E-01 -0.6662E-04  0.3786E+01  0.3787E+01
      9.010  0.5335E+00 -0.2580E-01  0.3836E+01  0.3785E+01
      9.105  0.2262E+00  0.7190E+00  0.3858E+01  0.3853E+01
      9.199  0.1137E+01  0.5789E-01  0.3965E+01  0.3858E+01
      9.294  0.5380E-01  0.1211E+01  0.3970E+01  0.3973E+01
      9.389  0.5465E+00 -0.2599E-01  0.4022E+01  0.3970E+01
      9.484  0.5549E-01  0.5975E+00  0.4027E+01  0.4027E+01
      9.578  0.1392E+00 -0.1250E-02  0.4041E+01  0.4027E+01
      9.673  0.1006E+01  0.2252E+00  0.4136E+01  0.4048E+01
      9.768  0.1205E+01  0.1104E+01  0.4250E+01  0.4153E+01
      9.862  0.8692E+00  0.1257E+01  0.4332E+01  0.4272E+01
      9.957  0.1255E+01  0.6662E+00  0.4451E+01  0.4335E+01
     10.052  0.1207E+01  0.1474E+01  0.4566E+01  0.4475E+01
     10.147  0.2052E+01  0.1204E+01  0.4760E+01  0.4589E+01
     10.241  0.8511E+00  0.1906E+01  0.4841E+01  0.4769E+01
     10.336 -0.1186E-01  0.7873E+00  0.4840E+01  0.4844E+01
     10.431  0.9654E+00 -0.5542E-01  0.4931E+01  0.4839E+01
     10.526  0.6285E+00  0.1151E+01  0.4991E+01  0.4948E+01
     10.620  0.8058E+00  0.5352E+00  0.5067E+01  0.4998E+01
     10.715 -0.2237E-01  0.7191E+00  0.5065E+01  0.5067E+01
     10.810 -0.2925E-05 -0.1797E-01  0.5065E+01  0.5065E+01
     10.905 -0.1643E-12 -0.1574E-05  0.5065E+01  0.5065E+01
     10.999 -0.2865E-17 -0.6225E-13  0.5065E+01  0.5065E+01
     11.094 -0.1245E-08 -0.3750E-17  0.5065E+01  0.5065E+01
     11.189 -0.3210E-03 -0.1498E-08  0.5065E+01  0.5065E+01
     11.283 -0.6825E-02 -0.3520E-03  0.5064E+01  0.5065E+01
     11.378  0.1402E+01  0.6304E-04  0.5197E+01  0.5065E+01
     11.473  0.3134E+01  0.1276E+01  0.5494E+01  0.5186E+01
     11.568  0.4674E+00  0.3273E+01  0.5538E+01  0.5496E+01
     11.662 -0.1124E-01  0.4462E+00  0.5537E+01  0.5538E+01
     11.757 -0.9958E-03 -0.1068E-01  0.5537E+01  0.5537E+01
     11.852  0.5895E-01 -0.1131E-02  0.5543E+01  0.5537E+01
     11.947  0.1168E+01  0.7189E-01  0.5653E+01  0.5544E+01
     12.041  0.3334E+00  0.1134E+01  0.5685E+01  0.5651E+01
     12.136  0.4423E-02  0.3073E+00  0.5685E+01  0.5680E+01
     12.231 -0.2214E-03  0.5305E-01  0.5685E+01  0.5685E+01
     12.325 -0.1542E-08 -0.1323E-02  0.5685E+01  0.5685E+01
     12.420  0.0000E+00 -0.7613E-07  0.5685E+01  0.5685E+01
     12.515  0.0000E+00 -0.2235E-14  0.5685E+01  0.5685E+01
     12.610  0.0000E+00  0.0000E+00  0.5685E+01  0.5685E+01
     12.704  0.0000E+00  0.0000E+00  0.5685E+01  0.5685E+01
     12.799  0.0000E+00  0.0000E+00  0.5685E+01  0.5685E+01
     12.894  0.0000E+00  0.0000E+00  0.5685E+01  0.5685E+01
     12.989  0.0000E+00  0.0000E+00  0.5685E+01  0.5685E+01
     13.083  0.0000E+00  0.0000E+00  0.5685E+01  0.5685E+01
     13.178  0.0000E+00  0.0000E+00  0.5685E+01  0.5685E+01
     13.273 -0.2343E-36  0.0000E+00  0.5685E+01  0.5685E+01
     13.367 -0.7275E-23 -0.2586E-35  0.5685E+01  0.5685E+01
     13.462 -0.1552E-12 -0.4847E-22  0.5685E+01  0.5685E+01
     13.557 -0.2189E-05 -0.6218E-12  0.5685E+01  0.5685E+01
     13.652 -0.1276E-01 -0.5218E-05  0.5684E+01  0.5685E+01
     13.746  0.4331E+00 -0.1631E-01  0.5725E+01  0.5684E+01
     13.841  0.1689E+00  0.4909E+00  0.5741E+01  0.5730E+01
     13.936 -0.2695E-02  0.1135E+00  0.5741E+01  0.5741E+01
     14.031 -0.5565E-07 -0.1628E-02  0.5741E+01  0.5741E+01
     14.125 -0.1842E-02 -0.1638E-07  0.5741E+01  0.5741E+01
     14.220  0.1318E+00 -0.3725E-03  0.5753E+01  0.5741E+01
     14.315  0.1082E+01 -0.7896E-02  0.5856E+01  0.5740E+01
     14.410 -0.3921E-01  0.1213E+01  0.5852E+01  0.5855E+01
     14.504 -0.1264E-01 -0.3203E-01  0.5851E+01  0.5852E+01
     14.599  0.1215E+01  0.1964E-01  0.5966E+01  0.5854E+01
     14.694 -0.2888E-01  0.1193E+01  0.5963E+01  0.5967E+01
     14.788 -0.1434E-01 -0.3916E-01  0.5962E+01  0.5963E+01
     14.883  0.3653E+00 -0.1342E-01  0.5996E+01  0.5962E+01
     14.978  0.1736E+01  0.3657E+00  0.6161E+01  0.5996E+01
     15.073  0.6663E+00  0.1599E+01  0.6224E+01  0.6148E+01
     15.167 -0.1707E-01  0.8101E+00  0.6222E+01  0.6225E+01
     15.262 -0.2017E-01 -0.2466E-01  0.6220E+01  0.6222E+01
     15.357  0.5551E+00 -0.1719E-01  0.6273E+01  0.6221E+01
     15.452  0.5233E-01  0.5046E+00  0.6278E+01  0.6268E+01
     15.546 -0.7515E-03  0.1005E+00  0.6278E+01  0.6278E+01
     15.641 -0.3436E-08 -0.1417E-02  0.6278E+01  0.6278E+01
     15.736 -0.1227E-07 -0.1196E-07  0.6278E+01  0.6278E+01
     15.830 -0.1658E-02 -0.4326E-08  0.6278E+01  0.6278E+01
     15.925  0.1188E+00 -0.9726E-03  0.6289E+01  0.6278E+01
     16.020  0.6888E+00  0.6731E-01  0.6354E+01  0.6284E+01
     16.115 -0.2395E-01  0.7426E+00  0.6352E+01  0.6354E+01
     16.209 -0.1093E-01 -0.2700E-01  0.6351E+01  0.6352E+01
     16.304  0.3996E+00 -0.5596E-02  0.6389E+01  0.6351E+01
     16.399  0.2012E+00  0.2737E+00  0.6408E+01  0.6377E+01
     16.494 -0.3455E-02  0.3258E+00  0.6407E+01  0.6408E+01
     16.588 -0.7811E-07 -0.7506E-02  0.6407E+01  0.6407E+01
     16.683 -0.9115E-15 -0.4900E-06  0.6407E+01  0.6407E+01
     16.778 -0.6293E-15 -0.1485E-13  0.6407E+01  0.6407E+01
     16.873 -0.7557E-07 -0.9940E-15  0.6407E+01  0.6407E+01
     16.967 -0.4943E-02 -0.1026E-06  0.6407E+01  0.6407E+01
     17.062  0.3167E+00 -0.5700E-02  0.6437E+01  0.6407E+01
     17.157  0.8879E+00  0.3517E+00  0.6521E+01  0.6440E+01
     17.251 -0.2679E-01  0.8516E+00  0.6519E+01  0.6521E+01
     17.346 -0.1119E-04 -0.2469E-01  0.6519E+01  0.6519E+01
     17.441 -0.2817E-01 -0.1076E-04  0.6516E+01  0.6519E+01
     17.536  0.9109E+00 -0.2912E-01  0.6602E+01  0.6516E+01
     17.630  0.2815E+00  0.9263E+00  0.6629E+01  0.6604E+01
     17.725  0.6511E+00  0.2785E+00  0.6690E+01  0.6630E+01
     17.820  0.8830E+00  0.5712E+00  0.6774E+01  0.6684E+01
     17.915  0.5382E+00  0.9163E+00  0.6825E+01  0.6771E+01
     18.009 -0.1098E-01  0.5747E+00  0.6824E+01  0.6825E+01
     18.104 -0.4527E-06 -0.1233E-01  0.6824E+01  0.6824E+01
     18.199 -0.9115E-14 -0.5987E-06  0.6824E+01  0.6824E+01
     18.293 -0.7879E-17 -0.1380E-13  0.6824E+01  0.6824E+01
     18.388 -0.3861E-08 -0.4119E-16  0.6824E+01  0.6824E+01
     18.483 -0.1171E-02 -0.1197E-07  0.6824E+01  0.6824E+01
     18.578 -0.7581E-02 -0.2041E-02  0.6823E+01  0.6824E+01
     18.672  0.3317E+01  0.7225E-01  0.7137E+01  0.6831E+01
     18.767  0.5390E+00  0.3132E+01  0.7188E+01  0.7127E+01
     18.862  0.8709E+00  0.6580E+00  0.7271E+01  0.7190E+01
     18.957 -0.2600E-01  0.8566E+00  0.7269E+01  0.7271E+01
     19.051 -0.4651E-05 -0.2526E-01  0.7269E+01  0.7269E+01
     19.146 -0.6063E-05 -0.4242E-05  0.7269E+01  0.7269E+01
     19.241 -0.2816E-01 -0.2816E-05  0.7266E+01  0.7269E+01
     19.335  0.9100E+00 -0.2209E-01  0.7352E+01  0.7266E+01
     19.430  0.3782E-01  0.7773E+00  0.7356E+01  0.7340E+01
     19.525  0.9170E+01  0.1943E+01  0.8224E+01  0.7524E+01
     19.620  0.1652E+01  0.9250E+01  0.8381E+01  0.8400E+01
     19.714  0.1885E+00 -0.1884E+00  0.8399E+01  0.8383E+01
     19.809  0.1424E-01  0.1681E+00  0.8400E+01  0.8399E+01
     19.904  0.1192E+01 -0.4132E-01  0.8513E+01  0.8395E+01
     19.999 -0.7340E-01  0.1201E+01  0.8506E+01  0.8508E+01
     20.093  0.1006E+01 -0.1697E-01  0.8601E+01  0.8507E+01
     20.188  0.2041E+00  0.8873E+00  0.8621E+01  0.8591E+01
     20.283 -0.2883E-02  0.3168E+00  0.8620E+01  0.8621E+01
     20.378 -0.2477E-07 -0.4945E-02  0.8620E+01  0.8620E+01
     20.472  0.0000E+00 -0.7563E-07  0.8620E+01  0.8620E+01
     20.567  0.0000E+00 -0.5209E-15  0.8620E+01  0.8620E+01
     20.662 -0.7300E-35  0.0000E+00  0.8620E+01  0.8620E+01
     20.756 -0.9468E-22 -0.2734E-37  0.8620E+01  0.8620E+01
     20.851 -0.8374E-12 -0.1148E-23  0.8620E+01  0.8620E+01
     20.946 -0.4808E-05 -0.3322E-13  0.8620E+01  0.8620E+01
     21.041 -0.9634E-02 -0.6389E-06  0.8619E+01  0.8620E+01
     21.135  0.2844E+00 -0.5379E-02  0.8646E+01  0.8620E+01
     21.230  0.3651E+00  0.1887E+00  0.8681E+01  0.8638E+01
     21.325  0.3314E+00  0.3953E+00  0.8712E+01  0.8675E+01
     21.420  0.7341E+00  0.3779E+00  0.8782E+01  0.8711E+01
     21.514  0.4533E+00  0.8581E+00  0.8825E+01  0.8792E+01
     21.609 -0.8257E-02  0.3412E+00  0.8824E+01  0.8825E+01
     21.704 -0.2330E-06 -0.5469E-02  0.8824E+01  0.8824E+01
     21.798 -0.6250E-08 -0.9378E-07  0.8824E+01  0.8824E+01
     21.893 -0.1431E-02 -0.4676E-08  0.8824E+01  0.8824E+01
     21.988  0.9855E-01 -0.1229E-02  0.8833E+01  0.8824E+01
     22.083  0.1103E+01  0.8092E-01  0.8938E+01  0.8832E+01
     22.177  0.3367E+00  0.1122E+01  0.8970E+01  0.8938E+01
     22.272  0.2780E-01  0.3088E+00  0.8972E+01  0.8967E+01
     22.367 -0.4191E-03  0.5401E-01  0.8972E+01  0.8972E+01
     22.462 -0.1629E-08 -0.7514E-03  0.8972E+01  0.8972E+01
     22.556  0.0000E+00 -0.5050E-08  0.8972E+01  0.8972E+01
     22.651  0.0000E+00  0.0000E+00  0.8972E+01  0.8972E+01
     22.746  0.0000E+00  0.0000E+00  0.8972E+01  0.8972E+01
     22.840  0.0000E+00  0.0000E+00  0.8972E+01  0.8972E+01
     22.935  0.0000E+00  0.0000E+00  0.8972E+01  0.8972E+01
     23.030  0.0000E+00  0.0000E+00  0.8972E+01  0.8972E+01
     23.125  0.0000E+00  0.0000E+00  0.8972E+01  0.8972E+01
     23.219  0.0000E+00  0.0000E+00  0.8972E+01  0.8972E+01
     23.314  0.0000E+00  0.0000E+00  0.8972E+01  0.8972E+01
     23.409  0.0000E+00  0.0000E+00  0.8972E+01  0.8972E+01
     23.504 -0.7154E-29  0.0000E+00  0.8972E+01  0.8972E+01
     23.598 -0.4194E-17 -0.1417E-29  0.8972E+01  0.8972E+01
     23.693 -0.1617E-08 -0.1215E-17  0.8972E+01  0.8972E+01
     23.788 -0.3641E-03 -0.6883E-09  0.8972E+01  0.8972E+01
     23.883  0.2519E-01 -0.2319E-03  0.8975E+01  0.8972E+01
     23.977  0.2785E+00  0.1315E-01  0.9001E+01  0.8973E+01
     24.072 -0.1013E-01  0.2907E+00  0.9000E+01  0.9001E+01
     24.167 -0.8596E-05 -0.1036E-01  0.9000E+01  0.9000E+01
     24.261 -0.2178E-11 -0.1546E-04  0.9000E+01  0.9000E+01
     24.356  0.0000E+00 -0.5804E-11  0.9000E+01  0.9000E+01
     24.451  0.0000E+00  0.0000E+00  0.9000E+01  0.9000E+01
     24.546  0.0000E+00  0.0000E+00  0.9000E+01  0.9000E+01
     24.640  0.0000E+00  0.0000E+00  0.9000E+01  0.9000E+01
     24.735  0.0000E+00  0.0000E+00  0.9000E+01  0.9000E+01
     24.830  0.0000E+00  0.0000E+00  0.9000E+01  0.9000E+01
     24.925  0.0000E+00  0.0000E+00  0.9000E+01  0.9000E+01
     25.019  0.0000E+00  0.0000E+00  0.9000E+01  0.9000E+01
     25.114  0.0000E+00  0.0000E+00  0.9000E+01  0.9000E+01
     25.209  0.0000E+00  0.0000E+00  0.9000E+01  0.9000E+01
     25.303  0.0000E+00  0.0000E+00  0.9000E+01  0.9000E+01
     25.30347022     -3.11550897  301      5.37098917      1.00000000
     -3.116  0.0000E+00  0.0000E+00  0.0000E+00  0.0000E+00  0.0000E+00  0.0000E+00  0.0000E+00  0.0000E+00  0.0000E+00  0.0000E+00  0.0000E+00  0.0000E+00  0.0000E+00  0.0000E+00  0.0000E+00  0.0000E+00  0.0000E+00  0.0000E+00
     -3.021  0.0000E+00  0.0000E+00  0.0000E+00  0.0000E+00  0.0000E+00  0.0000E+00  0.0000E+00  0.0000E+00  0.0000E+00  0.0000E+00  0.0000E+00  0.0000E+00  0.0000E+00  0.0000E+00  0.0000E+00  0.0000E+00  0.0000E+00  0.0000E+00
     -2.926  0.0000E+00  0.0000E+00  0.0000E+00  0.0000E+00  0.0000E+00  0.0000E+00  0.0000E+00  0.0000E+00  0.0000E+00  0.0000E+00  0.0000E+00  0.0000E+00  0.0000E+00  0.0000E+00  0.0000E+00  0.0000E+00  0.0000E+00  0.0000E+00
     -2.831  0.0000E+00  0.0000E+00  0.0000E+00  0.0000E+00  0.0000E+00  0.0000E+00  0.0000E+00  0.0000E+00  0.0000E+00  0.0000E+00  0.0000E+00  0.0000E+00  0.0000E+00  0.0000E+00  0.0000E+00  0.0000E+00  0.0000E+00  0.0000E+00
     -2.737  0.0000E+00  0.0000E+00  0.0000E+00  0.0000E+00  0.0000E+00  0.0000E+00  0.0000E+00  0.0000E+00  0.0000E+00  0.0000E+00  0.0000E+00  0.0000E+00  0.0000E+00  0.0000E+00  0.0000E+00  0.0000E+00  0.0000E+00  0.0000E+00
     -2.642  0.0000E+00  0.0000E+00  0.0000E+00  0.0000E+00  0.0000E+00  0.0000E+00  0.0000E+00  0.0000E+00  0.0000E+00  0.0000E+00  0.0000E+00  0.0000E+00  0.0000E+00  0.0000E+00  0.0000E+00  0.0000E+00  0.0000E+00  0.0000E+00
     -2.547  0.0000E+00  0.0000E+00  0.0000E+00  0.0000E+00  0.0000E+00  0.0000E+00  0.0000E+00  0.0000E+00  0.0000E+00  0.0000E+00  0.0000E+00  0.0000E+00  0.0000E+00  0.0000E+00  0.0000E+00  0.0000E+00  0.0000E+00  0.0000E+00
     -2.452  0.0000E+00  0.0000E+00  0.0000E+00  0.0000E+00  0.0000E+00  0.0000E+00  0.0000E+00  0.0000E+00  0.0000E+00  0.0000E+00  0.0000E+00  0.0000E+00  0.0000E+00  0.0000E+00  0.0000E+00  0.0000E+00  0.0000E+00  0.0000E+00
     -2.358  0.0000E+00  0.0000E+00  0.0000E+00  0.0000E+00  0.0000E+00  0.0000E+00  0.0000E+00  0.0000E+00  0.0000E+00  0.0000E+00  0.0000E+00  0.0000E+00  0.0000E+00  0.0000E+00  0.0000E+00  0.0000E+00  0.0000E+00  0.0000E+00
     -2.263 -0.1774E-33  0.0000E+00 -0.2776E-48  0.0000E+00 -0.2779E-48  0.0000E+00 -0.9573E-35  0.0000E+00 -0.8885E-47  0.0000E+00 -0.8866E-47  0.0000E+00 -0.9359E-37  0.0000E+00 -0.8884E-47  0.0000E+00 -0.2808E-36  0.0000E+00
     -2.168 -0.1096E-20 -0.3757E-36 -0.1715E-35 -0.9898E-51 -0.1717E-35 -0.9350E-51 -0.5914E-22 -0.2031E-37 -0.5489E-34 -0.2457E-49 -0.5477E-34 -0.2624E-49 -0.5782E-24 -0.1994E-39 -0.5489E-34 -0.2521E-49 -0.1735E-23 -0.5983E-39
     -2.073 -0.4584E-11 -0.8694E-23 -0.7174E-26 -0.2290E-37 -0.7183E-26 -0.2164E-37 -0.2474E-12 -0.4701E-24 -0.2296E-24 -0.5686E-36 -0.2291E-24 -0.6073E-36 -0.2419E-14 -0.4615E-26 -0.2296E-24 -0.5834E-36 -0.7256E-14 -0.1384E-25
     -1.979 -0.1221E-04 -0.1379E-12 -0.1912E-19 -0.3634E-27 -0.1914E-19 -0.3433E-27 -0.6592E-06 -0.7458E-14 -0.6118E-18 -0.9021E-26 -0.6105E-18 -0.9635E-26 -0.6444E-08 -0.7322E-16 -0.6118E-18 -0.9257E-26 -0.1933E-07 -0.2196E-15
     -1.884 -0.8186E-02 -0.1438E-05 -0.1281E-16 -0.3788E-20 -0.1283E-16 -0.3578E-20 -0.4418E-03 -0.7774E-07 -0.4101E-15 -0.9404E-19 -0.4092E-15 -0.1004E-18 -0.4319E-05 -0.7632E-09 -0.4101E-15 -0.9649E-19 -0.1296E-04 -0.2290E-08
     -1.789  0.2296E+00 -0.5851E-02  0.3594E-15 -0.1541E-16  0.3598E-15 -0.1456E-16  0.1239E-01 -0.3163E-03  0.1150E-13 -0.3826E-15  0.1148E-13 -0.4087E-15  0.1211E-03 -0.3105E-05  0.1150E-13 -0.3926E-15  0.3634E-03 -0.9316E-05
     -1.695  0.1038E-01  0.1844E+00  0.1625E-16  0.4858E-15  0.1627E-16  0.4589E-15  0.5604E-03  0.9970E-02  0.5201E-15  0.1206E-13  0.5190E-15  0.1288E-13  0.5479E-05  0.9788E-04  0.5201E-15  0.1238E-13  0.1644E-04  0.2936E-03
     -1.600 -0.1831E-03  0.5343E-01 -0.2867E-18  0.1408E-15 -0.2870E-18  0.1330E-15 -0.9885E-05  0.2889E-02 -0.9174E-17  0.3494E-14 -0.9155E-17  0.3732E-14 -0.9664E-07  0.2836E-04 -0.9174E-17  0.3586E-14 -0.2899E-06  0.8508E-04
     -1.505 -0.5436E-09 -0.7964E-03 -0.8509E-24 -0.2098E-17 -0.8519E-24 -0.1982E-17 -0.2934E-10 -0.4306E-04 -0.2723E-22 -0.5209E-16 -0.2717E-22 -0.5563E-16 -0.2868E-12 -0.4227E-06 -0.2723E-22 -0.5344E-16 -0.8605E-12 -0.1268E-05
     -1.410  0.0000E+00 -0.9746E-08  0.0000E+00 -0.2568E-22  0.0000E+00 -0.2426E-22  0.0000E+00 -0.5269E-09  0.0000E+00 -0.6374E-21  0.0000E+00 -0.6808E-21  0.0000E+00 -0.5173E-11  0.0000E+00 -0.6541E-21  0.0000E+00 -0.1552E-10
     -1.316  0.0000E+00 -0.5133E-16  0.0000E+00 -0.1352E-30  0.0000E+00 -0.1278E-30  0.0000E+00 -0.2775E-17  0.0000E+00 -0.3357E-29  0.0000E+00 -0.3586E-29  0.0000E+00 -0.2725E-19  0.0000E+00 -0.3445E-29  0.0000E+00 -0.8174E-19
     -1.221 -0.3272E-30  0.0000E+00 -0.1639E-31  0.0000E+00 -0.1639E-31  0.0000E+00 -0.1639E-31  0.0000E+00 -0.3669E-32  0.0000E+00 -0.3669E-32  0.0000E+00 -0.6014E-50  0.0000E+00 -0.3669E-32  0.0000E+00 -0.3089E-50  0.0000E+00
     -1.126 -0.3903E-18 -0.1075E-32 -0.1955E-19 -0.5399E-34 -0.1955E-19 -0.5399E-34 -0.1955E-19 -0.5399E-34 -0.4376E-20 -0.1206E-34 -0.4376E-20 -0.1206E-34 -0.7173E-38 -0.1166E-58 -0.4376E-20 -0.1206E-34 -0.3684E-38 -0.2173E-59
     -1.031 -0.3092E-09 -0.4664E-20 -0.1548E-10 -0.2341E-21 -0.1548E-10 -0.2341E-21 -0.1548E-10 -0.2341E-21 -0.3467E-11 -0.5230E-22 -0.3467E-11 -0.5230E-22 -0.5682E-29 -0.5057E-46 -0.3467E-11 -0.5230E-22 -0.2918E-29 -0.9422E-47
     -0.937 -0.1477E-03 -0.1364E-10 -0.7397E-05 -0.6848E-12 -0.7397E-05 -0.6848E-12 -0.7397E-05 -0.6848E-12 -0.1656E-05 -0.1530E-12 -0.1656E-05 -0.1530E-12 -0.2714E-23 -0.1479E-36 -0.1656E-05 -0.1530E-12 -0.1394E-23 -0.2756E-37
     -0.842  0.4804E-02 -0.2517E-04  0.2406E-03 -0.1263E-05  0.2406E-03 -0.1263E-05  0.2406E-03 -0.1263E-05  0.5388E-04 -0.2822E-06  0.5388E-04 -0.2822E-06  0.8830E-22 -0.2729E-30  0.5388E-04 -0.2822E-06  0.4535E-22 -0.5084E-31
     -0.747  0.2865E+00 -0.9320E-02  0.1435E-01 -0.4678E-03  0.1435E-01 -0.4678E-03  0.1435E-01 -0.4678E-03  0.3213E-02 -0.1045E-03  0.3213E-02 -0.1045E-03  0.5266E-20 -0.1011E-27  0.3213E-02 -0.1045E-03  0.2705E-20 -0.1883E-28
     -0.653 -0.9410E-02  0.2864E+00 -0.4713E-03  0.1438E-01 -0.4713E-03  0.1438E-01 -0.4713E-03  0.1438E-01 -0.1055E-03  0.3212E-02 -0.1055E-03  0.3212E-02 -0.1730E-21  0.3106E-26 -0.1055E-03  0.3212E-02 -0.8883E-22  0.5786E-27
     -0.558 -0.2435E-04  0.4310E-02 -0.1220E-05  0.2163E-03 -0.1220E-05  0.2163E-03 -0.1220E-05  0.2163E-03 -0.2730E-06  0.4833E-04 -0.2730E-06  0.4833E-04 -0.4475E-24  0.4673E-28 -0.2730E-06  0.4833E-04 -0.2299E-24  0.8707E-29
     -0.463 -0.1288E-10 -0.1430E-03 -0.6449E-12 -0.7179E-05 -0.6449E-12 -0.7179E-05 -0.6449E-12 -0.7179E-05 -0.1444E-12 -0.1604E-05 -0.1444E-12 -0.1604E-05 -0.2367E-30 -0.1551E-29 -0.1444E-12 -0.1604E-05 -0.1216E-30 -0.2889E-30
     -0.368 -0.1454E-30 -0.2920E-09 -0.5306E-32 -0.1466E-10 -0.2113E-44 -0.1466E-10 -0.2953E-31 -0.1466E-10 -0.1274E-31 -0.3274E-11 -0.1994E-43 -0.3274E-11 -0.4494E-32 -0.3166E-35 -0.2029E-43 -0.3274E-11 -0.2295E-32 -0.5898E-36
     -0.274 -0.2608E-18 -0.6038E-33 -0.9517E-20 -0.2210E-34 -0.3789E-32 -0.2321E-47 -0.5298E-19 -0.1229E-33 -0.2286E-19 -0.5292E-34 -0.3576E-31 -0.3646E-46 -0.8061E-20 -0.1879E-34 -0.3639E-31 -0.3819E-46 -0.4116E-20 -0.9593E-35
     -0.179 -0.3123E-09 -0.3681E-20 -0.1140E-10 -0.1347E-21 -0.4538E-23 -0.1415E-34 -0.6344E-10 -0.7492E-21 -0.2737E-10 -0.3226E-21 -0.4282E-22 -0.2223E-33 -0.9653E-11 -0.1146E-21 -0.4358E-22 -0.2328E-33 -0.4929E-11 -0.5849E-22
     -0.084 -0.2291E-03 -0.1519E-10 -0.8360E-05 -0.5560E-12 -0.3329E-17 -0.5839E-25 -0.4654E-04 -0.3092E-11 -0.2008E-04 -0.1331E-11 -0.3141E-16 -0.9173E-24 -0.7081E-05 -0.4729E-12 -0.3197E-16 -0.9609E-24 -0.3616E-05 -0.2414E-12
      0.011 -0.5841E-02 -0.3993E-04 -0.2131E-03 -0.1461E-05 -0.8487E-16 -0.1535E-18 -0.1186E-02 -0.8126E-05 -0.5119E-03 -0.3499E-05 -0.8009E-15 -0.2411E-17 -0.1805E-03 -0.1243E-05 -0.8150E-15 -0.2525E-17 -0.9218E-04 -0.6343E-06
      0.105  0.7692E+00 -0.2621E-01  0.2806E-01 -0.9591E-03  0.1117E-13 -0.1007E-15  0.1562E+00 -0.5334E-02  0.6740E-01 -0.2297E-02  0.1055E-12 -0.1582E-14  0.2377E-01 -0.8157E-03  0.1073E-12 -0.1658E-14  0.1214E-01 -0.4164E-03
      0.200 -0.1950E-01  0.7364E+00 -0.7114E-03  0.2695E-01 -0.2833E-15  0.2830E-14 -0.3960E-02  0.1499E+00 -0.1709E-02  0.6454E-01 -0.2673E-14  0.4447E-13 -0.6026E-03  0.2292E-01 -0.2720E-14  0.4658E-13 -0.3077E-03  0.1170E-01
      0.295 -0.1156E-03  0.3233E-01 -0.4218E-05  0.1183E-02 -0.1680E-17  0.1243E-15 -0.2348E-04  0.6580E-02 -0.1013E-04  0.2833E-02 -0.1585E-16  0.1952E-14 -0.3573E-05  0.1006E-02 -0.1613E-16  0.2045E-14 -0.1824E-05  0.5136E-03
      0.389 -0.9350E-10 -0.5772E-03 -0.3411E-11 -0.2113E-04 -0.1358E-23 -0.2219E-17 -0.1899E-10 -0.1175E-03 -0.8194E-11 -0.5059E-04 -0.1282E-22 -0.3486E-16 -0.2890E-11 -0.1797E-04 -0.1305E-22 -0.3651E-16 -0.1475E-11 -0.9171E-05
      0.484  0.0000E+00 -0.1689E-08  0.0000E+00 -0.6183E-10  0.0000E+00 -0.6493E-23  0.0000E+00 -0.3438E-09  0.0000E+00 -0.1481E-09  0.0000E+00 -0.1020E-21  0.0000E+00 -0.5258E-10  0.0000E+00 -0.1069E-21  0.0000E+00 -0.2684E-10
      0.579  0.0000E+00  0.0000E+00  0.0000E+00  0.0000E+00  0.0000E+00  0.0000E+00  0.0000E+00  0.0000E+00  0.0000E+00  0.0000E+00  0.0000E+00  0.0000E+00  0.0000E+00  0.0000E+00  0.0000E+00  0.0000E+00  0.0000E+00  0.0000E+00
      0.674  0.0000E+00  0.0000E+00  0.0000E+00  0.0000E+00  0.0000E+00  0.0000E+00  0.0000E+00  0.0000E+00  0.0000E+00  0.0000E+00  0.0000E+00  0.0000E+00  0.0000E+00  0.0000E+00  0.0000E+00  0.0000E+00  0.0000E+00  0.0000E+00
      0.768  0.0000E+00  0.0000E+00  0.0000E+00  0.0000E+00  0.0000E+00  0.0000E+00  0.0000E+00  0.0000E+00  0.0000E+00  0.0000E+00  0.0000E+00  0.0000E+00  0.0000E+00  0.0000E+00  0.0000E+00  0.0000E+00  0.0000E+00  0.0000E+00
      0.863 -0.2328E-33  0.0000E+00 -0.2893E-34  0.0000E+00 -0.2893E-34  0.0000E+00 -0.1882E-34  0.0000E+00 -0.2596E-35  0.0000E+00 -0.1062E-33  0.0000E+00 -0.6572E-35  0.0000E+00 -0.2596E-35  0.0000E+00 -0.1972E-34  0.0000E+00
      0.958 -0.1641E-20 -0.8547E-36 -0.2039E-21 -0.1065E-36 -0.2039E-21 -0.1065E-36 -0.1326E-21 -0.6930E-37 -0.1829E-22 -0.9545E-38 -0.7483E-21 -0.3905E-36 -0.4631E-22 -0.2434E-37 -0.1829E-22 -0.9545E-38 -0.1389E-21 -0.7302E-37
      1.053 -0.7839E-11 -0.1999E-22 -0.9740E-12 -0.2491E-23 -0.9740E-12 -0.2491E-23 -0.6336E-12 -0.1621E-23 -0.8739E-13 -0.2233E-24 -0.3575E-11 -0.9134E-23 -0.2213E-12 -0.5694E-24 -0.8739E-13 -0.2233E-24 -0.6638E-12 -0.1708E-23
      1.147 -0.2394E-04 -0.3207E-12 -0.2975E-05 -0.3996E-13 -0.2975E-05 -0.3996E-13 -0.1935E-05 -0.2600E-13 -0.2669E-06 -0.3582E-14 -0.1092E-04 -0.1465E-12 -0.6758E-06 -0.9134E-14 -0.2669E-06 -0.3582E-14 -0.2027E-05 -0.2740E-13
      1.242 -0.1968E-01 -0.3380E-05 -0.2441E-02 -0.4212E-06 -0.2441E-02 -0.4212E-06 -0.1593E-02 -0.2741E-06 -0.2583E-03 -0.3775E-07 -0.8960E-02 -0.1544E-05 -0.5764E-03 -0.9628E-07 -0.2190E-03 -0.3775E-07 -0.1664E-02 -0.2888E-06
      1.337  0.5310E+00 -0.1395E-01  0.6748E-01 -0.1737E-02  0.6750E-01 -0.1737E-02  0.4206E-01 -0.1131E-02 -0.8057E-02 -0.1638E-03  0.2478E+00 -0.6369E-02  0.7478E-02 -0.4016E-03  0.6057E-02 -0.1557E-03  0.4591E-01 -0.1191E-02
      1.432  0.4120E+00  0.4284E+00  0.4782E-02  0.5487E-01  0.3998E-02  0.5490E-01  0.5979E-01  0.3389E-01  0.4370E+00 -0.9013E-02  0.1468E-01  0.2013E+00  0.2440E+00  0.4732E-02  0.3588E-03  0.4920E-02  0.5692E-02  0.3754E-01
      1.526  0.4487E-02  0.4678E+00 -0.5309E-04  0.1679E-01 -0.6398E-04  0.1609E-01  0.5832E-03  0.6159E-01  0.6059E-02  0.3916E+00 -0.2348E-03  0.5898E-01  0.3336E-02  0.2225E+00 -0.5740E-05  0.1442E-02 -0.7936E-04  0.1369E-01
      1.621  0.1949E-01  0.4309E-01 -0.3832E-06 -0.1468E-03 -0.2183E-09 -0.2403E-03  0.1211E-01  0.6593E-02 -0.2133E-03  0.5195E-01 -0.7307E-04 -0.8811E-03  0.1713E-02  0.2909E-01 -0.1959E-10 -0.2154E-04  0.5493E-02  0.1618E-03