    1    1    1    2
  0.1879769E+02  0.2901185E-09  0.2901185E-09  0.2901185E-09  0.5000000E-15
  1.000000000000000E-004
  CAR 
 unknown system                          
    5   14    9
 
  0.8333333E-01  0.8333333E-01  0.8333333E-01  0.3703704E-01
   1       -0.803223     -0.691610
   2        5.217655      5.326477
   3        5.217655      5.326477
   4        8.126605      8.232261
   5        9.000041      9.078101
   6        9.000041      9.078101
   7       19.493551     19.542938
   8       21.257076     21.374633
   9       22.146254     22.247692
 
  0.2500000E+00  0.8333333E-01  0.8333333E-01  0.1111111E+00
   1        1.304073      1.414511
   2        4.236560      4.347056
   3        4.743213      4.848291
   4        9.167251      9.250569
   5        9.751105      9.827018
   6       11.366487     11.464534
   7       18.640386     18.738157
   8       19.319730     19.420155
   9       19.512216     19.563023
 
  0.4166667E+00  0.8333333E-01  0.8333333E-01  0.5555556E-01
   1        1.761325      1.869711
   2        3.870476      3.981767
   3        6.116972      6.222590
   4        9.360964      9.444256
   5       10.132151     10.206161
   6       13.733108     13.821232
   7       15.327698     15.429910
   8       17.718533     17.820678
   9       19.501524     19.551142
 
 -0.8333333E-01  0.8333333E-01  0.8333333E-01  0.2777778E-01
   1       -1.823737     -1.711719
   2        6.051944      6.161464
   3        6.051947      6.161464
   4        6.382572      6.491447
   5        8.339890      8.417974
   6        9.574838      9.647656
   7       19.496185     19.545583
   8       21.110612     21.220731
   9       21.166274     21.282674
 
  0.2500000E+00  0.2500000E+00  0.8333333E-01  0.1111111E+00
   1        2.928488      3.039347
   2        4.040964      4.146250
   3        4.603321      4.711016
   4        9.657714      9.738796
   5       10.082192     10.158840
   6       14.246864     14.358607
   7       14.928135     15.017565
   8       18.610167     18.698213
   9       19.500894     19.550512
 
 -0.2500000E+00  0.2500000E+00  0.8333333E-01  0.1111111E+00
   1        0.054682      0.165417
   2        5.163537      5.274051
   3        5.307148      5.408934
   4        7.793496      7.883388
   5        8.483908      8.588670
   6        9.993794     10.068144
   7       19.487237     19.537049
   8       20.071889     20.173572
   9       22.017610     22.114037
 
 -0.4166667E+00  0.4166667E+00  0.8333333E-01  0.1111111E+00
   1        1.392235      1.500330
   2        4.365217      4.476469
   3        5.601933      5.701298
   4        8.573405      8.663729
   5       10.411523     10.491480
   6       11.885508     11.978856
   7       17.076454     17.169237
   8       18.648964     18.748501
   9       19.504641     19.554464
 
 -0.2500000E+00  0.4166667E+00  0.8333333E-01  0.1111111E+00
   1        1.941192      2.049762
   2        4.142237      4.240288
   3        5.256948      5.365561
   4        7.897295      7.993375
   5        9.901162      9.986619
   6       11.470438     11.564309
   7       17.817036     17.913667
   8       19.503805     19.553589
   9       21.412336     21.501160
 
 -0.4166667E+00 -0.4166667E+00  0.8333333E-01  0.1111111E+00
   1        2.593503      2.699136
   2        4.387666      4.494343
   3        4.668879      4.765598
   4        8.419320      8.513744
   5       10.535937     10.626201
   6       14.549155     14.637784
   7       14.982563     15.085041
   8       18.780867     18.874911
   9       19.501903     19.551489
 
  0.2500000E+00  0.2500000E+00  0.2500000E+00  0.9259259E-02
   1        4.158162      4.266570
   2        4.158165      4.266570
   3        4.158165      4.266570
   4       10.220689     10.293850
   5       10.220689     10.293850
   6       12.018048     12.138039
   7       17.675901     17.763907
   8       17.675902     17.763907
   9       17.675902     17.763908
 
 -0.2500000E+00  0.2500000E+00  0.2500000E+00  0.2777778E-01
   1        1.644220      1.750569
   2        4.570425      4.659067
   3        6.610165      6.718475
   4        6.610167      6.718475
   5        8.479364      8.583590
   6       10.157672     10.240814
   7       19.453169     19.510874
   8       19.632103     19.718020
   9       23.912007     24.011698
 
 -0.4166667E+00  0.4166667E+00  0.2500000E+00  0.1111111E+00
   1        2.655602      2.753642
   2        3.488292      3.581322
   3        6.540272      6.648426
   4        7.194181      7.297347
   5       11.401424     11.496147
   6       11.405861     11.506090
   7       17.519854     17.613708
   8       19.503714     19.553376
   9       19.847844     19.958191
 
 -0.4166667E+00 -0.4166667E+00  0.2500000E+00  0.3703704E-01
   1        2.843625      2.936358
   2        2.843625      2.936358
   3        6.102087      6.211934
   4       10.143988     10.244386
   5       10.143991     10.244386
   6       14.848599     14.951918
   7       15.948447     16.049402
   8       15.948452     16.049405
   9       19.501249     19.550772
 
 -0.4166667E+00  0.4166667E+00  0.4166667E+00  0.2777778E-01
   1        2.131897      2.223892
   2        2.209036      2.301812
   3        9.829613      9.932621
   4        9.829615      9.932621
   5       11.314461     11.408108
   6       11.980139     12.093564
   7       16.294301     16.401388
   8       16.294305     16.401391
   9       19.490275     19.539581
