       N       E                     dE             d eps       ncg     rms          rms(c)
DAV:   1     0.276989324659E+01    0.27699E+01   -0.13549E+03   595   0.212E+02
DAV:   2    -0.117167081402E+01   -0.39416E+01   -0.36125E+01   626   0.322E+01
DAV:   3    -0.119899712995E+01   -0.27326E-01   -0.25097E-01   587   0.237E+00
DAV:   4    -0.119903874538E+01   -0.41615E-04   -0.41600E-04   703   0.796E-02
DAV:   5    -0.119903877259E+01   -0.27202E-07   -0.27393E-07   597   0.182E-03    0.721E+00
DAV:   6    -0.116237209032E+02   -0.10425E+02   -0.33632E+00   530   0.489E+00    0.455E+00
DAV:   7    -0.114601805898E+02    0.16354E+00   -0.40031E-02   582   0.108E+00    0.532E+00
DAV:   8    -0.111543347058E+02    0.30585E+00   -0.22138E-01   578   0.263E+00    0.544E+00
DAV:   9    -0.117622864432E+02   -0.60795E+00   -0.41477E-01   541   0.313E+00    0.154E+00
DAV:  10    -0.118425105890E+02   -0.80224E-01   -0.23296E-02   603   0.722E-01    0.954E-01
DAV:  11    -0.118165783479E+02    0.25932E-01   -0.21903E-03   557   0.236E-01    0.902E-01
DAV:  12    -0.118093260422E+02    0.72523E-02   -0.12476E-02   577   0.486E-01    0.109E+00
DAV:  13    -0.118166473833E+02   -0.73213E-02   -0.16927E-03   523   0.196E-01    0.101E+00
DAV:  14    -0.117669981190E+02    0.49649E-01   -0.44189E-03   568   0.266E-01    0.172E+00
DAV:  15    -0.117525634626E+02    0.14435E-01   -0.55832E-04   399   0.933E-02    0.188E+00
DAV:  16    -0.118239820294E+02   -0.71419E-01   -0.13738E-02   559   0.491E-01    0.823E-01
DAV:  17    -0.118526896908E+02   -0.28708E-01   -0.35941E-03   567   0.268E-01    0.720E-01
DAV:  18    -0.118596269839E+02   -0.69373E-02   -0.11180E-03   505   0.134E-01    0.433E-01
DAV:  19    -0.118637653174E+02   -0.41383E-02   -0.12214E-03   472   0.136E-01    0.125E-01
DAV:  20    -0.118639720271E+02   -0.20671E-03   -0.31340E-05   252   0.237E-02    0.788E-02
DAV:  21    -0.118641122936E+02   -0.14027E-03   -0.63206E-05   292   0.305E-02    0.454E-03
DAV:  22    -0.118641127472E+02   -0.45355E-06   -0.13198E-06   252   0.622E-03
   1 F= -.11864113E+02 E0= -.11864098E+02  d E =-.435645E-04  mag=     0.1567
