<?xml version="1.0" encoding="ISO-8859-1"?>
<modeling>
 <generator>
  <i name="program" type="string">vasp </i>
  <i name="version" type="string">5.2.12  </i>
  <i name="subversion" type="string">11Nov11 complex                                                      parallel </i>
  <i name="platform" type="string">LinuxIFC </i>
  <i name="date" type="string">2012 10 17 </i>
  <i name="time" type="string">10:22:31 </i>
 </generator>
 <incar>
  <i type="int" name="ISTART">     0</i>
  <i type="string" name="PREC">accurate</i>
  <i type="int" name="ISPIN">     2</i>
  <i name="ENCUT">    200.00000000</i>
  <v name="MAGMOM">      6.00000000</v>
  <i type="logical" name="LREAL"> F  </i>
  <i type="int" name="ISMEAR">     1</i>
  <i name="SIGMA">      0.05000000</i>
  <i type="logical" name="LORBIT"> F  </i>
 </incar>
 <kpoints>
  <generation param="Monkhorst-Pack">
   <v type="int" name="divisions">       6        6        6 </v>
   <v name="usershift">      0.00000000       0.00000000       0.00000000 </v>
   <v name="genvec1">      0.16666667       0.00000000       0.00000000 </v>
   <v name="genvec2">      0.00000000       0.16666667       0.00000000 </v>
   <v name="genvec3">      0.00000000       0.00000000       0.16666667 </v>
   <v name="shift">      0.50000000       0.50000000       0.50000000 </v>
  </generation>
  <varray name="kpointlist" >
   <v>       0.08333333       0.08333333       0.08333333 </v>
   <v>       0.25000000       0.08333333       0.08333333 </v>
   <v>       0.41666667       0.08333333       0.08333333 </v>
   <v>      -0.08333333       0.08333333       0.08333333 </v>
   <v>       0.25000000       0.25000000       0.08333333 </v>
   <v>      -0.25000000       0.25000000       0.08333333 </v>
   <v>      -0.41666667       0.41666667       0.08333333 </v>
   <v>      -0.25000000       0.41666667       0.08333333 </v>
   <v>      -0.41666667      -0.41666667       0.08333333 </v>
   <v>       0.25000000       0.25000000       0.25000000 </v>
   <v>      -0.25000000       0.25000000       0.25000000 </v>
   <v>      -0.41666667       0.41666667       0.25000000 </v>
   <v>      -0.41666667      -0.41666667       0.25000000 </v>
   <v>      -0.41666667       0.41666667       0.41666667 </v>
  </varray>
  <varray name="weights" >
   <v>       0.03703704 </v>
   <v>       0.11111111 </v>
   <v>       0.05555556 </v>
   <v>       0.02777778 </v>
   <v>       0.11111111 </v>
   <v>       0.11111111 </v>
   <v>       0.11111111 </v>
   <v>       0.11111111 </v>
   <v>       0.11111111 </v>
   <v>       0.00925926 </v>
   <v>       0.02777778 </v>
   <v>       0.11111111 </v>
   <v>       0.03703704 </v>
   <v>       0.02777778 </v>
  </varray>
 </kpoints>
 <parameters>
  <separator name="general" >
   <i type="string" name="SYSTEM">unknown system</i>
   <i type="logical" name="LCOMPAT"> F  </i>
  </separator>
  <separator name="electronic" >
   <i type="string" name="PREC">accura</i>
   <i name="ENMAX">    200.00000000</i>
   <i name="ENAUG">    332.07500000</i>
   <i name="EDIFF">      0.00010000</i>
   <i type="int" name="IALGO">    38</i>
   <i type="int" name="IWAVPR">    10</i>
   <i type="int" name="NBANDS">     9</i>
   <i name="NELECT">      5.00000000</i>
   <i type="int" name="TURBO">     0</i>
   <i type="int" name="IRESTART">     0</i>
   <i type="int" name="NREBOOT">     0</i>
   <i type="int" name="NMIN">     0</i>
   <i name="EREF">      0.00000000</i>
   <separator name="electronic smearing" >
    <i type="int" name="ISMEAR">     1</i>
    <i name="SIGMA">      0.05000000</i>
    <i name="KSPACING">      0.50000000</i>
    <i type="logical" name="KGAMMA"> T  </i>
   </separator>
   <separator name="electronic projectors" >
    <i type="logical" name="LREAL"> F  </i>
    <v name="ROPT">      0.00000000</v>
    <i type="int" name="LMAXPAW">  -100</i>
    <i type="int" name="LMAXMIX">     2</i>
    <i type="logical" name="NLSPLINE"> F  </i>
   </separator>
   <separator name="electronic startup" >
    <i type="int" name="ISTART">     0</i>
    <i type="int" name="ICHARG">     2</i>
    <i type="int" name="INIWAV">     1</i>
   </separator>
   <separator name="electronic spin" >
    <i type="int" name="ISPIN">     2</i>
    <i type="logical" name="LNONCOLLINEAR"> F  </i>
    <v name="MAGMOM">      6.00000000</v>
    <i name="NUPDOWN">     -1.00000000</i>
    <i type="logical" name="LSORBIT"> F  </i>
    <v name="SAXIS">      0.00000000      0.00000000      1.00000000</v>
    <i type="logical" name="LSPIRAL"> F  </i>
    <v name="QSPIRAL">      0.00000000      0.00000000      0.00000000</v>
    <i type="logical" name="LZEROZ"> F  </i>
   </separator>
   <separator name="electronic exchange-correlation" >
    <i type="logical" name="LASPH"> F  </i>
    <i type="logical" name="LMETAGGA"> F  </i>
   </separator>
   <separator name="electronic convergence" >
    <i type="int" name="NELM">    60</i>
    <i type="int" name="NELMDL">    -5</i>
    <i type="int" name="NELMIN">     2</i>
    <i name="ENINI">    200.00000000</i>
    <separator name="electronic convergence detail" >
     <i type="logical" name="LDIAG"> T  </i>
     <i type="logical" name="LSUBROT"> T  </i>
     <i name="WEIMIN">      0.00000000</i>
     <i name="EBREAK">      0.00000278</i>
     <i name="DEPER">      0.30000000</i>
     <i type="int" name="NRMM">     4</i>
     <i name="TIME">      0.40000000</i>
    </separator>
   </separator>
   <separator name="electronic mixer" >
    <i name="AMIX">      0.40000000</i>
    <i name="BMIX">      1.00000000</i>
    <i name="AMIN">      0.10000000</i>
    <i name="AMIX_MAG">      1.60000000</i>
    <i name="BMIX_MAG">      1.00000000</i>
    <separator name="electronic mixer details" >
     <i type="int" name="IMIX">     4</i>
     <i type="int" name="MAXMIX">   -45</i>
     <i name="WC">    100.00000000</i>
     <i type="int" name="INIMIX">     1</i>
     <i type="int" name="MIXPRE">     1</i>
     <i type="int" name="MREMOVE">     5</i>
    </separator>
   </separator>
   <separator name="electronic dipolcorrection" >
    <i type="logical" name="LDIPOL"> F  </i>
    <i type="logical" name="LMONO"> F  </i>
    <i type="int" name="IDIPOL">     0</i>
    <i name="EPSILON">      1.00000000</i>
    <v name="DIPOL">   -100.00000000   -100.00000000   -100.00000000</v>
    <i name="EFIELD">      0.00000000</i>
   </separator>
  </separator>
  <separator name="grids" >
   <i type="int" name="NGX">    14</i>
   <i type="int" name="NGY">    14</i>
   <i type="int" name="NGZ">    14</i>
   <i type="int" name="NGXF">    28</i>
   <i type="int" name="NGYF">    28</i>
   <i type="int" name="NGZF">    28</i>
   <i type="logical" name="ADDGRID"> F  </i>
  </separator>
  <separator name="ionic" >
   <i type="int" name="NSW">     0</i>
   <i type="int" name="IBRION">    -1</i>
   <i type="int" name="ISIF">     2</i>
   <i name="PSTRESS">      0.00000000</i>
   <i name="EDIFFG">      0.00100000</i>
   <i type="int" name="NFREE">     0</i>
   <i name="POTIM">      0.50000000</i>
   <i name="SMASS">     -3.00000000</i>
   <i name="SCALEE">      1.00000000</i>
  </separator>
  <separator name="ionic md" >
   <i name="TEBEG">      0.00010000</i>
   <i name="TEEND">      0.00010000</i>
   <i type="int" name="NBLOCK">     1</i>
   <i type="int" name="KBLOCK">     1</i>
   <i type="int" name="NPACO">   256</i>
   <i name="APACO">     16.00000000</i>
  </separator>
  <separator name="symmetry" >
   <i type="int" name="ISYM">     2</i>
   <i name="SYMPREC">      0.00001000</i>
  </separator>
  <separator name="dos" >
   <i type="logical" name="LORBIT"> F  </i>
   <v name="RWIGS">     -1.00000000</v>
   <i type="int" name="NEDOS">   301</i>
   <i name="EMIN">     10.00000000</i>
   <i name="EMAX">    -10.00000000</i>
   <i name="EFERMI">      0.00000000</i>
  </separator>
  <separator name="writing" >
   <i type="int" name="NWRITE">     2</i>
   <i type="logical" name="LWAVE"> T  </i>
   <i type="logical" name="LCHARG"> T  </i>
   <i type="logical" name="LPARD"> F  </i>
   <i type="logical" name="LVTOT"> F  </i>
   <i type="logical" name="LVHAR"> F  </i>
   <i type="logical" name="LELF"> F  </i>
   <i type="logical" name="LOPTICS"> F  </i>
   <v name="STM">      0.00000000      0.00000000      0.00000000      0.00000000      0.00000000      0.00000000      0.00000000</v>
  </separator>
  <separator name="performance" >
   <i type="int" name="NPAR">     1</i>
   <i type="int" name="NSIM">     4</i>
   <i type="int" name="NBLK">    -1</i>
   <i type="logical" name="LPLANE"> T  </i>
   <i type="logical" name="LSCALAPACK"> F  </i>
   <i type="logical" name="LSCAAWARE"> F  </i>
   <i type="logical" name="LSCALU"> F  </i>
   <i type="logical" name="LASYNC"> F  </i>
   <i type="logical" name="LORBITALREAL"> F  </i>
  </separator>
  <separator name="miscellaneous" >
   <i type="int" name="IDIOT">     3</i>
   <i type="logical" name="LMUSIC"> F  </i>
   <v name="POMASS">    180.94800000</v>
   <v name="DARWINR">      0.00000000</v>
   <v name="DARWINV">      1.00000000</v>
   <i type="logical" name="LCORR"> T  </i>
  </separator>
  <i type="logical" name="GGA_COMPAT"> T  </i>
  <i type="logical" name="LBERRY"> F  </i>
  <i type="int" name="ICORELEVEL">     0</i>
  <i type="logical" name="LDAU"> F  </i>
  <i type="int" name="I_CONSTRAINED_M">     0</i>
  <separator name="electronic exchange-correlation" >
   <i type="string" name="GGA">--</i>
   <i type="int" name="VOSKOWN">     0</i>
   <i type="logical" name="LHFCALC"> F  </i>
   <i type="string" name="PRECFOCK"></i>
   <i type="logical" name="LHFONE"> F  </i>
   <i type="logical" name="LRHFCALC"> F  </i>
   <i type="logical" name="LTHOMAS"> F  </i>
   <i type="logical" name="LMODELHF"> F  </i>
   <i name="ENCUT4O">     -1.00000000</i>
   <i type="int" name="EXXOEP">     0</i>
   <i type="int" name="FOURORBIT">     0</i>
   <i name="AEXX">      0.00000000</i>
   <i name="HFALPHA">      0.00000000</i>
   <i name="ALDAX">      1.00000000</i>
   <i name="AGGAX">      1.00000000</i>
   <i name="ALDAC">      1.00000000</i>
   <i name="AGGAC">      1.00000000</i>
   <i type="int" name="NKREDX">     1</i>
   <i type="int" name="NKREDY">     1</i>
   <i type="int" name="NKREDZ">     1</i>
   <i type="logical" name="SHIFTRED"> F  </i>
   <i type="logical" name="ODDONLY"> F  </i>
   <i type="logical" name="EVENONLY"> F  </i>
   <i type="int" name="LMAXFOCK">     0</i>
   <i type="int" name="NMAXFOCKAE">     0</i>
   <i type="logical" name="LFOCKAEDFT"> F  </i>
   <i name="HFSCREEN">      0.00000000</i>
   <i name="HFSCREENC">      0.00000000</i>
  </separator>
  <separator name="vdW DFT" >
   <i type="logical" name="LUSE_VDW"> F  </i>
   <i name="Zab_VDW">     -0.84910000</i>
   <i name="PARAM1">      0.12340000</i>
   <i name="PARAM2">      1.00000000</i>
   <i name="PARAM3">      0.00000000</i>
  </separator>
  <separator name="model GW" >
   <i type="int" name="MODEL_GW">     0</i>
   <i name="MODEL_EPS0">     11.27861250</i>
   <i name="MODEL_ALPHA">      1.00000000</i>
  </separator>
  <separator name="linear response parameters" >
   <i type="logical" name="LEPSILON"> F  </i>
   <i type="logical" name="LRPA"> F  </i>
   <i type="logical" name="LNABLA"> F  </i>
   <i type="logical" name="LVEL"> F  </i>
   <i type="int" name="KINTER">     0</i>
   <i name="CSHIFT">      0.10000000</i>
   <i name="OMEGAMAX">     -1.00000000</i>
  </separator>
  <separator name="orbital magnetization" >
   <i type="logical" name="NUCIND"> F  </i>
   <v name="MAGPOS">      0.00000000      0.00000000      0.00000000</v>
   <i type="logical" name="LNICSALL"> T  </i>
   <i type="logical" name="ORBITALMAG"> F  </i>
   <i type="logical" name="LMAGBLOCH"> F  </i>
   <i type="logical" name="LCHIMAG"> F  </i>
   <i type="logical" name="LGAUGE"> T  </i>
   <i type="int" name="MAGATOM">     0</i>
   <v name="MAGDIPOL">      0.00000000      0.00000000      0.00000000</v>
   <v name="AVECCONST">      0.00000000      0.00000000      0.00000000</v>
  </separator>
  <separator name="response functions" >
   <i type="logical" name="LADDER"> F  </i>
   <i type="logical" name="LHARTREE"> T  </i>
   <i type="int" name="IBSE">     0</i>
   <i type="logical" name="LTCTE"> F  </i>
   <i type="logical" name="LTETE"> F  </i>
   <i type="logical" name="LFXCEPS"> F  </i>
   <i type="logical" name="L2ORDER"> F  </i>
   <i type="logical" name="LUSEW"> F  </i>
   <i name="ENCUTGW">     -2.00000000</i>
   <i name="ENCUTGWSOFT">     -2.00000000</i>
   <i name="ENCUTLF">     -1.00000000</i>
   <i type="int" name="LMAXMP2">    -1</i>
   <i name="SCISSOR">      0.00000000</i>
   <i type="int" name="NOMEGA">     0</i>
   <i type="int" name="NOMEGAR">     0</i>
   <i type="int" name="NBANDSGW">    -1</i>
   <i type="int" name="NBANDSO">    -1</i>
   <i type="int" name="NBANDSV">    -1</i>
   <i name="OPTEMAX">      0.00000000</i>
   <i type="int" name="NELM">     1</i>
   <i type="int" name="DIM">     3</i>
   <i type="int" name="ANTIRES">     0</i>
   <i name="OMEGAMAX">    -30.00000000</i>
   <i name="OMEGATL">   -200.00000000</i>
   <i type="int" name="OMEGAGRID">     0</i>
   <i name="CSHIFT">     -0.10000000</i>
   <i type="logical" name="SELFENERGY"> F  </i>
   <i type="logical" name="LSPECTRAL"> F  </i>
   <i type="logical" name="ODDONLYGW"> F  </i>
   <i type="logical" name="EVENONLYGW"> F  </i>
   <i type="int" name="NKREDLFX">     1</i>
   <i type="int" name="NKREDLFY">     1</i>
   <i type="int" name="NKREDLFZ">     1</i>
   <i type="int" name="MAXMEM">  1800</i>
   <i type="int" name="TELESCOPE">     0</i>
  </separator>
 </parameters>
 <atominfo>
  <atoms>       1 </atoms>
  <types>       1 </types>
  <array name="atoms" >
   <dimension dim="1">ion</dimension>
   <field type="string">element</field>
   <field type="int">atomtype</field>
   <set>
    <rc><c>Ta</c><c>   1</c></rc>
   </set>
  </array>
  <array name="atomtypes" >
   <dimension dim="1">type</dimension>
   <field type="int">atomspertype</field>
   <field type="string">element</field>
   <field>mass</field>
   <field>valence</field>
   <field type="string">pseudopotential</field>
   <set>
    <rc><c>   1</c><c>Ta</c><c>    180.94800000</c><c>      5.00000000</c><c>  PAW_PBE Ta 17Jan2003                  </c></rc>
   </set>
  </array>
 </atominfo>
 <structure name="initialpos" >
  <crystal>
   <varray name="basis" >
    <v>      -1.67500000       1.67500000       1.67500000 </v>
    <v>       1.67500000      -1.67500000       1.67500000 </v>
    <v>       1.67500000       1.67500000      -1.67500000 </v>
   </varray>
   <i name="volume">     18.79768750 </i>
   <varray name="rec_basis" >
    <v>       0.00000000       0.29850746       0.29850746 </v>
    <v>       0.29850746       0.00000000       0.29850746 </v>
    <v>       0.29850746       0.29850746       0.00000000 </v>
   </varray>
  </crystal>
  <varray name="positions" >
   <v>       0.00000000       0.00000000       0.00000000 </v>
  </varray>
 </structure>
 <calculation>
  <scstep>
   <time name="dav">    0.30    0.30</time>
   <time name="total">    0.39    0.40</time>
   <energy>
    <i name="alphaZ">     29.50084685 </i>
    <i name="ewald">   -195.53801163 </i>
    <i name="hartreedc">     -2.71838904 </i>
    <i name="XCdc">    -60.71358540 </i>
    <i name="pawpsdc">    143.51874798 </i>
    <i name="pawaedc">    -69.33493833 </i>
    <i name="eentropy">     -0.00021730 </i>
    <i name="bandstr">     27.47593980 </i>
    <i name="atom">    130.57950032 </i>
    <i name="e_fr_energy">      2.76989325 </i>
    <i name="e_wo_entrp">      2.77011055 </i>
    <i name="e_0_energy">      2.76996568 </i>
   </energy>
  </scstep>
  <scstep>
   <time name="dav">    0.31    0.31</time>
   <time name="total">    0.31    1.13</time>
   <energy>
    <i name="e_fr_energy">     -1.17167081 </i>
    <i name="e_wo_entrp">     -1.17159057 </i>
    <i name="e_0_energy">     -1.17164407 </i>
   </energy>
  </scstep>
  <scstep>
   <time name="dav">    0.29    0.29</time>
   <time name="total">    0.29    0.30</time>
   <energy>
    <i name="e_fr_energy">     -1.19899713 </i>
    <i name="e_wo_entrp">     -1.19798996 </i>
    <i name="e_0_energy">     -1.19866141 </i>
   </energy>
  </scstep>
  <scstep>
   <time name="dav">    0.34    0.34</time>
   <time name="total">    0.34    0.36</time>
   <energy>
    <i name="e_fr_energy">     -1.19903875 </i>
    <i name="e_wo_entrp">     -1.19803466 </i>
    <i name="e_0_energy">     -1.19870405 </i>
   </energy>
  </scstep>
  <scstep>
   <time name="dav">    0.30    0.30</time>
   <time name="total">    0.33    0.35</time>
   <energy>
    <i name="e_fr_energy">     -1.19903877 </i>
    <i name="e_wo_entrp">     -1.19803468 </i>
    <i name="e_0_energy">     -1.19870408 </i>
   </energy>
  </scstep>
  <scstep>
   <time name="dav">    0.27    0.27</time>
   <time name="total">    0.39    0.41</time>
   <energy>
    <i name="e_fr_energy">    -11.62372090 </i>
    <i name="e_wo_entrp">    -11.62396370 </i>
    <i name="e_0_energy">    -11.62380184 </i>
   </energy>
  </scstep>
  <scstep>
   <time name="dav">    0.29    0.29</time>
   <time name="total">    0.41    0.42</time>
   <energy>
    <i name="e_fr_energy">    -11.46018059 </i>
    <i name="e_wo_entrp">    -11.46038317 </i>
    <i name="e_0_energy">    -11.46024812 </i>
   </energy>
  </scstep>
  <scstep>
   <time name="dav">    0.29    0.29</time>
   <time name="total">    0.41    0.43</time>
   <energy>
    <i name="e_fr_energy">    -11.15433471 </i>
    <i name="e_wo_entrp">    -11.15429004 </i>
    <i name="e_0_energy">    -11.15431982 </i>
   </energy>
  </scstep>
  <scstep>
   <time name="dav">    0.27    0.27</time>
   <time name="total">    0.39    0.41</time>
   <energy>
    <i name="e_fr_energy">    -11.76228644 </i>
    <i name="e_wo_entrp">    -11.76131376 </i>
    <i name="e_0_energy">    -11.76196221 </i>
   </energy>
  </scstep>
  <scstep>
   <time name="dav">    0.30    0.30</time>
   <time name="total">    0.42    0.44</time>
   <energy>
    <i name="e_fr_energy">    -11.84251059 </i>
    <i name="e_wo_entrp">    -11.84174996 </i>
    <i name="e_0_energy">    -11.84225705 </i>
   </energy>
  </scstep>
  <scstep>
   <time name="dav">    0.28    0.28</time>
   <time name="total">    0.40    0.41</time>
   <energy>
    <i name="e_fr_energy">    -11.81657835 </i>
    <i name="e_wo_entrp">    -11.81708817 </i>
    <i name="e_0_energy">    -11.81674829 </i>
   </energy>
  </scstep>
  <scstep>
   <time name="dav">    0.29    0.29</time>
   <time name="total">    0.41    0.43</time>
   <energy>
    <i name="e_fr_energy">    -11.80932604 </i>
    <i name="e_wo_entrp">    -11.80964876 </i>
    <i name="e_0_energy">    -11.80943362 </i>
   </energy>
  </scstep>
  <scstep>
   <time name="dav">    0.27    0.27</time>
   <time name="total">    0.38    0.40</time>
   <energy>
    <i name="e_fr_energy">    -11.81664738 </i>
    <i name="e_wo_entrp">    -11.81708465 </i>
    <i name="e_0_energy">    -11.81679314 </i>
   </energy>
  </scstep>
  <scstep>
   <time name="dav">    0.29    0.29</time>
   <time name="total">    0.40    0.42</time>
   <energy>
    <i name="e_fr_energy">    -11.76699812 </i>
    <i name="e_wo_entrp">    -11.76721350 </i>
    <i name="e_0_energy">    -11.76706991 </i>
   </energy>
  </scstep>
  <scstep>
   <time name="dav">    0.22    0.22</time>
   <time name="total">    0.34    0.35</time>
   <energy>
    <i name="e_fr_energy">    -11.75256346 </i>
    <i name="e_wo_entrp">    -11.75280037 </i>
    <i name="e_0_energy">    -11.75264243 </i>
   </energy>
  </scstep>
  <scstep>
   <time name="dav">    0.28    0.28</time>
   <time name="total">    0.40    0.51</time>
   <energy>
    <i name="e_fr_energy">    -11.82398203 </i>
    <i name="e_wo_entrp">    -11.82455749 </i>
    <i name="e_0_energy">    -11.82417385 </i>
   </energy>
  </scstep>
  <scstep>
   <time name="dav">    0.28    0.28</time>
   <time name="total">    0.40    0.42</time>
   <energy>
    <i name="e_fr_energy">    -11.85268969 </i>
    <i name="e_wo_entrp">    -11.85260963 </i>
    <i name="e_0_energy">    -11.85266300 </i>
   </energy>
  </scstep>
  <scstep>
   <time name="dav">    0.26    0.26</time>
   <time name="total">    0.38    0.48</time>
   <energy>
    <i name="e_fr_energy">    -11.85962698 </i>
    <i name="e_wo_entrp">    -11.85922493 </i>
    <i name="e_0_energy">    -11.85949297 </i>
   </energy>
  </scstep>
  <scstep>
   <time name="dav">    0.25    0.25</time>
   <time name="total">    0.37    0.38</time>
   <energy>
    <i name="e_fr_energy">    -11.86376532 </i>
    <i name="e_wo_entrp">    -11.86350167 </i>
    <i name="e_0_energy">    -11.86367744 </i>
   </energy>
  </scstep>
  <scstep>
   <time name="dav">    0.17    0.17</time>
   <time name="total">    0.29    0.30</time>
   <energy>
    <i name="e_fr_energy">    -11.86397203 </i>
    <i name="e_wo_entrp">    -11.86380012 </i>
    <i name="e_0_energy">    -11.86391473 </i>
   </energy>
  </scstep>
  <scstep>
   <time name="dav">    0.18    0.18</time>
   <time name="total">    0.30    0.31</time>
   <energy>
    <i name="e_fr_energy">    -11.86411229 </i>
    <i name="e_wo_entrp">    -11.86407531 </i>
    <i name="e_0_energy">    -11.86409997 </i>
   </energy>
  </scstep>
  <scstep>
   <time name="dav">    0.17    0.17</time>
   <time name="total">    0.25    0.27</time>
   <energy>
    <i name="alphaZ">     29.50084685 </i>
    <i name="ewald">   -195.53801163 </i>
    <i name="hartreedc">     -0.72288341 </i>
    <i name="XCdc">    -66.08499395 </i>
    <i name="pawpsdc">    188.16980301 </i>
    <i name="pawaedc">   -114.66568473 </i>
    <i name="eentropy">     -0.00004356 </i>
    <i name="bandstr">     16.89735437 </i>
    <i name="atom">    130.57950032 </i>
    <i name="e_fr_energy">    -11.86411275 </i>
    <i name="e_wo_entrp">    -11.86406918 </i>
    <i name="e_0_energy">    -11.86409823 </i>
   </energy>
  </scstep>
  <parameters_embedded>
   <separator name="dft+d2" >
    <i type="logical" name="LVDW"> F  </i>
   </separator>
  </parameters_embedded>
  <structure>
   <crystal>
    <varray name="basis" >
     <v>      -1.67500000       1.67500000       1.67500000 </v>
     <v>       1.67500000      -1.67500000       1.67500000 </v>
     <v>       1.67500000       1.67500000      -1.67500000 </v>
    </varray>
    <i name="volume">     18.79768750 </i>
    <varray name="rec_basis" >
     <v>       0.00000000       0.29850746       0.29850746 </v>
     <v>       0.29850746       0.00000000       0.29850746 </v>
     <v>       0.29850746       0.29850746       0.00000000 </v>
    </varray>
   </crystal>
   <varray name="positions" >
    <v>       0.00000000       0.00000000       0.00000000 </v>
   </varray>
  </structure>
  <varray name="forces" >
   <v>       0.00000000       0.00000000       0.00000000 </v>
  </varray>
  <varray name="stress" >
   <v>    -125.05250743       0.00000000       0.00000000 </v>
   <v>       0.00000000    -125.05250743       0.00000000 </v>
   <v>       0.00000000       0.00000000    -125.05250743 </v>
  </varray>
  <energy>
   <i name="e_fr_energy">    -11.86411275 </i>
   <i name="e_wo_entrp">    -11.86409823 </i>
   <i name="e_0_energy">     -0.00004356 </i>
  </energy>
  <time name="totalsc">    8.48    9.86</time>
  <eigenvalues>
   <array>
    <dimension dim="1">band</dimension>
    <dimension dim="2">kpoint</dimension>
    <dimension dim="3">spin</dimension>
    <field>eigene</field>
    <field>occ</field>
    <set>
     <set comment="spin 1">
      <set comment="kpoint 1">
       <r>   -0.8032    1.0000 </r>
       <r>    5.2177    1.0001 </r>
       <r>    5.2177    1.0001 </r>
       <r>    8.1266    0.0000 </r>
       <r>    9.0000    0.0000 </r>
       <r>    9.0000    0.0000 </r>
       <r>   19.4936    0.0000 </r>
       <r>   21.2571    0.0000 </r>
       <r>   22.1463    0.0000 </r>
      </set>
      <set comment="kpoint 2">
       <r>    1.3041    1.0000 </r>
       <r>    4.2366    1.0000 </r>
       <r>    4.7432    1.0000 </r>
       <r>    9.1673    0.0000 </r>
       <r>    9.7511    0.0000 </r>
       <r>   11.3665    0.0000 </r>
       <r>   18.6404    0.0000 </r>
       <r>   19.3197    0.0000 </r>
       <r>   19.5122    0.0000 </r>
      </set>
      <set comment="kpoint 3">
       <r>    1.7613    1.0000 </r>
       <r>    3.8705    1.0000 </r>
       <r>    6.1170    0.0000 </r>
       <r>    9.3610    0.0000 </r>
       <r>   10.1322    0.0000 </r>
       <r>   13.7331    0.0000 </r>
       <r>   15.3277    0.0000 </r>
       <r>   17.7185    0.0000 </r>
       <r>   19.5015    0.0000 </r>
      </set>
      <set comment="kpoint 4">
       <r>   -1.8237    1.0000 </r>
       <r>    6.0519    0.0000 </r>
       <r>    6.0519    0.0000 </r>
       <r>    6.3826    0.0000 </r>
       <r>    8.3399    0.0000 </r>
       <r>    9.5748    0.0000 </r>
       <r>   19.4962    0.0000 </r>
       <r>   21.1106    0.0000 </r>
       <r>   21.1663    0.0000 </r>
      </set>
      <set comment="kpoint 5">
       <r>    2.9285    1.0000 </r>
       <r>    4.0410    1.0000 </r>
       <r>    4.6033    1.0000 </r>
       <r>    9.6577    0.0000 </r>
       <r>   10.0822    0.0000 </r>
       <r>   14.2469    0.0000 </r>
       <r>   14.9281    0.0000 </r>
       <r>   18.6102    0.0000 </r>
       <r>   19.5009    0.0000 </r>
      </set>
      <set comment="kpoint 6">
       <r>    0.0547    1.0000 </r>
       <r>    5.1635    1.0000 </r>
       <r>    5.3071    1.0351 </r>
       <r>    7.7935    0.0000 </r>
       <r>    8.4839    0.0000 </r>
       <r>    9.9938    0.0000 </r>
       <r>   19.4872    0.0000 </r>
       <r>   20.0719    0.0000 </r>
       <r>   22.0176    0.0000 </r>
      </set>
      <set comment="kpoint 7">
       <r>    1.3922    1.0000 </r>
       <r>    4.3652    1.0000 </r>
       <r>    5.6019    0.0000 </r>
       <r>    8.5734    0.0000 </r>
       <r>   10.4115    0.0000 </r>
       <r>   11.8855    0.0000 </r>
       <r>   17.0765    0.0000 </r>
       <r>   18.6490    0.0000 </r>
       <r>   19.5046    0.0000 </r>
      </set>
      <set comment="kpoint 8">
       <r>    1.9412    1.0000 </r>
       <r>    4.1422    1.0000 </r>
       <r>    5.2569    1.0029 </r>
       <r>    7.8973    0.0000 </r>
       <r>    9.9012    0.0000 </r>
       <r>   11.4704    0.0000 </r>
       <r>   17.8170    0.0000 </r>
       <r>   19.5038    0.0000 </r>
       <r>   21.4123    0.0000 </r>
      </set>
      <set comment="kpoint 9">
       <r>    2.5935    1.0000 </r>
       <r>    4.3877    1.0000 </r>
       <r>    4.6689    1.0000 </r>
       <r>    8.4193    0.0000 </r>
       <r>   10.5359    0.0000 </r>
       <r>   14.5492    0.0000 </r>
       <r>   14.9826    0.0000 </r>
       <r>   18.7809    0.0000 </r>
       <r>   19.5019    0.0000 </r>
      </set>
      <set comment="kpoint 10">
       <r>    4.1582    1.0000 </r>
       <r>    4.1582    1.0000 </r>
       <r>    4.1582    1.0000 </r>
       <r>   10.2207    0.0000 </r>
       <r>   10.2207    0.0000 </r>
       <r>   12.0180    0.0000 </r>
       <r>   17.6759    0.0000 </r>
       <r>   17.6759    0.0000 </r>
       <r>   17.6759    0.0000 </r>
      </set>
      <set comment="kpoint 11">
       <r>    1.6442    1.0000 </r>
       <r>    4.5704    1.0000 </r>
       <r>    6.6102    0.0000 </r>
       <r>    6.6102    0.0000 </r>
       <r>    8.4794    0.0000 </r>
       <r>   10.1577    0.0000 </r>
       <r>   19.4532    0.0000 </r>
       <r>   19.6321    0.0000 </r>
       <r>   23.9120    0.0000 </r>
      </set>
      <set comment="kpoint 12">
       <r>    2.6556    1.0000 </r>
       <r>    3.4883    1.0000 </r>
       <r>    6.5403    0.0000 </r>
       <r>    7.1942    0.0000 </r>
       <r>   11.4014    0.0000 </r>
       <r>   11.4059    0.0000 </r>
       <r>   17.5199    0.0000 </r>
       <r>   19.5037    0.0000 </r>
       <r>   19.8478    0.0000 </r>
      </set>
      <set comment="kpoint 13">
       <r>    2.8436    1.0000 </r>
       <r>    2.8436    1.0000 </r>
       <r>    6.1021    0.0000 </r>
       <r>   10.1440    0.0000 </r>
       <r>   10.1440    0.0000 </r>
       <r>   14.8486    0.0000 </r>
       <r>   15.9484    0.0000 </r>
       <r>   15.9485    0.0000 </r>
       <r>   19.5012    0.0000 </r>
      </set>
      <set comment="kpoint 14">
       <r>    2.1319    1.0000 </r>
       <r>    2.2090    1.0000 </r>
       <r>    9.8296    0.0000 </r>
       <r>    9.8296    0.0000 </r>
       <r>   11.3145    0.0000 </r>
       <r>   11.9801    0.0000 </r>
       <r>   16.2943    0.0000 </r>
       <r>   16.2943    0.0000 </r>
       <r>   19.4903    0.0000 </r>
      </set>
     </set>
     <set comment="spin 2">
      <set comment="kpoint 1">
       <r>   -0.6916    1.0000 </r>
       <r>    5.3265    1.0097 </r>
       <r>    5.3265    1.0097 </r>
       <r>    8.2323    0.0000 </r>
       <r>    9.0781    0.0000 </r>
       <r>    9.0781    0.0000 </r>
       <r>   19.5429    0.0000 </r>
       <r>   21.3746    0.0000 </r>
       <r>   22.2477    0.0000 </r>
      </set>
      <set comment="kpoint 2">
       <r>    1.4145    1.0000 </r>
       <r>    4.3471    1.0000 </r>
       <r>    4.8483    1.0000 </r>
       <r>    9.2506    0.0000 </r>
       <r>    9.8270    0.0000 </r>
       <r>   11.4645    0.0000 </r>
       <r>   18.7382    0.0000 </r>
       <r>   19.4202    0.0000 </r>
       <r>   19.5630    0.0000 </r>
      </set>
      <set comment="kpoint 3">
       <r>    1.8697    1.0000 </r>
       <r>    3.9818    1.0000 </r>
       <r>    6.2226    0.0000 </r>
       <r>    9.4443    0.0000 </r>
       <r>   10.2062    0.0000 </r>
       <r>   13.8212    0.0000 </r>
       <r>   15.4299    0.0000 </r>
       <r>   17.8207    0.0000 </r>
       <r>   19.5511    0.0000 </r>
      </set>
      <set comment="kpoint 4">
       <r>   -1.7117    1.0000 </r>
       <r>    6.1615    0.0000 </r>
       <r>    6.1615    0.0000 </r>
       <r>    6.4914    0.0000 </r>
       <r>    8.4180    0.0000 </r>
       <r>    9.6477    0.0000 </r>
       <r>   19.5456    0.0000 </r>
       <r>   21.2207    0.0000 </r>
       <r>   21.2827    0.0000 </r>
      </set>
      <set comment="kpoint 5">
       <r>    3.0393    1.0000 </r>
       <r>    4.1463    1.0000 </r>
       <r>    4.7110    1.0000 </r>
       <r>    9.7388    0.0000 </r>
       <r>   10.1588    0.0000 </r>
       <r>   14.3586    0.0000 </r>
       <r>   15.0176    0.0000 </r>
       <r>   18.6982    0.0000 </r>
       <r>   19.5505    0.0000 </r>
      </set>
      <set comment="kpoint 6">
       <r>    0.1654    1.0000 </r>
       <r>    5.2741    1.0097 </r>
       <r>    5.4089    0.0212 </r>
       <r>    7.8834    0.0000 </r>
       <r>    8.5887    0.0000 </r>
       <r>   10.0681    0.0000 </r>
       <r>   19.5370    0.0000 </r>
       <r>   20.1736    0.0000 </r>
       <r>   22.1140    0.0000 </r>
      </set>
      <set comment="kpoint 7">
       <r>    1.5003    1.0000 </r>
       <r>    4.4765    1.0000 </r>
       <r>    5.7013    0.0000 </r>
       <r>    8.6637    0.0000 </r>
       <r>   10.4915    0.0000 </r>
       <r>   11.9789    0.0000 </r>
       <r>   17.1692    0.0000 </r>
       <r>   18.7485    0.0000 </r>
       <r>   19.5545    0.0000 </r>
      </set>
      <set comment="kpoint 8">
       <r>    2.0498    1.0000 </r>
       <r>    4.2403    1.0000 </r>
       <r>    5.3656    0.5913 </r>
       <r>    7.9934    0.0000 </r>
       <r>    9.9866    0.0000 </r>
       <r>   11.5643    0.0000 </r>
       <r>   17.9137    0.0000 </r>
       <r>   19.5536    0.0000 </r>
       <r>   21.5012    0.0000 </r>
      </set>
      <set comment="kpoint 9">
       <r>    2.6991    1.0000 </r>
       <r>    4.4943    1.0000 </r>
       <r>    4.7656    1.0000 </r>
       <r>    8.5137    0.0000 </r>
       <r>   10.6262    0.0000 </r>
       <r>   14.6378    0.0000 </r>
       <r>   15.0850    0.0000 </r>
       <r>   18.8749    0.0000 </r>
       <r>   19.5515    0.0000 </r>
      </set>
      <set comment="kpoint 10">
       <r>    4.2666    1.0000 </r>
       <r>    4.2666    1.0000 </r>
       <r>    4.2666    1.0000 </r>
       <r>   10.2938    0.0000 </r>
       <r>   10.2938    0.0000 </r>
       <r>   12.1380    0.0000 </r>
       <r>   17.7639    0.0000 </r>
       <r>   17.7639    0.0000 </r>
       <r>   17.7639    0.0000 </r>
      </set>
      <set comment="kpoint 11">
       <r>    1.7506    1.0000 </r>
       <r>    4.6591    1.0000 </r>
       <r>    6.7185    0.0000 </r>
       <r>    6.7185    0.0000 </r>
       <r>    8.5836    0.0000 </r>
       <r>   10.2408    0.0000 </r>
       <r>   19.5109    0.0000 </r>
       <r>   19.7180    0.0000 </r>
       <r>   24.0117    0.0000 </r>
      </set>
      <set comment="kpoint 12">
       <r>    2.7536    1.0000 </r>
       <r>    3.5813    1.0000 </r>
       <r>    6.6484    0.0000 </r>
       <r>    7.2973    0.0000 </r>
       <r>   11.4961    0.0000 </r>
       <r>   11.5061    0.0000 </r>
       <r>   17.6137    0.0000 </r>
       <r>   19.5534    0.0000 </r>
       <r>   19.9582    0.0000 </r>
      </set>
      <set comment="kpoint 13">
       <r>    2.9364    1.0000 </r>
       <r>    2.9364    1.0000 </r>
       <r>    6.2119    0.0000 </r>
       <r>   10.2444    0.0000 </r>
       <r>   10.2444    0.0000 </r>
       <r>   14.9519    0.0000 </r>
       <r>   16.0494    0.0000 </r>
       <r>   16.0494    0.0000 </r>
       <r>   19.5508    0.0000 </r>
      </set>
      <set comment="kpoint 14">
       <r>    2.2239    1.0000 </r>
       <r>    2.3018    1.0000 </r>
       <r>    9.9326    0.0000 </r>
       <r>    9.9326    0.0000 </r>
       <r>   11.4081    0.0000 </r>
       <r>   12.0936    0.0000 </r>
       <r>   16.4014    0.0000 </r>
       <r>   16.4014    0.0000 </r>
       <r>   19.5396    0.0000 </r>
      </set>
     </set>
    </set>
   </array>
  </eigenvalues>
  <separator name="orbital magnetization" >
   <v name="MAGDIPOLOUT">      0.00000000      0.00000000      0.00000000</v>
  </separator>
  <dos>
   <i name="efermi">      5.37098917 </i>
   <total>
    <array>
     <dimension dim="1">gridpoints</dimension>
     <dimension dim="2">spin</dimension>
     <field>energy</field>
     <field>total</field>
     <field>integrated</field>
     <set>
      <set comment="spin 1">
       <r>    -3.1155     0.0000     0.0000 </r>
       <r>    -3.0208     0.0000     0.0000 </r>
       <r>    -2.9260     0.0000     0.0000 </r>
       <r>    -2.8313     0.0000     0.0000 </r>
       <r>    -2.7366     0.0000     0.0000 </r>
       <r>    -2.6419     0.0000     0.0000 </r>
       <r>    -2.5471     0.0000     0.0000 </r>
       <r>    -2.4524     0.0000     0.0000 </r>
       <r>    -2.3577     0.0000     0.0000 </r>
       <r>    -2.2629     0.0000     0.0000 </r>
       <r>    -2.1682     0.0000     0.0000 </r>
       <r>    -2.0735     0.0000     0.0000 </r>
       <r>    -1.9787     0.0000     0.0000 </r>
       <r>    -1.8840    -0.0104    -0.0010 </r>
       <r>    -1.7893     0.2907     0.0266 </r>
       <r>    -1.6946     0.0131     0.0278 </r>
       <r>    -1.5998    -0.0002     0.0278 </r>
       <r>    -1.5051     0.0000     0.0278 </r>
       <r>    -1.4104     0.0000     0.0278 </r>
       <r>    -1.3156     0.0000     0.0278 </r>
       <r>    -1.2209     0.0000     0.0278 </r>
       <r>    -1.1262     0.0000     0.0278 </r>
       <r>    -1.0315     0.0000     0.0278 </r>
       <r>    -0.9367    -0.0002     0.0278 </r>
       <r>    -0.8420     0.0067     0.0284 </r>
       <r>    -0.7473     0.3976     0.0661 </r>
       <r>    -0.6525    -0.0131     0.0648 </r>
       <r>    -0.5578     0.0000     0.0648 </r>
       <r>    -0.4631     0.0000     0.0648 </r>
       <r>    -0.3683     0.0000     0.0648 </r>
       <r>    -0.2736     0.0000     0.0648 </r>
       <r>    -0.1789     0.0000     0.0648 </r>
       <r>    -0.0842    -0.0004     0.0648 </r>
       <r>     0.0106    -0.0092     0.0639 </r>
       <r>     0.1053     1.2134     0.1789 </r>
       <r>     0.2000    -0.0308     0.1759 </r>
       <r>     0.2948    -0.0002     0.1759 </r>
       <r>     0.3895     0.0000     0.1759 </r>
       <r>     0.4842     0.0000     0.1759 </r>
       <r>     0.5790     0.0000     0.1759 </r>
       <r>     0.6737     0.0000     0.1759 </r>
       <r>     0.7684     0.0000     0.1759 </r>
       <r>     0.8631     0.0000     0.1759 </r>
       <r>     0.9579     0.0000     0.1759 </r>
       <r>     1.0526     0.0000     0.1759 </r>
       <r>     1.1473    -0.0001     0.1759 </r>
       <r>     1.2421    -0.0416     0.1720 </r>
       <r>     1.3368     1.1089     0.2770 </r>
       <r>     1.4315     1.2636     0.3967 </r>
       <r>     1.5263     0.0149     0.3981 </r>
       <r>     1.6210     0.0438     0.4023 </r>
       <r>     1.7157     0.2505     0.4260 </r>
       <r>     1.8104     0.5982     0.4827 </r>
       <r>     1.9052     0.0263     0.4852 </r>
       <r>     1.9999     1.1747     0.5965 </r>
       <r>     2.0946    -0.0342     0.5932 </r>
       <r>     2.1894     0.3535     0.6267 </r>
       <r>     2.2841     0.2344     0.6489 </r>
       <r>     2.3788    -0.0081     0.6481 </r>
       <r>     2.4736    -0.0021     0.6479 </r>
       <r>     2.5683     0.1323     0.6605 </r>
       <r>     2.6630     1.8123     0.8322 </r>
       <r>     2.7577     0.3976     0.8698 </r>
       <r>     2.8525     0.4805     0.9153 </r>
       <r>     2.9472     1.2429     1.0331 </r>
       <r>     3.0419     0.2408     1.0559 </r>
       <r>     3.1367    -0.0036     1.0556 </r>
       <r>     3.2314     0.0000     1.0556 </r>
       <r>     3.3261     0.0000     1.0556 </r>
       <r>     3.4209    -0.0392     1.0518 </r>
       <r>     3.5156     1.0882     1.1549 </r>
       <r>     3.6103     0.1258     1.1668 </r>
       <r>     3.7050    -0.0018     1.1667 </r>
       <r>     3.7998    -0.0183     1.1649 </r>
       <r>     3.8945     0.5221     1.2144 </r>
       <r>     3.9892     0.0505     1.2192 </r>
       <r>     4.0840     1.1603     1.3291 </r>
       <r>     4.1787     1.3814     1.4600 </r>
       <r>     4.2734     1.2527     1.5786 </r>
       <r>     4.3682     0.9251     1.6663 </r>
       <r>     4.4629     1.5119     1.8095 </r>
       <r>     4.5576     0.0235     1.8117 </r>
       <r>     4.6523     1.6956     1.9723 </r>
       <r>     4.7471     1.5707     2.1211 </r>
       <r>     4.8418     0.4911     2.1676 </r>
       <r>     4.9365    -0.0103     2.1667 </r>
       <r>     5.0313    -0.0007     2.1666 </r>
       <r>     5.1260     0.0173     2.1682 </r>
       <r>     5.2207     1.6452     2.3241 </r>
       <r>     5.3155     2.2632     2.5385 </r>
       <r>     5.4102     0.3835     2.5748 </r>
       <r>     5.5049    -0.0191     2.5730 </r>
       <r>     5.5996     0.5524     2.6253 </r>
       <r>     5.6944     0.6467     2.6866 </r>
       <r>     5.7891    -0.0148     2.6852 </r>
       <r>     5.8838     0.0000     2.6852 </r>
       <r>     5.9786    -0.0177     2.6835 </r>
       <r>     6.0733     0.5348     2.7342 </r>
       <r>     6.1680     1.0777     2.8362 </r>
       <r>     6.2628    -0.0312     2.8333 </r>
       <r>     6.3575     0.0382     2.8369 </r>
       <r>     6.4522     0.2461     2.8602 </r>
       <r>     6.5469     0.7063     2.9271 </r>
       <r>     6.6417     1.0317     3.0249 </r>
       <r>     6.7364     0.0313     3.0278 </r>
       <r>     6.8311    -0.0006     3.0278 </r>
       <r>     6.9259     0.0000     3.0278 </r>
       <r>     7.0206     0.0000     3.0278 </r>
       <r>     7.1153    -0.0283     3.0251 </r>
       <r>     7.2101     0.9129     3.1116 </r>
       <r>     7.3048     0.2927     3.1393 </r>
       <r>     7.3995    -0.0045     3.1389 </r>
       <r>     7.4942     0.0000     3.1389 </r>
       <r>     7.5890     0.0000     3.1389 </r>
       <r>     7.6837    -0.0047     3.1384 </r>
       <r>     7.7784     0.3044     3.1673 </r>
       <r>     7.8732     1.0644     3.2681 </r>
       <r>     7.9679     1.0185     3.3646 </r>
       <r>     8.0626    -0.0504     3.3598 </r>
       <r>     8.1574     0.3760     3.3954 </r>
       <r>     8.2521     0.0244     3.3977 </r>
       <r>     8.3468     0.1494     3.4119 </r>
       <r>     8.4415     1.1376     3.5197 </r>
       <r>     8.5363     1.7274     3.6833 </r>
       <r>     8.6310     1.1358     3.7909 </r>
       <r>     8.7257    -0.0406     3.7870 </r>
       <r>     8.8205    -0.0001     3.7870 </r>
       <r>     8.9152    -0.0146     3.7857 </r>
       <r>     9.0099     0.5335     3.8362 </r>
       <r>     9.1047     0.2262     3.8576 </r>
       <r>     9.1994     1.1373     3.9654 </r>
       <r>     9.2941     0.0538     3.9705 </r>
       <r>     9.3888     0.5465     4.0222 </r>
       <r>     9.4836     0.0555     4.0275 </r>
       <r>     9.5783     0.1392     4.0407 </r>
       <r>     9.6730     1.0059     4.1360 </r>
       <r>     9.7678     1.2051     4.2501 </r>
       <r>     9.8625     0.8692     4.3325 </r>
       <r>     9.9572     1.2555     4.4514 </r>
       <r>    10.0520     1.2068     4.5657 </r>
       <r>    10.1467     2.0522     4.7601 </r>
       <r>    10.2414     0.8511     4.8407 </r>
       <r>    10.3361    -0.0119     4.8396 </r>
       <r>    10.4309     0.9654     4.9311 </r>
       <r>    10.5256     0.6285     4.9906 </r>
       <r>    10.6203     0.8058     5.0669 </r>
       <r>    10.7151    -0.0224     5.0648 </r>
       <r>    10.8098     0.0000     5.0648 </r>
       <r>    10.9045     0.0000     5.0648 </r>
       <r>    10.9993     0.0000     5.0648 </r>
       <r>    11.0940     0.0000     5.0648 </r>
       <r>    11.1887    -0.0003     5.0648 </r>
       <r>    11.2834    -0.0068     5.0641 </r>
       <r>    11.3782     1.4022     5.1970 </r>
       <r>    11.4729     3.1337     5.4938 </r>
       <r>    11.5676     0.4674     5.5381 </r>
       <r>    11.6624    -0.0112     5.5370 </r>
       <r>    11.7571    -0.0010     5.5369 </r>
       <r>    11.8518     0.0589     5.5425 </r>
       <r>    11.9466     1.1683     5.6532 </r>
       <r>    12.0413     0.3334     5.6848 </r>
       <r>    12.1360     0.0044     5.6852 </r>
       <r>    12.2307    -0.0002     5.6852 </r>
       <r>    12.3255     0.0000     5.6852 </r>
       <r>    12.4202     0.0000     5.6852 </r>
       <r>    12.5149     0.0000     5.6852 </r>
       <r>    12.6097     0.0000     5.6852 </r>
       <r>    12.7044     0.0000     5.6852 </r>
       <r>    12.7991     0.0000     5.6852 </r>
       <r>    12.8938     0.0000     5.6852 </r>
       <r>    12.9886     0.0000     5.6852 </r>
       <r>    13.0833     0.0000     5.6852 </r>
       <r>    13.1780     0.0000     5.6852 </r>
       <r>    13.2728     0.0000     5.6852 </r>
       <r>    13.3675     0.0000     5.6852 </r>
       <r>    13.4622     0.0000     5.6852 </r>
       <r>    13.5570     0.0000     5.6852 </r>
       <r>    13.6517    -0.0128     5.6840 </r>
       <r>    13.7464     0.4331     5.7250 </r>
       <r>    13.8411     0.1689     5.7410 </r>
       <r>    13.9359    -0.0027     5.7407 </r>
       <r>    14.0306     0.0000     5.7407 </r>
       <r>    14.1253    -0.0018     5.7406 </r>
       <r>    14.2201     0.1318     5.7531 </r>
       <r>    14.3148     1.0819     5.8555 </r>
       <r>    14.4095    -0.0392     5.8518 </r>
       <r>    14.5043    -0.0126     5.8506 </r>
       <r>    14.5990     1.2149     5.9657 </r>
       <r>    14.6937    -0.0289     5.9630 </r>
       <r>    14.7884    -0.0143     5.9616 </r>
       <r>    14.8832     0.3653     5.9962 </r>
       <r>    14.9779     1.7364     6.1607 </r>
       <r>    15.0726     0.6663     6.2238 </r>
       <r>    15.1674    -0.0171     6.2222 </r>
       <r>    15.2621    -0.0202     6.2203 </r>
       <r>    15.3568     0.5551     6.2729 </r>
       <r>    15.4516     0.0523     6.2778 </r>
       <r>    15.5463    -0.0008     6.2778 </r>
       <r>    15.6410     0.0000     6.2778 </r>
       <r>    15.7357     0.0000     6.2778 </r>
       <r>    15.8305    -0.0017     6.2776 </r>
       <r>    15.9252     0.1188     6.2889 </r>
       <r>    16.0199     0.6888     6.3541 </r>
       <r>    16.1147    -0.0239     6.3519 </r>
       <r>    16.2094    -0.0109     6.3508 </r>
       <r>    16.3041     0.3996     6.3887 </r>
       <r>    16.3989     0.2012     6.4077 </r>
       <r>    16.4936    -0.0035     6.4074 </r>
       <r>    16.5883     0.0000     6.4074 </r>
       <r>    16.6830     0.0000     6.4074 </r>
       <r>    16.7778     0.0000     6.4074 </r>
       <r>    16.8725     0.0000     6.4074 </r>
       <r>    16.9672    -0.0049     6.4069 </r>
       <r>    17.0620     0.3167     6.4369 </r>
       <r>    17.1567     0.8879     6.5211 </r>
       <r>    17.2514    -0.0268     6.5185 </r>
       <r>    17.3462     0.0000     6.5185 </r>
       <r>    17.4409    -0.0282     6.5158 </r>
       <r>    17.5356     0.9109     6.6021 </r>
       <r>    17.6303     0.2815     6.6288 </r>
       <r>    17.7251     0.6511     6.6905 </r>
       <r>    17.8198     0.8830     6.7741 </r>
       <r>    17.9145     0.5382     6.8251 </r>
       <r>    18.0093    -0.0110     6.8241 </r>
       <r>    18.1040     0.0000     6.8241 </r>
       <r>    18.1987     0.0000     6.8241 </r>
       <r>    18.2935     0.0000     6.8241 </r>
       <r>    18.3882     0.0000     6.8241 </r>
       <r>    18.4829    -0.0012     6.8240 </r>
       <r>    18.5776    -0.0076     6.8232 </r>
       <r>    18.6724     3.3166     7.1374 </r>
       <r>    18.7671     0.5390     7.1885 </r>
       <r>    18.8618     0.8709     7.2710 </r>
       <r>    18.9566    -0.0260     7.2685 </r>
       <r>    19.0513     0.0000     7.2685 </r>
       <r>    19.1460     0.0000     7.2685 </r>
       <r>    19.2408    -0.0282     7.2659 </r>
       <r>    19.3355     0.9100     7.3521 </r>
       <r>    19.4302     0.0378     7.3556 </r>
       <r>    19.5249     9.1704     8.2243 </r>
       <r>    19.6197     1.6517     8.3808 </r>
       <r>    19.7144     0.1885     8.3987 </r>
       <r>    19.8091     0.0142     8.4000 </r>
       <r>    19.9039     1.1925     8.5130 </r>
       <r>    19.9986    -0.0734     8.5060 </r>
       <r>    20.0933     1.0058     8.6013 </r>
       <r>    20.1881     0.2041     8.6206 </r>
       <r>    20.2828    -0.0029     8.6204 </r>
       <r>    20.3775     0.0000     8.6204 </r>
       <r>    20.4722     0.0000     8.6204 </r>
       <r>    20.5670     0.0000     8.6204 </r>
       <r>    20.6617     0.0000     8.6204 </r>
       <r>    20.7564     0.0000     8.6204 </r>
       <r>    20.8512     0.0000     8.6204 </r>
       <r>    20.9459     0.0000     8.6204 </r>
       <r>    21.0406    -0.0096     8.6195 </r>
       <r>    21.1354     0.2844     8.6464 </r>
       <r>    21.2301     0.3651     8.6810 </r>
       <r>    21.3248     0.3314     8.7124 </r>
       <r>    21.4195     0.7341     8.7819 </r>
       <r>    21.5143     0.4533     8.8249 </r>
       <r>    21.6090    -0.0083     8.8241 </r>
       <r>    21.7037     0.0000     8.8241 </r>
       <r>    21.7985     0.0000     8.8241 </r>
       <r>    21.8932    -0.0014     8.8239 </r>
       <r>    21.9879     0.0985     8.8333 </r>
       <r>    22.0827     1.1027     8.9377 </r>
       <r>    22.1774     0.3367     8.9696 </r>
       <r>    22.2721     0.0278     8.9723 </r>
       <r>    22.3668    -0.0004     8.9722 </r>
       <r>    22.4616     0.0000     8.9722 </r>
       <r>    22.5563     0.0000     8.9722 </r>
       <r>    22.6510     0.0000     8.9722 </r>
       <r>    22.7458     0.0000     8.9722 </r>
       <r>    22.8405     0.0000     8.9722 </r>
       <r>    22.9352     0.0000     8.9722 </r>
       <r>    23.0300     0.0000     8.9722 </r>
       <r>    23.1247     0.0000     8.9722 </r>
       <r>    23.2194     0.0000     8.9722 </r>
       <r>    23.3141     0.0000     8.9722 </r>
       <r>    23.4089     0.0000     8.9722 </r>
       <r>    23.5036     0.0000     8.9722 </r>
       <r>    23.5983     0.0000     8.9722 </r>
       <r>    23.6931     0.0000     8.9722 </r>
       <r>    23.7878    -0.0004     8.9722 </r>
       <r>    23.8825     0.0252     8.9746 </r>
       <r>    23.9773     0.2785     9.0010 </r>
       <r>    24.0720    -0.0101     9.0000 </r>
       <r>    24.1667     0.0000     9.0000 </r>
       <r>    24.2614     0.0000     9.0000 </r>
       <r>    24.3562     0.0000     9.0000 </r>
       <r>    24.4509     0.0000     9.0000 </r>
       <r>    24.5456     0.0000     9.0000 </r>
       <r>    24.6404     0.0000     9.0000 </r>
       <r>    24.7351     0.0000     9.0000 </r>
       <r>    24.8298     0.0000     9.0000 </r>
       <r>    24.9246     0.0000     9.0000 </r>
       <r>    25.0193     0.0000     9.0000 </r>
       <r>    25.1140     0.0000     9.0000 </r>
       <r>    25.2087     0.0000     9.0000 </r>
       <r>    25.3035     0.0000     9.0000 </r>
      </set>
      <set comment="spin 2">
       <r>    -3.1155     0.0000     0.0000 </r>
       <r>    -3.0208     0.0000     0.0000 </r>
       <r>    -2.9260     0.0000     0.0000 </r>
       <r>    -2.8313     0.0000     0.0000 </r>
       <r>    -2.7366     0.0000     0.0000 </r>
       <r>    -2.6419     0.0000     0.0000 </r>
       <r>    -2.5471     0.0000     0.0000 </r>
       <r>    -2.4524     0.0000     0.0000 </r>
       <r>    -2.3577     0.0000     0.0000 </r>
       <r>    -2.2629     0.0000     0.0000 </r>
       <r>    -2.1682     0.0000     0.0000 </r>
       <r>    -2.0735     0.0000     0.0000 </r>
       <r>    -1.9787     0.0000     0.0000 </r>
       <r>    -1.8840     0.0000     0.0000 </r>
       <r>    -1.7893    -0.0074    -0.0007 </r>
       <r>    -1.6946     0.2339     0.0215 </r>
       <r>    -1.5998     0.0678     0.0279 </r>
       <r>    -1.5051    -0.0010     0.0278 </r>
       <r>    -1.4104     0.0000     0.0278 </r>
       <r>    -1.3156     0.0000     0.0278 </r>
       <r>    -1.2209     0.0000     0.0278 </r>
       <r>    -1.1262     0.0000     0.0278 </r>
       <r>    -1.0315     0.0000     0.0278 </r>
       <r>    -0.9367     0.0000     0.0278 </r>
       <r>    -0.8420     0.0000     0.0278 </r>
       <r>    -0.7473    -0.0130     0.0265 </r>
       <r>    -0.6525     0.3982     0.0643 </r>
       <r>    -0.5578     0.0060     0.0648 </r>
       <r>    -0.4631    -0.0002     0.0648 </r>
       <r>    -0.3683     0.0000     0.0648 </r>
       <r>    -0.2736     0.0000     0.0648 </r>
       <r>    -0.1789     0.0000     0.0648 </r>
       <r>    -0.0842     0.0000     0.0648 </r>
       <r>     0.0106    -0.0001     0.0648 </r>
       <r>     0.1053    -0.0414     0.0609 </r>
       <r>     0.2000     1.1642     0.1712 </r>
       <r>     0.2948     0.0511     0.1760 </r>
       <r>     0.3895    -0.0009     0.1759 </r>
       <r>     0.4842     0.0000     0.1759 </r>
       <r>     0.5790     0.0000     0.1759 </r>
       <r>     0.6737     0.0000     0.1759 </r>
       <r>     0.7684     0.0000     0.1759 </r>
       <r>     0.8631     0.0000     0.1759 </r>
       <r>     0.9579     0.0000     0.1759 </r>
       <r>     1.0526     0.0000     0.1759 </r>
       <r>     1.1473     0.0000     0.1759 </r>
       <r>     1.2421     0.0000     0.1759 </r>
       <r>     1.3368    -0.0296     0.1731 </r>
       <r>     1.4315     0.8949     0.2579 </r>
       <r>     1.5263     1.3440     0.3852 </r>
       <r>     1.6210     0.1383     0.3983 </r>
       <r>     1.7157     0.0103     0.3993 </r>
       <r>     1.8104     0.2709     0.4250 </r>
       <r>     1.9052     0.5749     0.4794 </r>
       <r>     1.9999    -0.0069     0.4788 </r>
       <r>     2.0946     1.2142     0.5938 </r>
       <r>     2.1894    -0.0005     0.5937 </r>
       <r>     2.2841     0.3560     0.6275 </r>
       <r>     2.3788     0.2259     0.6489 </r>
       <r>     2.4736    -0.0076     0.6481 </r>
       <r>     2.5683    -0.0008     0.6481 </r>
       <r>     2.6630     0.0226     0.6502 </r>
       <r>     2.7577     1.8598     0.8264 </r>
       <r>     2.8525     0.4591     0.8699 </r>
       <r>     2.9472     0.5209     0.9192 </r>
       <r>     3.0419     0.9082     1.0053 </r>
       <r>     3.1367     0.5419     1.0566 </r>
       <r>     3.2314    -0.0111     1.0556 </r>
       <r>     3.3261     0.0000     1.0556 </r>
       <r>     3.4209     0.0000     1.0556 </r>
       <r>     3.5156    -0.0403     1.0517 </r>
       <r>     3.6103     1.1086     1.1568 </r>
       <r>     3.7050     0.1062     1.1668 </r>
       <r>     3.7998    -0.0015     1.1667 </r>
       <r>     3.8945    -0.0097     1.1657 </r>
       <r>     3.9892     0.3762     1.2014 </r>
       <r>     4.0840     0.1825     1.2187 </r>
       <r>     4.1787     1.0946     1.3224 </r>
       <r>     4.2734     1.3732     1.4524 </r>
       <r>     4.3682     1.1723     1.5635 </r>
       <r>     4.4629     0.6189     1.6221 </r>
       <r>     4.5576     2.0013     1.8117 </r>
       <r>     4.6523     0.0040     1.8121 </r>
       <r>     4.7471     1.5998     1.9636 </r>
       <r>     4.8418     1.4612     2.1021 </r>
       <r>     4.9365     0.7006     2.1684 </r>
       <r>     5.0313    -0.0186     2.1667 </r>
       <r>     5.1260    -0.0001     2.1667 </r>
       <r>     5.2207    -0.0403     2.1628 </r>
       <r>     5.3155     1.4150     2.2969 </r>
       <r>     5.4102     2.3922     2.5235 </r>
       <r>     5.5049     0.5464     2.5752 </r>
       <r>     5.5996    -0.0208     2.5733 </r>
       <r>     5.6944     0.4589     2.6167 </r>
       <r>     5.7891     0.7414     2.6870 </r>
       <r>     5.8838    -0.0190     2.6852 </r>
       <r>     5.9786     0.0000     2.6852 </r>
       <r>     6.0733    -0.0095     2.6843 </r>
       <r>     6.1680     0.3454     2.7170 </r>
       <r>     6.2628     1.2374     2.8342 </r>
       <r>     6.3575    -0.0092     2.8334 </r>
       <r>     6.4522     0.0039     2.8337 </r>
       <r>     6.5469     0.2903     2.8612 </r>
       <r>     6.6417     0.4373     2.9027 </r>
       <r>     6.7364     1.2123     3.0175 </r>
       <r>     6.8311     0.1104     3.0280 </r>
       <r>     6.9259    -0.0019     3.0278 </r>
       <r>     7.0206     0.0000     3.0278 </r>
       <r>     7.1153     0.0000     3.0278 </r>
       <r>     7.2101    -0.0195     3.0259 </r>
       <r>     7.3048     0.7518     3.0971 </r>
       <r>     7.3995     0.4488     3.1397 </r>
       <r>     7.4942    -0.0081     3.1389 </r>
       <r>     7.5890     0.0000     3.1389 </r>
       <r>     7.6837     0.0000     3.1389 </r>
       <r>     7.7784    -0.0067     3.1383 </r>
       <r>     7.8732     0.3928     3.1755 </r>
       <r>     7.9679     0.9554     3.2660 </r>
       <r>     8.0626     1.0423     3.3647 </r>
       <r>     8.1574    -0.0487     3.3601 </r>
       <r>     8.2521     0.3267     3.3910 </r>
       <r>     8.3468     0.0671     3.3974 </r>
       <r>     8.4415     0.2229     3.4185 </r>
       <r>     8.5363     1.0252     3.5156 </r>
       <r>     8.6310     1.7685     3.6832 </r>
       <r>     8.7257     1.1387     3.7910 </r>
       <r>     8.8205    -0.0420     3.7870 </r>
       <r>     8.9152    -0.0001     3.7870 </r>
       <r>     9.0099    -0.0258     3.7846 </r>
       <r>     9.1047     0.7190     3.8527 </r>
       <r>     9.1994     0.0579     3.8582 </r>
       <r>     9.2941     1.2108     3.9729 </r>
       <r>     9.3888    -0.0260     3.9704 </r>
       <r>     9.4836     0.5975     4.0270 </r>
       <r>     9.5783    -0.0012     4.0269 </r>
       <r>     9.6730     0.2252     4.0482 </r>
       <r>     9.7678     1.1044     4.1529 </r>
       <r>     9.8625     1.2569     4.2719 </r>
       <r>     9.9572     0.6662     4.3350 </r>
       <r>    10.0520     1.4736     4.4746 </r>
       <r>    10.1467     1.2045     4.5887 </r>
       <r>    10.2414     1.9065     4.7693 </r>
       <r>    10.3361     0.7873     4.8439 </r>
       <r>    10.4309    -0.0554     4.8387 </r>
       <r>    10.5256     1.1510     4.9477 </r>
       <r>    10.6203     0.5352     4.9984 </r>
       <r>    10.7151     0.7191     5.0665 </r>
       <r>    10.8098    -0.0180     5.0648 </r>
       <r>    10.9045     0.0000     5.0648 </r>
       <r>    10.9993     0.0000     5.0648 </r>
       <r>    11.0940     0.0000     5.0648 </r>
       <r>    11.1887     0.0000     5.0648 </r>
       <r>    11.2834    -0.0004     5.0648 </r>
       <r>    11.3782     0.0001     5.0648 </r>
       <r>    11.4729     1.2763     5.1857 </r>
       <r>    11.5676     3.2734     5.4958 </r>
       <r>    11.6624     0.4462     5.5380 </r>
       <r>    11.7571    -0.0107     5.5370 </r>
       <r>    11.8518    -0.0011     5.5369 </r>
       <r>    11.9466     0.0719     5.5437 </r>
       <r>    12.0413     1.1341     5.6512 </r>
       <r>    12.1360     0.3073     5.6803 </r>
       <r>    12.2307     0.0531     5.6853 </r>
       <r>    12.3255    -0.0013     5.6852 </r>
       <r>    12.4202     0.0000     5.6852 </r>
       <r>    12.5149     0.0000     5.6852 </r>
       <r>    12.6097     0.0000     5.6852 </r>
       <r>    12.7044     0.0000     5.6852 </r>
       <r>    12.7991     0.0000     5.6852 </r>
       <r>    12.8938     0.0000     5.6852 </r>
       <r>    12.9886     0.0000     5.6852 </r>
       <r>    13.0833     0.0000     5.6852 </r>
       <r>    13.1780     0.0000     5.6852 </r>
       <r>    13.2728     0.0000     5.6852 </r>
       <r>    13.3675     0.0000     5.6852 </r>
       <r>    13.4622     0.0000     5.6852 </r>
       <r>    13.5570     0.0000     5.6852 </r>
       <r>    13.6517     0.0000     5.6852 </r>
       <r>    13.7464    -0.0163     5.6836 </r>
       <r>    13.8411     0.4909     5.7301 </r>
       <r>    13.9359     0.1135     5.7409 </r>
       <r>    14.0306    -0.0016     5.7407 </r>
       <r>    14.1253     0.0000     5.7407 </r>
       <r>    14.2201    -0.0004     5.7407 </r>
       <r>    14.3148    -0.0079     5.7400 </r>
       <r>    14.4095     1.2128     5.8548 </r>
       <r>    14.5043    -0.0320     5.8518 </r>
       <r>    14.5990     0.0196     5.8537 </r>
       <r>    14.6937     1.1930     5.9667 </r>
       <r>    14.7884    -0.0392     5.9630 </r>
       <r>    14.8832    -0.0134     5.9617 </r>
       <r>    14.9779     0.3657     5.9963 </r>
       <r>    15.0726     1.5990     6.1478 </r>
       <r>    15.1674     0.8101     6.2246 </r>
       <r>    15.2621    -0.0247     6.2222 </r>
       <r>    15.3568    -0.0172     6.2206 </r>
       <r>    15.4516     0.5046     6.2684 </r>
       <r>    15.5463     0.1005     6.2779 </r>
       <r>    15.6410    -0.0014     6.2778 </r>
       <r>    15.7357     0.0000     6.2778 </r>
       <r>    15.8305     0.0000     6.2778 </r>
       <r>    15.9252    -0.0010     6.2777 </r>
       <r>    16.0199     0.0673     6.2841 </r>
       <r>    16.1147     0.7426     6.3544 </r>
       <r>    16.2094    -0.0270     6.3519 </r>
       <r>    16.3041    -0.0056     6.3513 </r>
       <r>    16.3989     0.2737     6.3773 </r>
       <r>    16.4936     0.3258     6.4081 </r>
       <r>    16.5883    -0.0075     6.4074 </r>
       <r>    16.6830     0.0000     6.4074 </r>
       <r>    16.7778     0.0000     6.4074 </r>
       <r>    16.8725     0.0000     6.4074 </r>
       <r>    16.9672     0.0000     6.4074 </r>
       <r>    17.0620    -0.0057     6.4069 </r>
       <r>    17.1567     0.3517     6.4402 </r>
       <r>    17.2514     0.8516     6.5209 </r>
       <r>    17.3462    -0.0247     6.5185 </r>
       <r>    17.4409     0.0000     6.5185 </r>
       <r>    17.5356    -0.0291     6.5158 </r>
       <r>    17.6303     0.9263     6.6035 </r>
       <r>    17.7251     0.2785     6.6299 </r>
       <r>    17.8198     0.5712     6.6840 </r>
       <r>    17.9145     0.9163     6.7708 </r>
       <r>    18.0093     0.5747     6.8252 </r>
       <r>    18.1040    -0.0123     6.8241 </r>
       <r>    18.1987     0.0000     6.8241 </r>
       <r>    18.2935     0.0000     6.8241 </r>
       <r>    18.3882     0.0000     6.8241 </r>
       <r>    18.4829     0.0000     6.8241 </r>
       <r>    18.5776    -0.0020     6.8239 </r>
       <r>    18.6724     0.0723     6.8307 </r>
       <r>    18.7671     3.1322     7.1274 </r>
       <r>    18.8618     0.6580     7.1898 </r>
       <r>    18.9566     0.8566     7.2709 </r>
       <r>    19.0513    -0.0253     7.2685 </r>
       <r>    19.1460     0.0000     7.2685 </r>
       <r>    19.2408     0.0000     7.2685 </r>
       <r>    19.3355    -0.0221     7.2664 </r>
       <r>    19.4302     0.7773     7.3401 </r>
       <r>    19.5249     1.9433     7.5241 </r>
       <r>    19.6197     9.2504     8.4004 </r>
       <r>    19.7144    -0.1884     8.3826 </r>
       <r>    19.8091     0.1681     8.3985 </r>
       <r>    19.9039    -0.0413     8.3946 </r>
       <r>    19.9986     1.2011     8.5084 </r>
       <r>    20.0933    -0.0170     8.5068 </r>
       <r>    20.1881     0.8873     8.5908 </r>
       <r>    20.2828     0.3168     8.6208 </r>
       <r>    20.3775    -0.0049     8.6204 </r>
       <r>    20.4722     0.0000     8.6204 </r>
       <r>    20.5670     0.0000     8.6204 </r>
       <r>    20.6617     0.0000     8.6204 </r>
       <r>    20.7564     0.0000     8.6204 </r>
       <r>    20.8512     0.0000     8.6204 </r>
       <r>    20.9459     0.0000     8.6204 </r>
       <r>    21.0406     0.0000     8.6204 </r>
       <r>    21.1354    -0.0054     8.6199 </r>
       <r>    21.2301     0.1887     8.6377 </r>
       <r>    21.3248     0.3953     8.6752 </r>
       <r>    21.4195     0.3779     8.7110 </r>
       <r>    21.5143     0.8581     8.7923 </r>
       <r>    21.6090     0.3412     8.8246 </r>
       <r>    21.7037    -0.0055     8.8241 </r>
       <r>    21.7985     0.0000     8.8241 </r>
       <r>    21.8932     0.0000     8.8241 </r>
       <r>    21.9879    -0.0012     8.8240 </r>
       <r>    22.0827     0.0809     8.8316 </r>
       <r>    22.1774     1.1222     8.9379 </r>
       <r>    22.2721     0.3088     8.9672 </r>
       <r>    22.3668     0.0540     8.9723 </r>
       <r>    22.4616    -0.0008     8.9722 </r>
       <r>    22.5563     0.0000     8.9722 </r>
       <r>    22.6510     0.0000     8.9722 </r>
       <r>    22.7458     0.0000     8.9722 </r>
       <r>    22.8405     0.0000     8.9722 </r>
       <r>    22.9352     0.0000     8.9722 </r>
       <r>    23.0300     0.0000     8.9722 </r>
       <r>    23.1247     0.0000     8.9722 </r>
       <r>    23.2194     0.0000     8.9722 </r>
       <r>    23.3141     0.0000     8.9722 </r>
       <r>    23.4089     0.0000     8.9722 </r>
       <r>    23.5036     0.0000     8.9722 </r>
       <r>    23.5983     0.0000     8.9722 </r>
       <r>    23.6931     0.0000     8.9722 </r>
       <r>    23.7878     0.0000     8.9722 </r>
       <r>    23.8825    -0.0002     8.9722 </r>
       <r>    23.9773     0.0131     8.9734 </r>
       <r>    24.0720     0.2907     9.0010 </r>
       <r>    24.1667    -0.0104     9.0000 </r>
       <r>    24.2614     0.0000     9.0000 </r>
       <r>    24.3562     0.0000     9.0000 </r>
       <r>    24.4509     0.0000     9.0000 </r>
       <r>    24.5456     0.0000     9.0000 </r>
       <r>    24.6404     0.0000     9.0000 </r>
       <r>    24.7351     0.0000     9.0000 </r>
       <r>    24.8298     0.0000     9.0000 </r>
       <r>    24.9246     0.0000     9.0000 </r>
       <r>    25.0193     0.0000     9.0000 </r>
       <r>    25.1140     0.0000     9.0000 </r>
       <r>    25.2087     0.0000     9.0000 </r>
       <r>    25.3035     0.0000     9.0000 </r>
      </set>
     </set>
    </array>
   </total>
   <partial>
    <array>
     <dimension dim="1">gridpoints</dimension>
     <dimension dim="2">spin</dimension>
     <dimension dim="3">ion</dimension>
     <field>energy</field>
     <field>  s</field>
     <field> py</field>
     <field> pz</field>
     <field> px</field>
     <field>dxy</field>
     <field>dyz</field>
     <field>dz2</field>
     <field>dxz</field>
     <field>dx2</field>
     <set>
      <set comment="ion 1">
       <set comment="spin 1">
        <r>    -3.1155     0.0000     0.0000     0.0000     0.0000     0.0000     0.0000     0.0000     0.0000     0.0000 </r>
        <r>    -3.0208     0.0000     0.0000     0.0000     0.0000     0.0000     0.0000     0.0000     0.0000     0.0000 </r>
        <r>    -2.9260     0.0000     0.0000     0.0000     0.0000     0.0000     0.0000     0.0000     0.0000     0.0000 </r>
        <r>    -2.8313     0.0000     0.0000     0.0000     0.0000     0.0000     0.0000     0.0000     0.0000     0.0000 </r>
        <r>    -2.7366     0.0000     0.0000     0.0000     0.0000     0.0000     0.0000     0.0000     0.0000     0.0000 </r>
        <r>    -2.6419     0.0000     0.0000     0.0000     0.0000     0.0000     0.0000     0.0000     0.0000     0.0000 </r>
        <r>    -2.5471     0.0000     0.0000     0.0000     0.0000     0.0000     0.0000     0.0000     0.0000     0.0000 </r>
        <r>    -2.4524     0.0000     0.0000     0.0000     0.0000     0.0000     0.0000     0.0000     0.0000     0.0000 </r>
        <r>    -2.3577     0.0000     0.0000     0.0000     0.0000     0.0000     0.0000     0.0000     0.0000     0.0000 </r>
        <r>    -2.2629     0.0000     0.0000     0.0000     0.0000     0.0000     0.0000     0.0000     0.0000     0.0000 </r>
        <r>    -2.1682     0.0000     0.0000     0.0000     0.0000     0.0000     0.0000     0.0000     0.0000     0.0000 </r>
        <r>    -2.0735     0.0000     0.0000     0.0000     0.0000     0.0000     0.0000     0.0000     0.0000     0.0000 </r>
        <r>    -1.9787     0.0000     0.0000     0.0000     0.0000     0.0000     0.0000     0.0000     0.0000     0.0000 </r>
        <r>    -1.8840    -0.0082     0.0000     0.0000    -0.0004     0.0000     0.0000     0.0000     0.0000     0.0000 </r>
        <r>    -1.7893     0.2296     0.0000     0.0000     0.0124     0.0000     0.0000     0.0001     0.0000     0.0004 </r>
        <r>    -1.6946     0.0104     0.0000     0.0000     0.0006     0.0000     0.0000     0.0000     0.0000     0.0000 </r>
        <r>    -1.5998    -0.0002     0.0000     0.0000     0.0000     0.0000     0.0000     0.0000     0.0000     0.0000 </r>
        <r>    -1.5051     0.0000     0.0000     0.0000     0.0000     0.0000     0.0000     0.0000     0.0000     0.0000 </r>
        <r>    -1.4104     0.0000     0.0000     0.0000     0.0000     0.0000     0.0000     0.0000     0.0000     0.0000 </r>
        <r>    -1.3156     0.0000     0.0000     0.0000     0.0000     0.0000     0.0000     0.0000     0.0000     0.0000 </r>
        <r>    -1.2209     0.0000     0.0000     0.0000     0.0000     0.0000     0.0000     0.0000     0.0000     0.0000 </r>
        <r>    -1.1262     0.0000     0.0000     0.0000     0.0000     0.0000     0.0000     0.0000     0.0000     0.0000 </r>
        <r>    -1.0315     0.0000     0.0000     0.0000     0.0000     0.0000     0.0000     0.0000     0.0000     0.0000 </r>
        <r>    -0.9367    -0.0001     0.0000     0.0000     0.0000     0.0000     0.0000     0.0000     0.0000     0.0000 </r>
        <r>    -0.8420     0.0048     0.0002     0.0002     0.0002     0.0001     0.0001     0.0000     0.0001     0.0000 </r>
        <r>    -0.7473     0.2865     0.0144     0.0144     0.0144     0.0032     0.0032     0.0000     0.0032     0.0000 </r>
        <r>    -0.6525    -0.0094    -0.0005    -0.0005    -0.0005    -0.0001    -0.0001     0.0000    -0.0001     0.0000 </r>
        <r>    -0.5578     0.0000     0.0000     0.0000     0.0000     0.0000     0.0000     0.0000     0.0000     0.0000 </r>
        <r>    -0.4631     0.0000     0.0000     0.0000     0.0000     0.0000     0.0000     0.0000     0.0000     0.0000 </r>
        <r>    -0.3683     0.0000     0.0000     0.0000     0.0000     0.0000     0.0000     0.0000     0.0000     0.0000 </r>
        <r>    -0.2736     0.0000     0.0000     0.0000     0.0000     0.0000     0.0000     0.0000     0.0000     0.0000 </r>
        <r>    -0.1789     0.0000     0.0000     0.0000     0.0000     0.0000     0.0000     0.0000     0.0000     0.0000 </r>
        <r>    -0.0842    -0.0002     0.0000     0.0000     0.0000     0.0000     0.0000     0.0000     0.0000     0.0000 </r>
        <r>     0.0106    -0.0058    -0.0002     0.0000    -0.0012    -0.0005     0.0000    -0.0002     0.0000    -0.0001 </r>
        <r>     0.1053     0.7692     0.0281     0.0000     0.1562     0.0674     0.0000     0.0238     0.0000     0.0121 </r>
        <r>     0.2000    -0.0195    -0.0007     0.0000    -0.0040    -0.0017     0.0000    -0.0006     0.0000    -0.0003 </r>
        <r>     0.2948    -0.0001     0.0000     0.0000     0.0000     0.0000     0.0000     0.0000     0.0000     0.0000 </r>
        <r>     0.3895     0.0000     0.0000     0.0000     0.0000     0.0000     0.0000     0.0000     0.0000     0.0000 </r>
        <r>     0.4842     0.0000     0.0000     0.0000     0.0000     0.0000     0.0000     0.0000     0.0000     0.0000 </r>
        <r>     0.5790     0.0000     0.0000     0.0000     0.0000     0.0000     0.0000     0.0000     0.0000     0.0000 </r>
        <r>     0.6737     0.0000     0.0000     0.0000     0.0000     0.0000     0.0000     0.0000     0.0000     0.0000 </r>
        <r>     0.7684     0.0000     0.0000     0.0000     0.0000     0.0000     0.0000     0.0000     0.0000     0.0000 </r>
        <r>     0.8631     0.0000     0.0000     0.0000     0.0000     0.0000     0.0000     0.0000     0.0000     0.0000 </r>
        <r>     0.9579     0.0000     0.0000     0.0000     0.0000     0.0000     0.0000     0.0000     0.0000     0.0000 </r>
        <r>     1.0526     0.0000     0.0000     0.0000     0.0000     0.0000     0.0000     0.0000     0.0000     0.0000 </r>
        <r>     1.1473     0.0000     0.0000     0.0000     0.0000     0.0000     0.0000     0.0000     0.0000     0.0000 </r>
        <r>     1.2421    -0.0197    -0.0024    -0.0024    -0.0016    -0.0003    -0.0090    -0.0006    -0.0002    -0.0017 </r>
        <r>     1.3368     0.5310     0.0675     0.0675     0.0421    -0.0081     0.2478     0.0075     0.0061     0.0459 </r>
        <r>     1.4315     0.4120     0.0048     0.0040     0.0598     0.4370     0.0147     0.2440     0.0004     0.0057 </r>
        <r>     1.5263     0.0045    -0.0001    -0.0001     0.0006     0.0061    -0.0002     0.0033     0.0000    -0.0001 </r>
        <r>     1.6210     0.0195     0.0000     0.0000     0.0121    -0.0002    -0.0001     0.0017     0.0000     0.0055 </r>
        <r>     1.7157     0.1122     0.0000     0.0000     0.0700     0.0000    -0.0036     0.0103     0.0000     0.0309 </r>
        <r>     1.8104     0.1493     0.0000     0.0000     0.0252    -0.0001     0.2868     0.0278    -0.0001     0.0833 </r>
        <r>     1.9052     0.0122     0.0005     0.0005     0.0060     0.0041    -0.0060     0.0005     0.0041     0.0015 </r>
        <r>     1.9999     0.4620     0.0133     0.0133     0.1958     0.1202     0.0096     0.0334     0.1202     0.1006 </r>
        <r>     2.0946    -0.0161    -0.0005    -0.0005    -0.0069    -0.0042    -0.0003     0.0037    -0.0042    -0.0023 </r>
        <r>     2.1894     0.0003     0.0000     0.0000     0.0034     0.0000     0.0000     0.2088     0.0000     0.1014 </r>
        <r>     2.2841     0.0014     0.0000     0.0000     0.0143     0.0000     0.0000     0.0438     0.0000     0.1492 </r>
        <r>     2.3788     0.0000     0.0000     0.0000    -0.0005     0.0000     0.0000    -0.0017     0.0000    -0.0050 </r>
        <r>     2.4736    -0.0004     0.0000    -0.0001     0.0000    -0.0008    -0.0001    -0.0006    -0.0001     0.0000 </r>
        <r>     2.5683     0.0252     0.0033     0.0044     0.0009     0.0528     0.0041     0.0306     0.0041    -0.0010 </r>
        <r>     2.6630     0.2776     0.0266     0.0308     0.1202     0.4597     0.0288     0.6544     0.0288     0.0369 </r>
        <r>     2.7577     0.0446     0.0004    -0.0015     0.0564     0.0320    -0.0011     0.2077    -0.0011     0.0167 </r>
        <r>     2.8525    -0.0069     0.0138     0.0153     0.0128    -0.0007    -0.0055     0.1954    -0.0055     0.2000 </r>
        <r>     2.9472     0.1825     0.0581     0.0144     0.0581     0.0902     0.2623     0.1396     0.2623     0.1082 </r>
        <r>     3.0419     0.0466     0.0126     0.0014     0.0126     0.0226     0.0665     0.0061     0.0665    -0.0019 </r>
        <r>     3.1367    -0.0007    -0.0002     0.0000    -0.0002    -0.0003    -0.0010    -0.0001    -0.0010     0.0000 </r>
        <r>     3.2314     0.0000     0.0000     0.0000     0.0000     0.0000     0.0000     0.0000     0.0000     0.0000 </r>
        <r>     3.3261     0.0000     0.0000     0.0000     0.0000     0.0000     0.0000     0.0000     0.0000     0.0000 </r>
        <r>     3.4209    -0.0007    -0.0022     0.0000    -0.0034    -0.0002     0.0000    -0.0059     0.0000    -0.0216 </r>
        <r>     3.5156     0.0184     0.0623     0.0000     0.0935     0.0045     0.0000     0.1626     0.0000     0.5980 </r>
        <r>     3.6103     0.0021     0.0072     0.0000     0.0108     0.0005     0.0000     0.0188     0.0000     0.0691 </r>
        <r>     3.7050     0.0000    -0.0001     0.0000    -0.0002     0.0000     0.0000    -0.0003     0.0000    -0.0010 </r>
        <r>     3.7998     0.0000    -0.0004    -0.0004     0.0000    -0.0089     0.0000     0.0000    -0.0089     0.0000 </r>
        <r>     3.8945     0.0000     0.0101     0.0101     0.0000     0.2548     0.0000     0.0000     0.2547     0.0000 </r>
        <r>     3.9892     0.0000    -0.0020     0.0016    -0.0036     0.0408    -0.0094     0.0000     0.0314    -0.0051 </r>
        <r>     4.0840     0.0000     0.1298    -0.0029     0.1319    -0.0091     0.3422    -0.0143     0.3351     0.1798 </r>
        <r>     4.1787     0.0000     0.0820     0.0824     0.0225     0.2274     0.0554     0.4118     0.2263     0.1366 </r>
        <r>     4.2734    -0.0001     0.0265     0.0263     0.0049     0.5775     0.0038     0.0319     0.5682     0.0107 </r>
        <r>     4.3682     0.0051     0.0035     0.0210     0.0030     0.0172     0.3963     0.0350     0.4421     0.0001 </r>
        <r>     4.4629     0.0213     0.0128     0.0593     0.0128     0.0067     0.5985     0.1445     0.6228    -0.0003 </r>
        <r>     4.5576    -0.0013    -0.0016    -0.0064    -0.0016    -0.0087    -0.0167     0.0484    -0.0172     0.0160 </r>
        <r>     4.6523     0.0483     0.0814     0.3421     0.0831     0.6481     0.0086     0.1535     0.0124     0.1644 </r>
        <r>     4.7471     0.0253     0.2407     0.0693     0.1710     0.0439     0.2573     0.0207     0.0961     0.4748 </r>
        <r>     4.8418     0.0202     0.0537     0.0588     0.0004     0.0445     0.1669     0.0192     0.0434     0.0449 </r>
        <r>     4.9365    -0.0004    -0.0012    -0.0012    -0.0001    -0.0009    -0.0033    -0.0004    -0.0009    -0.0011 </r>
        <r>     5.0313     0.0000     0.0000     0.0000     0.0000     0.0000    -0.0003     0.0000    -0.0004     0.0000 </r>
        <r>     5.1260     0.0000    -0.0001     0.0003    -0.0002    -0.0033     0.0078    -0.0003     0.0136    -0.0003 </r>
        <r>     5.2207     0.0000     0.0026     0.0190     0.0066     0.1313     0.6256     0.0072     0.8474     0.0117 </r>
        <r>     5.3155     0.0163     0.0811     0.0289     0.1626     0.7010     0.6085     0.1975     0.2797     0.0641 </r>
        <r>     5.4102     0.0044     0.0280    -0.0010     0.0119     0.2141    -0.0202     0.1007    -0.0090     0.0166 </r>
        <r>     5.5049    -0.0006    -0.0032     0.0000    -0.0030    -0.0044     0.0000    -0.0030     0.0000    -0.0023 </r>
        <r>     5.5996     0.0240     0.1326     0.0000     0.1335     0.0223     0.0000     0.0611     0.0000     0.0966 </r>
        <r>     5.6944     0.0280     0.1553     0.0000     0.1563     0.0261     0.0000     0.0716     0.0000     0.1131 </r>
        <r>     5.7891    -0.0006    -0.0036     0.0000    -0.0036    -0.0006     0.0000    -0.0016     0.0000    -0.0026 </r>
        <r>     5.8838     0.0000     0.0000     0.0000     0.0000     0.0000     0.0000     0.0000     0.0000     0.0000 </r>
        <r>     5.9786    -0.0001    -0.0002    -0.0002     0.0000    -0.0087    -0.0001     0.0000    -0.0087     0.0000 </r>
        <r>     6.0733     0.0051     0.0034     0.0034     0.0012     0.2613     0.0084     0.0000     0.2613     0.0000 </r>
        <r>     6.1680     0.0517     0.2180     0.2180     0.0121     0.1943     0.0856     0.0000     0.1943     0.0000 </r>
        <r>     6.2628    -0.0019    -0.0058    -0.0058    -0.0004    -0.0053    -0.0037     0.0000    -0.0053     0.0000 </r>
        <r>     6.3575     0.0000     0.0000     0.0000     0.0000     0.0000     0.0398     0.0000     0.0000     0.0000 </r>
        <r>     6.4522     0.0000     0.0000    -0.0019     0.0000     0.0000     0.2685     0.0000    -0.0098     0.0000 </r>
        <r>     6.5469     0.0000    -0.0011     0.0724     0.0000    -0.0086     0.2313     0.0000     0.3780     0.0000 </r>
        <r>     6.6417     0.0000     0.0315     0.0778     0.0000     0.2376     0.1518     0.0000     0.4812     0.0000 </r>
        <r>     6.7364     0.0000     0.0022     0.0014     0.0000     0.0167    -0.0028     0.0000     0.0122     0.0000 </r>
        <r>     6.8311     0.0000     0.0000     0.0000     0.0000    -0.0003     0.0000     0.0000    -0.0003     0.0000 </r>
        <r>     6.9259     0.0000     0.0000     0.0000     0.0000     0.0000     0.0000     0.0000     0.0000     0.0000 </r>
        <r>     7.0206     0.0000     0.0000     0.0000     0.0000     0.0000     0.0000     0.0000     0.0000     0.0000 </r>
        <r>     7.1153    -0.0033    -0.0023     0.0000     0.0000    -0.0141     0.0000    -0.0051     0.0000    -0.0007 </r>
        <r>     7.2101     0.1066     0.0731     0.0000     0.0011     0.4549     0.0000     0.1656     0.0000     0.0228 </r>
        <r>     7.3048     0.0342     0.0234     0.0000     0.0004     0.1459     0.0000     0.0531     0.0000     0.0073 </r>
        <r>     7.3995    -0.0005    -0.0004     0.0000     0.0000    -0.0022     0.0000    -0.0008     0.0000    -0.0001 </r>
        <r>     7.4942     0.0000     0.0000     0.0000     0.0000     0.0000     0.0000     0.0000     0.0000     0.0000 </r>
        <r>     7.5890     0.0000     0.0000     0.0000     0.0000     0.0000     0.0000     0.0000     0.0000     0.0000 </r>
        <r>     7.6837     0.0000    -0.0001     0.0000    -0.0001    -0.0015     0.0000    -0.0019     0.0000    -0.0007 </r>
        <r>     7.7784     0.0000     0.0032     0.0000     0.0032     0.0997     0.0000     0.1242    -0.0006     0.0446 </r>
        <r>     7.8732     0.0001     0.0132     0.0036     0.0095     0.3365     0.0000     0.4099     0.0426     0.1459 </r>
        <r>     7.9679     0.0000     0.0222     0.0225    -0.0003     0.2596     0.0000     0.2677     0.2686     0.0889 </r>
        <r>     8.0626     0.0000    -0.0011    -0.0011    -0.0003    -0.0136    -0.0042    -0.0098    -0.0136    -0.0033 </r>
        <r>     8.1574     0.0009     0.0082     0.0082     0.0082     0.1150     0.1150     0.0000     0.1150     0.0000 </r>
        <r>     8.2521     0.0001     0.0006     0.0006     0.0006     0.0089     0.0089    -0.0031     0.0089    -0.0010 </r>
        <r>     8.3468    -0.0023    -0.0003    -0.0006    -0.0003    -0.0090    -0.0031     0.1050    -0.0029     0.0399 </r>
[...]
       </set>
       <set comment="band 6">
        <r>  0.4210  0.0494  0.0494  0.0494  0.1014  0.1014  0.0000  0.1014  0.0000 </r>
       </set>
       <set comment="band 7">
        <r>  0.0000  0.0952  0.3807  0.0952  0.2173  0.0543  0.0745  0.0543  0.0000 </r>
       </set>
       <set comment="band 8">
        <r>  0.0000  0.2855  0.0000  0.2855  0.0000  0.1630  0.0000  0.1630  0.0745 </r>
       </set>
       <set comment="band 9">
        <r> 43.7987  0.0002  0.0002  0.0002  0.0001  0.0001  0.0000  0.0001  0.0000 </r>
       </set>
      </set>
      <set comment="kpoint 14">
       <set comment="band 1">
        <r>  0.0000  0.0000  0.0000  0.0000  0.0000  0.0000  0.6654  0.0000  0.2218 </r>
       </set>
       <set comment="band 2">
        <r>  0.0058  0.0000  0.0000  0.0585  0.0000  0.0000  0.2065  0.0000  0.6196 </r>
       </set>
       <set comment="band 3">
        <r>  0.0000  0.1095  0.1095  0.0000  0.3479  0.0000  0.0000  0.3479  0.0000 </r>
       </set>
       <set comment="band 4">
        <r>  0.0000  0.1095  0.1095  0.0000  0.3479  0.0000  0.0000  0.3479  0.0000 </r>
       </set>
       <set comment="band 5">
        <r>  0.0000  0.0000  0.0000  0.0000  0.0000  0.9427  0.0000  0.0000  0.0000 </r>
       </set>
       <set comment="band 6">
        <r>  0.2561  0.0000  0.0000  0.5512  0.0000  0.0000  0.0162  0.0000  0.0486 </r>
       </set>
       <set comment="band 7">
        <r>  0.0000  0.3071  0.3071  0.0000  0.1543  0.0000  0.0000  0.1543  0.0000 </r>
       </set>
       <set comment="band 8">
        <r>  0.0000  0.3071  0.3071  0.0000  0.1543  0.0000  0.0000  0.1543  0.0000 </r>
       </set>
       <set comment="band 9">
        <r> 42.9956  0.0000  0.0000  0.0020  0.0000  0.0000  0.0001  0.0000  0.0002 </r>
       </set>
      </set>
     </set>
     <set comment="spin2">
      <set comment="kpoint 1">
       <set comment="band 1">
        <r>  0.7193  0.0361  0.0361  0.0361  0.0081  0.0081  0.0000  0.0081  0.0000 </r>
       </set>
       <set comment="band 2">
        <r>  0.0000  0.0140  0.0026  0.0045  0.1142  0.1958  0.0101  0.6090  0.0439 </r>
       </set>
       <set comment="band 3">
        <r>  0.0000  0.0001  0.0115  0.0096  0.4985  0.4169  0.0439  0.0037  0.0101 </r>
       </set>
       <set comment="band 4">
        <r>  0.0025  0.0217  0.0217  0.0217  0.3061  0.3061  0.0000  0.3061  0.0000 </r>
       </set>
       <set comment="band 5">
        <r>  0.0000  0.0002  0.0000  0.0001  0.0104  0.0179  0.1541  0.0555  0.6729 </r>
       </set>
       <set comment="band 6">
        <r>  0.0000  0.0000  0.0001  0.0001  0.0454  0.0380  0.6729  0.0003  0.1541 </r>
       </set>
       <set comment="band 7">
        <r> 43.7439  0.0001  0.0001  0.0001  0.0000  0.0000  0.0000  0.0000  0.0000 </r>
       </set>
       <set comment="band 8">
        <r>  0.0000  0.0000  0.0000  0.0000  0.0000  0.0000  0.0000  0.0000  0.0000 </r>
       </set>
       <set comment="band 9">
        <r>  0.0000  0.0673  0.0126  0.0216  0.0113  0.0194  0.0361  0.0604  0.1579 </r>
       </set>
      </set>
      <set comment="kpoint 2">
       <set comment="band 1">
        <r>  0.4721  0.0588  0.0588  0.0383  0.0053  0.2157  0.0134  0.0053  0.0403 </r>
       </set>
       <set comment="band 2">
        <r>  0.0000  0.0167  0.0167  0.0000  0.4732  0.0000  0.0168  0.4732  0.0056 </r>
       </set>
       <set comment="band 3">
        <r>  0.0390  0.1131  0.1131  0.0106  0.0855  0.3219  0.0371  0.0855  0.1114 </r>
       </set>
       <set comment="band 4">
        <r>  0.0061  0.0027  0.0027  0.0014  0.0223  0.2099  0.1709  0.0223  0.5127 </r>
       </set>
       <set comment="band 5">
        <r>  0.0000  0.0006  0.0006  0.0000  0.0191  0.0000  0.6759  0.0191  0.2253 </r>
       </set>
       <set comment="band 6">
        <r>  0.0022  0.0509  0.0509  0.0571  0.3376  0.1095  0.0001  0.3376  0.0004 </r>
       </set>
       <set comment="band 7">
        <r>  0.4782  0.1295  0.1295  0.0158  0.0070  0.2141  0.0109  0.0070  0.0326 </r>
       </set>
       <set comment="band 8">
        <r>  0.0000  0.1089  0.1089  0.0000  0.0307  0.0000  0.0616  0.0307  0.0205 </r>
       </set>
       <set comment="band 9">
        <r> 43.7817  0.0026  0.0026  0.0001  0.0001  0.0053  0.0004  0.0001  0.0012 </r>
       </set>
      </set>
      <set comment="kpoint 3">
       <set comment="band 1">
        <r>  0.2516  0.0000  0.0000  0.0457  0.0000  0.4710  0.0466  0.0000  0.1397 </r>
       </set>
       <set comment="band 2">
        <r>  0.0000  0.0194  0.0194  0.0000  0.4876  0.0000  0.0000  0.4876  0.0000 </r>
       </set>
       <set comment="band 3">
        <r>  0.0000  0.3383  0.3383  0.0000  0.0941  0.0000  0.0000  0.0941  0.0000 </r>
       </set>
       <set comment="band 4">
        <r>  0.0648  0.0000  0.0000  0.0002  0.0000  0.1713  0.1822  0.0000  0.5467 </r>
       </set>
       <set comment="band 5">
        <r>  0.0000  0.0000  0.0000  0.0000  0.0000  0.0000  0.7321  0.0000  0.2440 </r>
       </set>
       <set comment="band 6">
        <r>  0.0000  0.0632  0.0632  0.0000  0.4086  0.0000  0.0000  0.4086  0.0000 </r>
       </set>
       <set comment="band 7">
        <r>  0.5143  0.0000  0.0000  0.0499  0.0000  0.3507  0.0016  0.0000  0.0049 </r>
       </set>
       <set comment="band 8">
        <r>  0.0000  0.1159  0.1159  0.0000  0.0340  0.0000  0.0000  0.0340  0.0000 </r>
       </set>
       <set comment="band 9">
        <r> 44.0316  0.0000  0.0000  0.0000  0.0000  0.0005  0.0000  0.0000  0.0001 </r>
       </set>
      </set>
      <set comment="kpoint 4">
       <set comment="band 1">
        <r>  0.7884  0.0000  0.0000  0.0426  0.0000  0.0000  0.0004  0.0000  0.0013 </r>
       </set>
       <set comment="band 2">
        <r>  0.0000  0.0070  0.0069  0.0000  0.5049  0.0000  0.0000  0.5034  0.0000 </r>
       </set>
       <set comment="band 3">
        <r>  0.0000  0.0069  0.0070  0.0000  0.5034  0.0000  0.0000  0.5049  0.0000 </r>
       </set>
       <set comment="band 4">
        <r>  0.0000  0.0000  0.0000  0.0000  0.0000  1.0369  0.0000  0.0000  0.0000 </r>
       </set>
       <set comment="band 5">
        <r>  0.0000  0.0000  0.0000  0.0000  0.0000  0.0000  0.6460  0.0000  0.2153 </r>
       </set>
       <set comment="band 6">
        <r>  0.0013  0.0000  0.0000  0.0014  0.0000  0.0000  0.2291  0.0000  0.6873 </r>
       </set>
       <set comment="band 7">
        <r> 43.8108  0.0000  0.0000  0.0000  0.0000  0.0000  0.0000  0.0000  0.0000 </r>
       </set>
       <set comment="band 8">
        <r>  0.0000  0.0000  0.0000  0.0000  0.0000  0.0000  0.1060  0.0000  0.0353 </r>
       </set>
       <set comment="band 9">
        <r>  0.0000  0.0000  0.0000  0.0000  0.0262  0.0000  0.0000  0.0111  0.0000 </r>
       </set>
      </set>
      <set comment="kpoint 5">
       <set comment="band 1">
        <r>  0.1892  0.0518  0.0063  0.0518  0.0916  0.2708  0.0329  0.2708  0.0000 </r>
       </set>
       <set comment="band 2">
        <r>  0.0000  0.1094  0.0000  0.1094  0.0000  0.2837  0.0000  0.2837  0.1536 </r>
       </set>
       <set comment="band 3">
        <r>  0.0399  0.0272  0.2824  0.0272  0.5344  0.0019  0.0182  0.0019  0.0000 </r>
       </set>
       <set comment="band 4">
        <r>  0.0000  0.0044  0.0000  0.0044  0.0000  0.1017  0.0000  0.1017  0.7441 </r>
       </set>
       <set comment="band 5">
        <r>  0.0275  0.0001  0.0025  0.0001  0.0124  0.0186  0.8967  0.0186  0.0000 </r>
       </set>
       <set comment="band 6">
        <r>  0.6173  0.0492  0.0257  0.0492  0.0002  0.0815  0.0025  0.0815  0.0000 </r>
       </set>
       <set comment="band 7">
        <r>  0.0008  0.0618  0.1547  0.0618  0.3607  0.1258  0.0273  0.1258  0.0000 </r>
       </set>
       <set comment="band 8">
        <r>  0.0000  0.1717  0.0000  0.1717  0.0000  0.1658  0.0000  0.1658  0.1285 </r>
       </set>
       <set comment="band 9">
        <r> 43.9412  0.0000  0.0002  0.0000  0.0001  0.0003  0.0000  0.0003  0.0000 </r>
       </set>
      </set>
      <set comment="kpoint 6">
       <set comment="band 1">
        <r>  0.6325  0.0231  0.0000  0.1287  0.0554  0.0000  0.0197  0.0000  0.0100 </r>
       </set>
       <set comment="band 2">
        <r>  0.0000  0.0000  0.0127  0.0000  0.0000  0.3992  0.0000  0.5950  0.0000 </r>
       </set>
       <set comment="band 3">
        <r>  0.0107  0.0668  0.0000  0.0381  0.5129  0.0000  0.2374  0.0000  0.0415 </r>
       </set>
       <set comment="band 4">
        <r>  0.0001  0.0110  0.0000  0.0107  0.3309  0.0000  0.4041  0.0000  0.1457 </r>
       </set>
       <set comment="band 5">
        <r>  0.0000  0.0000  0.0433  0.0000  0.0000  0.5839  0.0000  0.3370  0.0000 </r>
       </set>
       <set comment="band 6">
        <r>  0.0175  0.0001  0.0000  0.0040  0.0128  0.0000  0.1969  0.0000  0.7145 </r>
       </set>
       <set comment="band 7">
        <r> 42.9630  0.0001  0.0000  0.0029  0.0009  0.0000  0.0000  0.0000  0.0001 </r>
       </set>
       <set comment="band 8">
        <r>  0.9022  0.0003  0.0000  0.1949  0.0656  0.0000  0.0010  0.0000  0.0354 </r>
       </set>
       <set comment="band 9">
        <r>  0.1408  0.1331  0.0000  0.0226  0.0663  0.0000  0.2059  0.0000  0.0860 </r>
       </set>
      </set>
      <set comment="kpoint 7">
       <set comment="band 1">
        <r>  0.3164  0.0007  0.0000  0.0478  0.3645  0.0000  0.2044  0.0000  0.0025 </r>
       </set>
       <set comment="band 2">
        <r>  0.0000  0.0000  0.0119  0.0000  0.0000  0.4768  0.0000  0.5224  0.0000 </r>
       </set>
       <set comment="band 3">
        <r>  0.0434  0.2392  0.0000  0.2408  0.0397  0.0000  0.1113  0.0000  0.1763 </r>
       </set>
       <set comment="band 4">
        <r>  0.0326  0.0289  0.0000  0.0383  0.2956  0.0000  0.5297  0.0000  0.0000 </r>
       </set>
       <set comment="band 5">
        <r>  0.0395  0.0441  0.0000  0.0716  0.0111  0.0000  0.0314  0.0000  0.7716 </r>
       </set>
       <set comment="band 6">
        <r>  0.0000  0.0000  0.0355  0.0000  0.0000  0.5062  0.0000  0.4128  0.0000 </r>
       </set>
       <set comment="band 7">
        <r>  0.2789  0.0214  0.0000  0.0775  0.3816  0.0000  0.0072  0.0000  0.0050 </r>
       </set>
       <set comment="band 8">
        <r>  0.0555  0.1973  0.0000  0.0443  0.0237  0.0000  0.0971  0.0000  0.0255 </r>
       </set>
       <set comment="band 9">
        <r> 44.0249  0.0008  0.0000  0.0000  0.0015  0.0000  0.0007  0.0000  0.0001 </r>
       </set>
      </set>
      <set comment="kpoint 8">
       <set comment="band 1">
        <r>  0.3920  0.0114  0.0114  0.1667  0.1020  0.0081  0.0287  0.1020  0.0862 </r>
       </set>
       <set comment="band 2">
        <r>  0.0000  0.0507  0.0507  0.0000  0.1602  0.0000  0.3520  0.1602  0.1173 </r>
       </set>
       <set comment="band 3">
        <r>  0.0067  0.0228  0.0228  0.1106  0.1650  0.4375  0.0066  0.1650  0.0198 </r>
       </set>
       <set comment="band 4">
        <r>  0.0000  0.0217  0.0217  0.0000  0.2580  0.0000  0.2650  0.2580  0.0883 </r>
       </set>
       <set comment="band 5">
        <r>  0.0844  0.0017  0.0017  0.0037  0.0357  0.1560  0.1596  0.0357  0.4789 </r>
       </set>
       <set comment="band 6">
        <r>  0.0331  0.0422  0.0422  0.0744  0.1102  0.3604  0.0443  0.1102  0.1330 </r>
       </set>
       <set comment="band 7">
        <r>  0.1852  0.0320  0.0320  0.1529  0.1095  0.0001  0.0047  0.1095  0.0141 </r>
       </set>
       <set comment="band 8">
        <r> 43.9754  0.0000  0.0000  0.0004  0.0004  0.0000  0.0000  0.0004  0.0000 </r>
       </set>
       <set comment="band 9">
        <r>  0.0000  0.1937  0.1937  0.0000  0.1000  0.0000  0.2263  0.1000  0.0754 </r>
       </set>
      </set>
      <set comment="kpoint 9">
       <set comment="band 1">
        <r>  0.1793  0.0225  0.0292  0.0225  0.3600  0.0266  0.2676  0.0266  0.0000 </r>
       </set>
       <set comment="band 2">
        <r>  0.0223  0.0130  0.0538  0.0130  0.0078  0.3502  0.1485  0.3502  0.0000 </r>
       </set>
       <set comment="band 3">
        <r>  0.0000  0.1772  0.0000  0.1772  0.0000  0.0409  0.0000  0.0409  0.4355 </r>
       </set>
       <set comment="band 4">
        <r>  0.0646  0.0071  0.0158  0.0071  0.2551  0.0744  0.4185  0.0744  0.0000 </r>
       </set>
       <set comment="band 5">
        <r>  0.0000  0.0804  0.0000  0.0804  0.0000  0.1997  0.0000  0.1997  0.3984 </r>
       </set>
       <set comment="band 6">
        <r>  0.0000  0.1594  0.0000  0.1594  0.0000  0.2577  0.0000  0.2577  0.1454 </r>
       </set>
       <set comment="band 7">
        <r>  0.4938  0.0057  0.0473  0.0057  0.3104  0.0145  0.0008  0.0145  0.0000 </r>
       </set>
       <set comment="band 8">
        <r>  0.0014  0.0707  0.3548  0.0707  0.1230  0.0521  0.1827  0.0521  0.0000 </r>
       </set>
       <set comment="band 9">
        <r> 43.9770  0.0000  0.0000  0.0000  0.0004  0.0000  0.0000  0.0000  0.0000 </r>
       </set>
      </set>
      <set comment="kpoint 10">
       <set comment="band 1">
        <r>  0.0000  0.0927  0.0920  0.0926  0.2270  0.2285  0.0000  0.2288  0.0000 </r>
       </set>
       <set comment="band 2">
        <r>  0.0000  0.1074  0.1614  0.0085  0.3982  0.0210  0.0000  0.2650  0.0000 </r>
       </set>
       <set comment="band 3">
        <r>  0.0000  0.0772  0.0239  0.1762  0.0591  0.4347  0.0000  0.1904  0.0000 </r>
       </set>
       <set comment="band 4">
        <r>  0.0000  0.0000  0.0000  0.0000  0.0000  0.0000  0.0450  0.0000  0.9521 </r>
       </set>
       <set comment="band 5">
        <r>  0.0000  0.0000  0.0000  0.0000  0.0000  0.0000  0.9521  0.0000  0.0450 </r>
       </set>
       <set comment="band 6">
        <r>  0.9497  0.0000  0.0000  0.0000  0.0000  0.0000  0.0000  0.0000  0.0000 </r>
       </set>
       <set comment="band 7">
        <r>  0.0000  0.0916  0.0253  0.2010  0.0382  0.3030  0.0000  0.1381  0.0000 </r>
       </set>
       <set comment="band 8">
        <r>  0.0000  0.1194  0.1884  0.0102  0.2840  0.0154  0.0000  0.1800  0.0000 </r>
       </set>
       <set comment="band 9">
        <r>  0.0000  0.1070  0.1042  0.1067  0.1571  0.1609  0.0000  0.1613  0.0000 </r>
       </set>
      </set>
      <set comment="kpoint 11">
       <set comment="band 1">
        <r>  0.4407  0.0000  0.0000  0.2721  0.0000  0.0000  0.0414  0.0000  0.1243 </r>
       </set>
       <set comment="band 2">
        <r>  0.0000  0.0000  0.0000  0.0000  0.0000  0.0000  0.6171  0.0000  0.2057 </r>
       </set>
       <set comment="band 3">
        <r>  0.0000  0.0554  0.0553  0.0000  0.4190  0.0000  0.0000  0.4182  0.0000 </r>
       </set>
       <set comment="band 4">
        <r>  0.0000  0.0553  0.0554  0.0000  0.4182  0.0000  0.0000  0.4190  0.0000 </r>
       </set>
       <set comment="band 5">
        <r>  0.0000  0.0000  0.0000  0.0000  0.0000  0.9484  0.0000  0.0000  0.0000 </r>
       </set>
       <set comment="band 6">
        <r>  0.1668  0.0000  0.0000  0.0255  0.0000  0.0000  0.1948  0.0000  0.5845 </r>
       </set>
       <set comment="band 7">
        <r> 34.7093  0.0000  0.0000  0.0432  0.0000  0.0000  0.0036  0.0000  0.0108 </r>
       </set>
       <set comment="band 8">
        <r>  9.2941  0.0000  0.0000  0.1889  0.0000  0.0000  0.0155  0.0000  0.0465 </r>
       </set>
       <set comment="band 9">
        <r>  0.0000  0.4968  0.0057  0.0000  0.4744  0.0000  0.0000  0.0055  0.0000 </r>
       </set>
      </set>
      <set comment="kpoint 12">
       <set comment="band 1">
        <r>  0.1134  0.0037  0.0000  0.1274  0.1011  0.0000  0.4994  0.0000  0.0487 </r>
       </set>
       <set comment="band 2">
        <r>  0.0171  0.0569  0.0000  0.0861  0.0040  0.0000  0.1481  0.0000  0.5511 </r>
       </set>
       <set comment="band 3">
        <r>  0.0000  0.0000  0.0995  0.0000  0.0000  0.3274  0.0000  0.5253  0.0000 </r>
       </set>
       <set comment="band 4">
        <r>  0.1169  0.0797  0.0000  0.0013  0.4995  0.0000  0.1803  0.0000  0.0250 </r>
       </set>
       <set comment="band 5">
        <r>  0.0000  0.0000  0.0315  0.0000  0.0000  0.6234  0.0000  0.2881  0.0000 </r>
       </set>
       <set comment="band 6">
        <r>  0.1897  0.1147  0.0000  0.2459  0.1027  0.0000  0.0280  0.0000  0.2653 </r>
       </set>
       <set comment="band 7">
        <r>  0.1722  0.2488  0.0000  0.0641  0.3383  0.0000  0.0007  0.0000  0.0605 </r>
       </set>
       <set comment="band 8">
        <r> 43.9132  0.0009  0.0000  0.0000  0.0011  0.0000  0.0001  0.0000  0.0001 </r>
       </set>
       <set comment="band 9">
        <r>  0.0000  0.0000  0.6654  0.0000  0.0000  0.0033  0.0000  0.2646  0.0000 </r>
       </set>
      </set>
      <set comment="kpoint 13">
       <set comment="band 1">
        <r>  0.0000  0.0444  0.0000  0.0444  0.0000  0.0087  0.0000  0.0087  0.7713 </r>
       </set>
       <set comment="band 2">
        <r>  0.0000  0.0148  0.0592  0.0148  0.0116  0.0029  0.7713  0.0029  0.0000 </r>
       </set>
       <set comment="band 3">
        <r>  0.1396  0.0327  0.0327  0.0327  0.2322  0.2322  0.0000  0.2322  0.0000 </r>
       </set>
       <set comment="band 4">
        <r>  0.0000  0.1001  0.0000  0.1001  0.0000  0.3293  0.0000  0.3293  0.0665 </r>
       </set>
       <set comment="band 5">
        <r>  0.0000  0.0334  0.1335  0.0334  0.4391  0.1098  0.0665  0.1098  0.0000 </r>
       </set>
       <set comment="band 6">
        <r>  0.4184  0.0493  0.0493  0.0493  0.1013  0.1013  0.0000  0.1013  0.0000 </r>
       </set>
       <set comment="band 7">
        <r>  0.0000  0.2862  0.0000  0.2862  0.0000  0.1622  0.0000  0.1622  0.0751 </r>
       </set>
       <set comment="band 8">
        <r>  0.0000  0.0954  0.3816  0.0954  0.2162  0.0541  0.0751  0.0541  0.0000 </r>
       </set>
       <set comment="band 9">
        <r> 43.7997  0.0002  0.0002  0.0002  0.0001  0.0001  0.0000  0.0001  0.0000 </r>
       </set>
      </set>
      <set comment="kpoint 14">
       <set comment="band 1">
        <r>  0.0000  0.0000  0.0000  0.0000  0.0000  0.0000  0.6654  0.0000  0.2218 </r>
       </set>
       <set comment="band 2">
        <r>  0.0058  0.0000  0.0000  0.0583  0.0000  0.0000  0.2066  0.0000  0.6197 </r>
       </set>
       <set comment="band 3">
        <r>  0.0000  0.1087  0.1087  0.0000  0.3488  0.0000  0.0000  0.3488  0.0000 </r>
       </set>
       <set comment="band 4">
        <r>  0.0000  0.1087  0.1087  0.0000  0.3488  0.0000  0.0000  0.3488  0.0000 </r>
       </set>
       <set comment="band 5">
        <r>  0.0000  0.0000  0.0000  0.0000  0.0000  0.9430  0.0000  0.0000  0.0000 </r>
       </set>
       <set comment="band 6">
        <r>  0.2554  0.0000  0.0000  0.5511  0.0000  0.0000  0.0162  0.0000  0.0486 </r>
       </set>
       <set comment="band 7">
        <r>  0.0000  0.3080  0.3080  0.0000  0.1534  0.0000  0.0000  0.1534  0.0000 </r>
       </set>
       <set comment="band 8">
        <r>  0.0000  0.3080  0.3080  0.0000  0.1534  0.0000  0.0000  0.1534  0.0000 </r>
       </set>
       <set comment="band 9">
        <r> 42.9904  0.0000  0.0000  0.0020  0.0000  0.0000  0.0001  0.0000  0.0002 </r>
       </set>
      </set>
     </set>
    </set>
   </array>
  </projected>
 </calculation>
 <structure name="finalpos" >
  <crystal>
   <varray name="basis" >
    <v>      -1.67500000       1.67500000       1.67500000 </v>
    <v>       1.67500000      -1.67500000       1.67500000 </v>
    <v>       1.67500000       1.67500000      -1.67500000 </v>
   </varray>
   <i name="volume">     18.79768750 </i>
   <varray name="rec_basis" >
    <v>       0.00000000       0.29850746       0.29850746 </v>
    <v>       0.29850746       0.00000000       0.29850746 </v>
    <v>       0.29850746       0.29850746       0.00000000 </v>
   </varray>
  </crystal>
  <varray name="positions" >
   <v>       0.00000000       0.00000000       0.00000000 </v>
  </varray>
 </structure>
</modeling>
