unknown system                          
           1
    -1.675000    1.675000    1.675000
     1.675000   -1.675000    1.675000
     1.675000    1.675000   -1.675000
   Ta
   1
Direct configuration=     1
   0.00000000  0.00000000  0.00000000
