   1   1   1   0
  0.1846302E+02  0.2883865E-09  0.2883865E-09  0.2883865E-09  0.5000000E-15
  1.000000000000000E-004
  CAR 
 unknown system                          
     25.81169469     -3.05324268  301      5.51977307      1.00000000
     -3.053  0.0000E+00  0.0000E+00  0.0000E+00  0.0000E+00
     -2.957  0.0000E+00  0.0000E+00  0.0000E+00  0.0000E+00
     -2.861  0.0000E+00  0.0000E+00  0.0000E+00  0.0000E+00
     -2.765  0.0000E+00  0.0000E+00  0.0000E+00  0.0000E+00
     -2.668  0.0000E+00  0.0000E+00  0.0000E+00  0.0000E+00
     -2.572  0.0000E+00  0.0000E+00  0.0000E+00  0.0000E+00
     -2.476  0.0000E+00  0.0000E+00  0.0000E+00  0.0000E+00
     -2.380  0.0000E+00  0.0000E+00  0.0000E+00  0.0000E+00
     -2.284  0.0000E+00  0.0000E+00  0.0000E+00  0.0000E+00
     -2.187 -0.1956E-34  0.0000E+00 -0.1882E-35  0.0000E+00
     -2.091 -0.3092E-21 -0.5128E-37 -0.2975E-22 -0.4934E-38
     -1.995 -0.2639E-11 -0.2904E-23 -0.2540E-12 -0.2794E-24
     -1.899 -0.1145E-04 -0.8987E-13 -0.1101E-05 -0.8647E-14
     -1.802 -0.1023E-01 -0.1455E-05 -0.9849E-03 -0.1400E-06
     -1.706  0.2873E+00 -0.7277E-02  0.2666E-01 -0.7003E-03
     -1.610  0.1180E-01  0.2357E+00  0.2780E-01  0.2197E-01
     -1.514 -0.1886E-03  0.6111E-01  0.2778E-01  0.2785E-01
     -1.418 -0.3656E-09 -0.7950E-03  0.2778E-01  0.2778E-01
     -1.321  0.0000E+00 -0.6026E-08  0.2778E-01  0.2778E-01
     -1.225  0.0000E+00  0.0000E+00  0.2778E-01  0.2778E-01
     -1.129 -0.1557E-31  0.0000E+00  0.2778E-01  0.2778E-01
     -1.033 -0.5894E-19 -0.1022E-33  0.2778E-01  0.2778E-01
     -0.936 -0.1187E-09 -0.1196E-20  0.2778E-01  0.2778E-01
     -0.840 -0.1162E-03 -0.7543E-11  0.2777E-01  0.2778E-01
     -0.744 -0.1080E-02 -0.2396E-04  0.2766E-01  0.2778E-01
     -0.648  0.3980E+00 -0.1323E-01  0.6596E-01  0.2650E-01
     -0.552 -0.1182E-01  0.3920E+00  0.6482E-01  0.6422E-01
     -0.455 -0.3754E-04  0.6348E-02  0.6481E-01  0.6483E-01
     -0.359 -0.1627E-10 -0.1730E-03  0.6481E-01  0.6481E-01
     -0.263 -0.1728E-31 -0.2442E-09  0.6481E-01  0.6481E-01
     -0.167 -0.8206E-19 -0.2286E-33  0.6481E-01  0.6481E-01
     -0.071 -0.2078E-09 -0.2855E-20  0.6481E-01  0.6481E-01
      0.026 -0.2578E-03 -0.1922E-10  0.6479E-01  0.6481E-01
      0.122 -0.1575E-01 -0.6530E-04  0.6327E-01  0.6481E-01
      0.218  0.1201E+01 -0.4017E-01  0.1788E+00  0.6094E-01
      0.314 -0.2998E-01  0.1171E+01  0.1759E+00  0.1736E+00
      0.411 -0.1553E-03  0.2456E-01  0.1759E+00  0.1760E+00
      0.507 -0.8520E-10 -0.5632E-03  0.1759E+00  0.1759E+00
      0.603  0.0000E+00 -0.8512E-09  0.1759E+00  0.1759E+00
      0.699  0.0000E+00  0.0000E+00  0.1759E+00  0.1759E+00
      0.795  0.0000E+00  0.0000E+00  0.1759E+00  0.1759E+00
      0.892  0.0000E+00  0.0000E+00  0.1759E+00  0.1759E+00
      0.988 -0.5495E-32  0.0000E+00  0.1759E+00  0.1759E+00
      1.084 -0.3381E-19 -0.9195E-34  0.1759E+00  0.1759E+00
      1.180 -0.1112E-09 -0.1403E-20  0.1759E+00  0.1759E+00
      1.276 -0.1810E-03 -0.1156E-10  0.1759E+00  0.1759E+00
      1.373 -0.3197E-01 -0.4833E-04  0.1728E+00  0.1759E+00
      1.469  0.1569E+01 -0.4326E-01  0.3238E+00  0.1718E+00
      1.565  0.7942E+00  0.1344E+01  0.4002E+00  0.3010E+00
      1.661 -0.2237E-01  0.1043E+01  0.3981E+00  0.4014E+00
      1.758  0.3989E-01 -0.3397E-01  0.4019E+00  0.3981E+00
      1.854  0.5746E+00  0.2920E-01  0.4572E+00  0.4009E+00
      1.950  0.2541E+00  0.4800E+00  0.4817E+00  0.4471E+00
      2.046  0.2249E+00  0.3651E+00  0.5033E+00  0.4822E+00
      2.142  0.9506E+00  0.1049E+00  0.5948E+00  0.4923E+00
      2.239  0.2707E+00  0.1080E+01  0.6208E+00  0.5962E+00
      2.335  0.2934E+00  0.2742E+00  0.6490E+00  0.6226E+00
      2.431 -0.9280E-02  0.2760E+00  0.6482E+00  0.6491E+00
      2.527 -0.3647E-04 -0.1023E-01  0.6481E+00  0.6481E+00
      2.624 -0.3484E-01 -0.1461E-04  0.6448E+00  0.6481E+00
      2.720  0.1038E+01 -0.2785E-01  0.7447E+00  0.6455E+00
      2.816  0.1347E+01  0.9510E+00  0.8742E+00  0.7370E+00
      2.912  0.8484E-01  0.1428E+01  0.8824E+00  0.8744E+00
      3.008  0.7028E+00  0.1748E+00  0.9500E+00  0.8912E+00
      3.105  0.1138E+01  0.5439E+00  0.1059E+01  0.9435E+00
      3.201 -0.4076E-01  0.1187E+01  0.1056E+01  0.1058E+01
      3.297 -0.5378E-04 -0.2211E-01  0.1056E+01  0.1056E+01
      3.393 -0.7462E-07 -0.2123E-03  0.1056E+01  0.1056E+01
      3.489 -0.5435E-02 -0.3204E-06  0.1055E+01  0.1056E+01
      3.586  0.3646E+00 -0.1033E-01  0.1090E+01  0.1055E+01
      3.682  0.8174E+00  0.5483E+00  0.1169E+01  0.1107E+01
      3.778 -0.2170E-01  0.6300E+00  0.1167E+01  0.1168E+01
      3.874 -0.2000E-02 -0.1319E-01  0.1166E+01  0.1167E+01
      3.971  0.1460E+00 -0.6506E-03  0.1181E+01  0.1167E+01
      4.067  0.4420E+00  0.5160E-01  0.1223E+01  0.1172E+01
      4.163  0.2872E+00  0.5424E+00  0.1251E+01  0.1224E+01
      4.259  0.1439E+01  0.2315E+00  0.1389E+01  0.1246E+01
      4.355  0.1299E+01  0.1558E+01  0.1514E+01  0.1396E+01
      4.452  0.7266E+00  0.9846E+00  0.1584E+01  0.1491E+01
      4.548  0.2244E+01  0.9289E+00  0.1800E+01  0.1580E+01
      4.644  0.7290E-01  0.2167E+01  0.1807E+01  0.1789E+01
      4.740  0.3670E+00  0.2259E+00  0.1842E+01  0.1810E+01
      4.837  0.1785E+01  0.2893E+00  0.2014E+01  0.1838E+01
      4.933  0.1565E+01  0.2001E+01  0.2165E+01  0.2031E+01
      5.029  0.2184E-01  0.1372E+01  0.2167E+01  0.2163E+01
      5.125 -0.6016E-03  0.4226E-01  0.2167E+01  0.2167E+01
      5.221 -0.2078E-01 -0.7424E-03  0.2165E+01  0.2167E+01
      5.318  0.7597E+00 -0.1015E-01  0.2238E+01  0.2166E+01
      5.414  0.1803E+01  0.5081E+00  0.2411E+01  0.2215E+01
      5.510  0.1742E+01  0.1837E+01  0.2579E+01  0.2391E+01
      5.606 -0.4991E-01  0.1955E+01  0.2574E+01  0.2579E+01
      5.702 -0.2127E-01 -0.5557E-01  0.2572E+01  0.2574E+01
      5.799  0.8078E+00 -0.3107E-01  0.2650E+01  0.2571E+01
      5.895  0.3738E+00  0.9714E+00  0.2686E+01  0.2665E+01
      5.991 -0.5637E-02  0.2172E+00  0.2685E+01  0.2685E+01
      6.087 -0.3069E-03 -0.2756E-02  0.2685E+01  0.2685E+01
      6.184  0.1441E-01 -0.9494E-04  0.2687E+01  0.2685E+01
      6.280  0.6382E+00 -0.1314E-01  0.2748E+01  0.2684E+01
      6.376  0.9097E+00  0.6256E+00  0.2835E+01  0.2744E+01
      6.472 -0.2621E-01  0.9594E+00  0.2833E+01  0.2836E+01
      6.568  0.1767E+00 -0.3407E-01  0.2850E+01  0.2833E+01
      6.665  0.7683E-01  0.1217E+00  0.2857E+01  0.2845E+01
      6.761  0.1170E+01  0.1373E+00  0.2970E+01  0.2858E+01
      6.857  0.6222E+00  0.1042E+01  0.3030E+01  0.2958E+01
      6.953 -0.2094E-01  0.7437E+00  0.3028E+01  0.3030E+01
      7.049 -0.1474E-04 -0.2156E-01  0.3028E+01  0.3028E+01
      7.146 -0.5424E-10 -0.3809E-04  0.3028E+01  0.3028E+01
      7.242 -0.1165E-03 -0.3881E-10  0.3028E+01  0.3028E+01
      7.338 -0.3501E-01 -0.7858E-04  0.3024E+01  0.3028E+01
      7.434  0.1195E+01 -0.3912E-01  0.3139E+01  0.3024E+01
      7.531 -0.4672E-02  0.1180E+01  0.3139E+01  0.3138E+01
      7.627 -0.3380E-03  0.1417E-01  0.3139E+01  0.3139E+01
      7.723 -0.3371E-09 -0.4805E-03  0.3139E+01  0.3139E+01
      7.819 -0.2866E-05 -0.6379E-09  0.3139E+01  0.3139E+01
      7.915 -0.2353E-01 -0.1249E-04  0.3137E+01  0.3139E+01
      8.012  0.8343E+00 -0.3507E-01  0.3217E+01  0.3136E+01
      8.108  0.1036E+01  0.1012E+01  0.3317E+01  0.3233E+01
      8.204  0.4708E+00  0.9542E+00  0.3362E+01  0.3325E+01
      8.300 -0.2138E-01  0.3845E+00  0.3360E+01  0.3362E+01
      8.397  0.3921E+00 -0.1950E-01  0.3398E+01  0.3360E+01
      8.493 -0.3144E-02  0.3783E+00  0.3397E+01  0.3396E+01
      8.589  0.2557E+00  0.4276E-01  0.3422E+01  0.3400E+01
      8.685  0.1338E+01  0.2435E+00  0.3551E+01  0.3424E+01
      8.781  0.1560E+01  0.1280E+01  0.3701E+01  0.3547E+01
      8.878  0.9295E+00  0.1794E+01  0.3790E+01  0.3720E+01
      8.974 -0.3134E-01  0.7210E+00  0.3787E+01  0.3789E+01
      9.070 -0.8090E-05 -0.1935E-01  0.3787E+01  0.3787E+01
      9.166 -0.9147E-02 -0.1326E-04  0.3786E+01  0.3787E+01
      9.262  0.4292E+00 -0.2492E-01  0.3827E+01  0.3785E+01
      9.359  0.3155E+00  0.7114E+00  0.3858E+01  0.3853E+01
      9.455  0.1133E+01  0.7688E-01  0.3967E+01  0.3860E+01
      9.551  0.3637E-01  0.1195E+01  0.3970E+01  0.3976E+01
      9.647  0.5587E+00 -0.4310E-01  0.4024E+01  0.3971E+01
      9.744  0.3255E-01  0.6007E+00  0.4027E+01  0.4029E+01
      9.840  0.1885E+00 -0.2254E-01  0.4045E+01  0.4027E+01
      9.936  0.9314E+00  0.2586E+00  0.4135E+01  0.4052E+01
     10.032  0.1068E+01  0.1111E+01  0.4238E+01  0.4159E+01
     10.128  0.9718E+00  0.1179E+01  0.4331E+01  0.4272E+01
     10.225  0.1223E+01  0.7382E+00  0.4449E+01  0.4343E+01
     10.321  0.1149E+01  0.1447E+01  0.4559E+01  0.4482E+01
     10.417  0.1718E+01  0.1075E+01  0.4725E+01  0.4586E+01
     10.513  0.1060E+01  0.1746E+01  0.4827E+01  0.4754E+01
     10.609  0.7457E-01  0.7428E+00  0.4834E+01  0.4825E+01
     10.706  0.8002E+00  0.1335E+00  0.4911E+01  0.4838E+01
     10.802  0.6053E+00  0.1115E+01  0.4969E+01  0.4946E+01
     10.898  0.1029E+01  0.4606E+00  0.5068E+01  0.4990E+01
     10.994 -0.3536E-01  0.8000E+00  0.5065E+01  0.5067E+01
     11.091 -0.1300E-04 -0.2084E-01  0.5065E+01  0.5065E+01
     11.187 -0.1316E-11 -0.1993E-05  0.5065E+01  0.5065E+01
     11.283 -0.3646E-20 -0.6564E-13  0.5065E+01  0.5065E+01
     11.379 -0.1534E-10 -0.3161E-19  0.5065E+01  0.5065E+01
     11.475 -0.3220E-04 -0.7038E-10  0.5065E+01  0.5065E+01
     11.572 -0.1355E-01 -0.7658E-04  0.5064E+01  0.5065E+01
     11.668  0.5743E+00 -0.1034E-01  0.5119E+01  0.5064E+01
     11.764  0.3482E+01  0.7245E+00  0.5454E+01  0.5134E+01
     11.860  0.8955E+00  0.3534E+01  0.5540E+01  0.5474E+01
     11.957 -0.2974E-01  0.6787E+00  0.5537E+01  0.5539E+01
     12.053 -0.4052E-04 -0.1885E-01  0.5537E+01  0.5537E+01
     12.149 -0.4074E-01 -0.1038E-03  0.5533E+01  0.5537E+01
     12.245  0.1140E+01 -0.3677E-01  0.5643E+01  0.5533E+01
     12.341  0.3972E+00  0.1191E+01  0.5681E+01  0.5648E+01
     12.438  0.4411E-01  0.3034E+00  0.5685E+01  0.5677E+01
     12.534 -0.1218E-02  0.8527E-01  0.5685E+01  0.5686E+01
     12.630 -0.6163E-07 -0.3425E-02  0.5685E+01  0.5685E+01
     12.726 -0.1154E-14 -0.3279E-05  0.5685E+01  0.5685E+01
     12.822  0.0000E+00 -0.6825E-12  0.5685E+01  0.5685E+01
     12.919  0.0000E+00  0.0000E+00  0.5685E+01  0.5685E+01
     13.015  0.0000E+00  0.0000E+00  0.5685E+01  0.5685E+01
     13.111  0.0000E+00  0.0000E+00  0.5685E+01  0.5685E+01
     13.207  0.0000E+00  0.0000E+00  0.5685E+01  0.5685E+01
     13.304  0.0000E+00  0.0000E+00  0.5685E+01  0.5685E+01
     13.400  0.0000E+00  0.0000E+00  0.5685E+01  0.5685E+01
     13.496  0.0000E+00  0.0000E+00  0.5685E+01  0.5685E+01
     13.592  0.0000E+00  0.0000E+00  0.5685E+01  0.5685E+01
     13.688 -0.1566E-29 -0.7279E-42  0.5685E+01  0.5685E+01
     13.785 -0.2235E-17 -0.4614E-27  0.5685E+01  0.5685E+01
     13.881 -0.1675E-08 -0.1673E-15  0.5685E+01  0.5685E+01
     13.977 -0.5856E-03 -0.3118E-07  0.5685E+01  0.5685E+01
     14.073  0.4545E-01 -0.2501E-02  0.5690E+01  0.5685E+01
     14.170  0.5523E+00  0.1720E+00  0.5743E+01  0.5701E+01
     14.266 -0.1976E-01  0.4193E+00  0.5741E+01  0.5742E+01
     14.362 -0.1295E-04 -0.1143E-01  0.5741E+01  0.5741E+01
     14.458 -0.5788E-04 -0.1312E-05  0.5741E+01  0.5741E+01
     14.554 -0.4059E-01 -0.7512E-05  0.5737E+01  0.5741E+01
     14.651  0.1164E+01 -0.3116E-01  0.5849E+01  0.5738E+01
     14.747  0.3184E-01  0.9740E+00  0.5852E+01  0.5831E+01
     14.843 -0.6945E-02  0.2147E+00  0.5851E+01  0.5852E+01
     14.939  0.4038E+00 -0.2369E-01  0.5890E+01  0.5850E+01
     15.035  0.7769E+00  0.8037E+00  0.5965E+01  0.5927E+01
     15.132 -0.2036E-01  0.3778E+00  0.5963E+01  0.5964E+01
     15.228  0.4649E-01 -0.6252E-02  0.5967E+01  0.5963E+01
     15.324  0.9454E+00  0.9264E-02  0.6058E+01  0.5964E+01
     15.420  0.1720E+01  0.1312E+01  0.6224E+01  0.6090E+01
     15.517 -0.1615E-01  0.1352E+01  0.6222E+01  0.6220E+01
     15.613 -0.1183E-02  0.2265E-01  0.6222E+01  0.6222E+01
     15.709  0.6979E-01 -0.1067E-02  0.6229E+01  0.6222E+01
     15.805  0.5267E+00  0.3679E-01  0.6280E+01  0.6226E+01
     15.901 -0.1823E-01  0.5613E+00  0.6278E+01  0.6280E+01
     15.998 -0.7610E-05 -0.2017E-01  0.6278E+01  0.6278E+01
     16.094 -0.8534E-11 -0.1601E-04  0.6278E+01  0.6278E+01
     16.190 -0.3216E-04 -0.6092E-10  0.6278E+01  0.6278E+01
     16.286 -0.2726E-01 -0.1048E-03  0.6275E+01  0.6278E+01
     16.382  0.7685E+00 -0.1982E-01  0.6349E+01  0.6276E+01
     16.479  0.2910E-01  0.8007E+00  0.6352E+01  0.6353E+01
     16.575 -0.4253E-02 -0.1078E-01  0.6351E+01  0.6352E+01
     16.671  0.2264E+00 -0.5090E-02  0.6373E+01  0.6351E+01
     16.767  0.3634E+00  0.2664E+00  0.6408E+01  0.6377E+01
     16.864 -0.8610E-02  0.3228E+00  0.6407E+01  0.6408E+01
     16.960 -0.5834E-06 -0.6893E-02  0.6407E+01  0.6407E+01
     17.056 -0.1417E-13 -0.3257E-06  0.6407E+01  0.6407E+01
     17.152 -0.1636E-18 -0.5705E-14  0.6407E+01  0.6407E+01
     17.248 -0.3372E-09 -0.1182E-17  0.6407E+01  0.6407E+01
     17.345 -0.3381E-03 -0.1337E-08  0.6407E+01  0.6407E+01
     17.441 -0.4655E-02 -0.7192E-03  0.6407E+01  0.6407E+01
     17.537  0.1195E+01  0.4314E-01  0.6522E+01  0.6411E+01
     17.633 -0.3501E-01  0.1153E+01  0.6519E+01  0.6522E+01
     17.730 -0.1164E-03 -0.4088E-01  0.6519E+01  0.6519E+01
     17.826 -0.1113E-02 -0.4862E-04  0.6518E+01  0.6519E+01
     17.922  0.6222E-01 -0.2967E-02  0.6524E+01  0.6518E+01
     18.018  0.1718E+01  0.2121E+00  0.6690E+01  0.6539E+01
     18.114 -0.6095E-01  0.1564E+01  0.6684E+01  0.6689E+01
     18.211  0.1246E+01 -0.1786E-01  0.6804E+01  0.6687E+01
     18.307  0.2140E+00  0.1190E+01  0.6824E+01  0.6802E+01
     18.403 -0.2870E-02  0.1364E+00  0.6824E+01  0.6815E+01
     18.499 -0.1943E-07 -0.1718E-02  0.6824E+01  0.6815E+01
     18.595 -0.7301E-22 -0.7024E-08  0.6824E+01  0.6815E+01
     18.692 -0.1371E-11 -0.3268E-21  0.6824E+01  0.6815E+01
     18.788 -0.1332E-04 -0.4054E-11  0.6824E+01  0.6815E+01
     18.884 -0.3608E-01 -0.2582E-04  0.6821E+01  0.6815E+01
     18.980  0.1048E+01 -0.4312E-01  0.6921E+01  0.6811E+01
     19.077  0.1945E+01  0.1359E+01  0.7109E+01  0.6941E+01
     19.173  0.5791E+00  0.1695E+01  0.7164E+01  0.7104E+01
     19.269  0.1124E+01  0.7455E+00  0.7272E+01  0.7176E+01
     19.365 -0.4072E-01  0.8896E+00  0.7269E+01  0.7262E+01
     19.461 -0.1173E-03 -0.2632E-01  0.7269E+01  0.7259E+01
     19.558 -0.3901E-01 -0.1296E-03  0.7265E+01  0.7259E+01
     19.654  0.1181E+01 -0.3388E-01  0.7378E+01  0.7256E+01
     19.750  0.1194E-01  0.1197E+01  0.7380E+01  0.7371E+01
     19.846  0.9271E-01 -0.1241E-01  0.7388E+01  0.7370E+01
     19.942  0.3040E-03  0.1767E+00  0.7388E+01  0.7387E+01
     20.039  0.7251E+01  0.8669E+00  0.8086E+01  0.7470E+01
     20.135  0.3302E+01  0.9858E+01  0.8404E+01  0.8419E+01
     20.231 -0.9339E-01 -0.2132E+00  0.8395E+01  0.8398E+01
     20.327  0.1157E+01 -0.3443E-01  0.8506E+01  0.8395E+01
     20.424  0.1096E+01  0.1158E+01  0.8612E+01  0.8506E+01
     20.520  0.9191E-01  0.1123E+01  0.8620E+01  0.8615E+01
     20.616 -0.1185E-02  0.6118E-01  0.8620E+01  0.8620E+01
     20.712 -0.3424E-08 -0.8837E-03  0.8620E+01  0.8620E+01
     20.808  0.0000E+00 -0.1965E-08  0.8620E+01  0.8620E+01
     20.905 -0.8403E-40  0.0000E+00  0.8620E+01  0.8620E+01
     21.001 -0.1794E-25 -0.8641E-42  0.8620E+01  0.8620E+01
     21.097 -0.2120E-14 -0.4618E-27  0.8620E+01  0.8620E+01
     21.193 -0.1357E-06 -0.1411E-15  0.8620E+01  0.8620E+01
     21.290 -0.3684E-02 -0.2215E-07  0.8620E+01  0.8620E+01
     21.386  0.1933E+00 -0.1549E-02  0.8639E+01  0.8620E+01
     21.482  0.5253E+00  0.9410E-01  0.8689E+01  0.8629E+01
     21.578  0.2543E+00  0.5251E+00  0.8714E+01  0.8680E+01
     21.674 -0.6883E-02  0.3580E+00  0.8713E+01  0.8714E+01
     21.771 -0.9324E-02 -0.1338E-01  0.8712E+01  0.8713E+01
     21.867  0.5160E+00 -0.2821E-01  0.8762E+01  0.8710E+01
     21.963  0.6626E+00  0.9285E+00  0.8825E+01  0.8800E+01
     22.059 -0.1446E-01  0.2579E+00  0.8824E+01  0.8824E+01
     22.155 -0.7362E-06 -0.3400E-02  0.8824E+01  0.8824E+01
     22.252 -0.1911E-04 -0.2768E-07  0.8824E+01  0.8824E+01
     22.348 -0.3794E-01 -0.4581E-04  0.8820E+01  0.8824E+01
     22.444  0.1063E+01 -0.4091E-01  0.8923E+01  0.8820E+01
     22.540  0.4964E+00  0.1136E+01  0.8970E+01  0.8929E+01
     22.637  0.1877E-01  0.4272E+00  0.8972E+01  0.8971E+01
     22.733 -0.2922E-03  0.1807E-01  0.8972E+01  0.8972E+01
     22.829 -0.6451E-09 -0.2793E-03  0.8972E+01  0.8972E+01
     22.925  0.0000E+00 -0.5927E-09  0.8972E+01  0.8972E+01
     23.021  0.0000E+00  0.0000E+00  0.8972E+01  0.8972E+01
     23.118  0.0000E+00  0.0000E+00  0.8972E+01  0.8972E+01
     23.214  0.0000E+00  0.0000E+00  0.8972E+01  0.8972E+01
     23.310  0.0000E+00  0.0000E+00  0.8972E+01  0.8972E+01
     23.406  0.0000E+00  0.0000E+00  0.8972E+01  0.8972E+01
     23.502  0.0000E+00  0.0000E+00  0.8972E+01  0.8972E+01
     23.599  0.0000E+00  0.0000E+00  0.8972E+01  0.8972E+01
     23.695  0.0000E+00  0.0000E+00  0.8972E+01  0.8972E+01
     23.791  0.0000E+00  0.0000E+00  0.8972E+01  0.8972E+01
     23.887  0.0000E+00  0.0000E+00  0.8972E+01  0.8972E+01
     23.984 -0.4445E-32  0.0000E+00  0.8972E+01  0.8972E+01
     24.080 -0.2097E-19 -0.1631E-30  0.8972E+01  0.8972E+01
     24.176 -0.5275E-10 -0.3362E-18  0.8972E+01  0.8972E+01
     24.272 -0.6501E-04 -0.3656E-09  0.8972E+01  0.8972E+01
     24.368 -0.3860E-02 -0.1886E-03  0.8972E+01  0.8972E+01
     24.465  0.3002E+00  0.1180E-01  0.9001E+01  0.8973E+01
     24.561 -0.7542E-02  0.2873E+00  0.9000E+01  0.9001E+01
     24.657 -0.3848E-04 -0.1023E-01  0.9000E+01  0.9000E+01
     24.753 -0.2097E-10 -0.1145E-04  0.9000E+01  0.9000E+01
     24.850  0.0000E+00 -0.2639E-11  0.9000E+01  0.9000E+01
     24.946  0.0000E+00  0.0000E+00  0.9000E+01  0.9000E+01
     25.042  0.0000E+00  0.0000E+00  0.9000E+01  0.9000E+01
     25.138  0.0000E+00  0.0000E+00  0.9000E+01  0.9000E+01
     25.234  0.0000E+00  0.0000E+00  0.9000E+01  0.9000E+01
     25.331  0.0000E+00  0.0000E+00  0.9000E+01  0.9000E+01
     25.427  0.0000E+00  0.0000E+00  0.9000E+01  0.9000E+01
     25.523  0.0000E+00  0.0000E+00  0.9000E+01  0.9000E+01
     25.619  0.0000E+00  0.0000E+00  0.9000E+01  0.9000E+01
     25.715  0.0000E+00  0.0000E+00  0.9000E+01  0.9000E+01
     25.812  0.0000E+00  0.0000E+00  0.9000E+01  0.9000E+01
     25.81169469     -3.05324268  301      5.51977307      1.00000000
     -3.053  0.0000E+00  0.0000E+00  0.0000E+00  0.0000E+00  0.0000E+00  0.0000E+00  0.0000E+00  0.0000E+00  0.0000E+00  0.0000E+00  0.0000E+00  0.0000E+00  0.0000E+00  0.0000E+00  0.0000E+00  0.0000E+00  0.0000E+00  0.0000E+00
     -2.957  0.0000E+00  0.0000E+00  0.0000E+00  0.0000E+00  0.0000E+00  0.0000E+00  0.0000E+00  0.0000E+00  0.0000E+00  0.0000E+00  0.0000E+00  0.0000E+00  0.0000E+00  0.0000E+00  0.0000E+00  0.0000E+00  0.0000E+00  0.0000E+00
     -2.861  0.0000E+00  0.0000E+00  0.0000E+00  0.0000E+00  0.0000E+00  0.0000E+00  0.0000E+00  0.0000E+00  0.0000E+00  0.0000E+00  0.0000E+00  0.0000E+00  0.0000E+00  0.0000E+00  0.0000E+00  0.0000E+00  0.0000E+00  0.0000E+00
     -2.765  0.0000E+00  0.0000E+00  0.0000E+00  0.0000E+00  0.0000E+00  0.0000E+00  0.0000E+00  0.0000E+00  0.0000E+00  0.0000E+00  0.0000E+00  0.0000E+00  0.0000E+00  0.0000E+00  0.0000E+00  0.0000E+00  0.0000E+00  0.0000E+00
     -2.668  0.0000E+00  0.0000E+00  0.0000E+00  0.0000E+00  0.0000E+00  0.0000E+00  0.0000E+00  0.0000E+00  0.0000E+00  0.0000E+00  0.0000E+00  0.0000E+00  0.0000E+00  0.0000E+00  0.0000E+00  0.0000E+00  0.0000E+00  0.0000E+00
     -2.572  0.0000E+00  0.0000E+00  0.0000E+00  0.0000E+00  0.0000E+00  0.0000E+00  0.0000E+00  0.0000E+00  0.0000E+00  0.0000E+00  0.0000E+00  0.0000E+00  0.0000E+00  0.0000E+00  0.0000E+00  0.0000E+00  0.0000E+00  0.0000E+00
     -2.476  0.0000E+00  0.0000E+00  0.0000E+00  0.0000E+00  0.0000E+00  0.0000E+00  0.0000E+00  0.0000E+00  0.0000E+00  0.0000E+00  0.0000E+00  0.0000E+00  0.0000E+00  0.0000E+00  0.0000E+00  0.0000E+00  0.0000E+00  0.0000E+00
     -2.380  0.0000E+00  0.0000E+00  0.0000E+00  0.0000E+00  0.0000E+00  0.0000E+00  0.0000E+00  0.0000E+00  0.0000E+00  0.0000E+00  0.0000E+00  0.0000E+00  0.0000E+00  0.0000E+00  0.0000E+00  0.0000E+00  0.0000E+00  0.0000E+00
     -2.284  0.0000E+00  0.0000E+00  0.0000E+00  0.0000E+00  0.0000E+00  0.0000E+00  0.0000E+00  0.0000E+00  0.0000E+00  0.0000E+00  0.0000E+00  0.0000E+00  0.0000E+00  0.0000E+00  0.0000E+00  0.0000E+00  0.0000E+00  0.0000E+00
     -2.187 -0.1556E-34  0.0000E+00 -0.2540E-46  0.0000E+00 -0.2547E-46  0.0000E+00 -0.8613E-36  0.0000E+00 -0.1042E-44  0.0000E+00 -0.1048E-44  0.0000E+00 -0.8492E-38  0.0000E+00 -0.1042E-44  0.0000E+00 -0.2548E-37  0.0000E+00
     -2.091 -0.2458E-21 -0.4078E-37 -0.4014E-33 -0.3143E-49 -0.4025E-33 -0.2384E-49 -0.1361E-22 -0.2264E-38 -0.1646E-31 -0.1798E-47 -0.1656E-31 -0.2066E-47 -0.1342E-24 -0.2236E-40 -0.1647E-31 -0.1890E-47 -0.4026E-24 -0.6709E-40
     -1.995 -0.2099E-11 -0.2309E-23 -0.3427E-23 -0.1780E-35 -0.3437E-23 -0.1350E-35 -0.1162E-12 -0.1282E-24 -0.1405E-21 -0.1018E-33 -0.1414E-21 -0.1170E-33 -0.1146E-14 -0.1266E-26 -0.1406E-21 -0.1070E-33 -0.3437E-14 -0.3799E-26
     -1.899 -0.9103E-05 -0.7147E-13 -0.1486E-16 -0.5508E-25 -0.1490E-16 -0.4178E-25 -0.5040E-06 -0.3969E-14 -0.6095E-15 -0.3151E-23 -0.6133E-15 -0.3621E-23 -0.4969E-08 -0.3920E-16 -0.6099E-15 -0.3312E-23 -0.1491E-07 -0.1176E-15
     -1.802 -0.8131E-02 -0.1157E-05 -0.1328E-13 -0.8915E-18 -0.1331E-13 -0.6763E-18 -0.4502E-03 -0.6424E-07 -0.5444E-12 -0.5100E-16 -0.5479E-12 -0.5861E-16 -0.4439E-05 -0.6344E-09 -0.5448E-12 -0.5361E-16 -0.1332E-04 -0.1903E-08
     -1.706  0.2285E+00 -0.5787E-02  0.3731E-12 -0.4460E-14  0.3741E-12 -0.3383E-14  0.1265E-01 -0.3214E-03  0.1530E-10 -0.2551E-12  0.1539E-10 -0.2932E-12  0.1247E-03 -0.3174E-05  0.1531E-10 -0.2682E-12  0.3742E-03 -0.9521E-05
     -1.610  0.9381E-02  0.1874E+00  0.1532E-13  0.1444E-12  0.1536E-13  0.1096E-12  0.5194E-03  0.1041E-01  0.6281E-12  0.8262E-11  0.6321E-12  0.9495E-11  0.5121E-05  0.1028E-03  0.6286E-12  0.8685E-11  0.1536E-04  0.3083E-03
     -1.514 -0.1500E-03  0.4860E-01 -0.2449E-15  0.3745E-13 -0.2456E-15  0.2841E-13 -0.8306E-05  0.2699E-02 -0.1004E-13  0.2142E-11 -0.1011E-13  0.2462E-11 -0.8189E-07  0.2665E-04 -0.1005E-13  0.2252E-11 -0.2457E-06  0.7996E-04
     -1.418 -0.2907E-09 -0.6322E-03 -0.4747E-21 -0.4873E-15 -0.4760E-21 -0.3696E-15 -0.1610E-10 -0.3511E-04 -0.1946E-19 -0.2787E-13 -0.1959E-19 -0.3203E-13 -0.1587E-12 -0.3467E-06 -0.1948E-19 -0.2930E-13 -0.4761E-12 -0.1040E-05
     -1.321  0.0000E+00 -0.4792E-08  0.0000E+00 -0.3693E-20  0.0000E+00 -0.2801E-20  0.0000E+00 -0.2661E-09  0.0000E+00 -0.2112E-18  0.0000E+00 -0.2428E-18  0.0000E+00 -0.2628E-11  0.0000E+00 -0.2221E-18  0.0000E+00 -0.7884E-11
     -1.225  0.0000E+00  0.0000E+00  0.0000E+00  0.0000E+00  0.0000E+00  0.0000E+00  0.0000E+00  0.0000E+00  0.0000E+00  0.0000E+00  0.0000E+00  0.0000E+00  0.0000E+00  0.0000E+00  0.0000E+00  0.0000E+00  0.0000E+00  0.0000E+00
     -1.129 -0.1128E-31  0.0000E+00 -0.5783E-33  0.0000E+00 -0.5783E-33  0.0000E+00 -0.5783E-33  0.0000E+00 -0.1309E-33  0.0000E+00 -0.1309E-33  0.0000E+00 -0.2330E-49  0.0000E+00 -0.1309E-33  0.0000E+00 -0.1193E-48  0.0000E+00
     -1.033 -0.4270E-19 -0.7403E-34 -0.2190E-20 -0.3811E-35 -0.2190E-20 -0.3811E-35 -0.2190E-20 -0.3811E-35 -0.4958E-21 -0.8563E-36 -0.4958E-21 -0.8563E-36 -0.8824E-37 -0.1910E-51 -0.4958E-21 -0.8563E-36 -0.4517E-36 -0.1886E-52
     -0.936 -0.8599E-10 -0.8667E-21 -0.4410E-11 -0.4462E-22 -0.4410E-11 -0.4462E-22 -0.4410E-11 -0.4462E-22 -0.9984E-12 -0.1002E-22 -0.9984E-12 -0.1002E-22 -0.1777E-27 -0.2237E-38 -0.9984E-12 -0.1002E-22 -0.9095E-27 -0.2208E-39
     -0.840 -0.8417E-04 -0.5464E-11 -0.4316E-05 -0.2813E-12 -0.4316E-05 -0.2813E-12 -0.4316E-05 -0.2813E-12 -0.9773E-06 -0.6320E-13 -0.9773E-06 -0.6320E-13 -0.1739E-21 -0.1410E-28 -0.9773E-06 -0.6320E-13 -0.8903E-21 -0.1392E-29
     -0.744 -0.7822E-03 -0.1736E-04 -0.4011E-04 -0.8937E-06 -0.4011E-04 -0.8937E-06 -0.4011E-04 -0.8937E-06 -0.9082E-05 -0.2008E-06 -0.9082E-05 -0.2008E-06 -0.1616E-20 -0.4480E-22 -0.9082E-05 -0.2008E-06 -0.8273E-20 -0.4422E-23
     -0.648  0.2883E+00 -0.9584E-02  0.1479E-01 -0.4934E-03  0.1479E-01 -0.4934E-03  0.1479E-01 -0.4934E-03  0.3348E-02 -0.1109E-03  0.3348E-02 -0.1109E-03  0.5958E-18 -0.2473E-19  0.3348E-02 -0.1109E-03  0.3050E-17 -0.2441E-20
     -0.552 -0.8566E-02  0.2840E+00 -0.4393E-03  0.1462E-01 -0.4393E-03  0.1462E-01 -0.4393E-03  0.1462E-01 -0.9946E-04  0.3285E-02 -0.9946E-04  0.3285E-02 -0.1770E-19  0.7329E-18 -0.9946E-04  0.3285E-02 -0.9061E-19  0.7234E-19
     -0.455 -0.2720E-04  0.4599E-02 -0.1395E-05  0.2368E-03 -0.1395E-05  0.2368E-03 -0.1395E-05  0.2368E-03 -0.3158E-06  0.5319E-04 -0.3158E-06  0.5319E-04 -0.5620E-22  0.1187E-19 -0.3158E-06  0.5319E-04 -0.2877E-21  0.1171E-20
     -0.359 -0.1179E-10 -0.1253E-03 -0.6045E-12 -0.6451E-05 -0.6045E-12 -0.6451E-05 -0.6045E-12 -0.6451E-05 -0.1369E-12 -0.1449E-05 -0.1369E-12 -0.1449E-05 -0.2436E-28 -0.3233E-21 -0.1369E-12 -0.1449E-05 -0.1247E-27 -0.3192E-22
     -0.263 -0.1098E-31 -0.1769E-09 -0.4060E-33 -0.9107E-11 -0.6376E-43 -0.9107E-11 -0.2282E-32 -0.9107E-11 -0.1007E-32 -0.2046E-11 -0.1881E-41 -0.2046E-11 -0.3555E-33 -0.4565E-27 -0.1963E-41 -0.2046E-11 -0.1773E-33 -0.4506E-28
     -0.167 -0.5213E-19 -0.1452E-33 -0.1928E-20 -0.5401E-35 -0.3028E-30 -0.1852E-45 -0.1084E-19 -0.3030E-34 -0.4784E-20 -0.1326E-34 -0.8934E-29 -0.1089E-43 -0.1688E-20 -0.4724E-35 -0.9323E-29 -0.1122E-43 -0.8420E-21 -0.2359E-35
     -0.071 -0.1320E-09 -0.1813E-20 -0.4881E-11 -0.6746E-22 -0.7666E-21 -0.2313E-32 -0.2744E-10 -0.3784E-21 -0.1211E-10 -0.1656E-21 -0.2262E-19 -0.1360E-30 -0.4275E-11 -0.5900E-22 -0.2361E-19 -0.1402E-30 -0.2132E-11 -0.2947E-22
      0.026 -0.1638E-03 -0.1221E-10 -0.6056E-05 -0.4540E-12 -0.9511E-15 -0.1557E-22 -0.3404E-04 -0.2547E-11 -0.1503E-04 -0.1115E-11 -0.2807E-13 -0.9155E-21 -0.5304E-05 -0.3971E-12 -0.2929E-13 -0.9436E-21 -0.2645E-05 -0.1983E-12
      0.122 -0.1001E-01 -0.4147E-04 -0.3701E-03 -0.1543E-05 -0.5812E-13 -0.5289E-16 -0.2080E-02 -0.8654E-05 -0.9183E-03 -0.3788E-05 -0.1715E-11 -0.3111E-14 -0.3241E-03 -0.1349E-05 -0.1790E-11 -0.3206E-14 -0.1616E-03 -0.6739E-06
      0.218  0.7630E+00 -0.2551E-01  0.2821E-01 -0.9490E-03  0.4431E-11 -0.3253E-13  0.1586E+00 -0.5323E-02  0.7000E-01 -0.2330E-02  0.1307E-09 -0.1914E-11  0.2471E-01 -0.8300E-03  0.1364E-09 -0.1972E-11  0.1232E-01 -0.4145E-03
      0.314 -0.1905E-01  0.7438E+00 -0.7043E-03  0.2767E-01 -0.1106E-12  0.9485E-12 -0.3959E-02  0.1552E+00 -0.1748E-02  0.6794E-01 -0.3264E-11  0.5579E-10 -0.6168E-03  0.2420E-01 -0.3406E-11  0.5750E-10 -0.3076E-03  0.1209E-01
      0.411 -0.9866E-04  0.1560E-01 -0.3648E-05  0.5803E-03 -0.5730E-15  0.1989E-13 -0.2051E-04  0.3255E-02 -0.9053E-05  0.1425E-02 -0.1691E-13  0.1170E-11 -0.3195E-05  0.5075E-03 -0.1764E-13  0.1206E-11 -0.1594E-05  0.2535E-03
      0.507 -0.5413E-10 -0.3577E-03 -0.2002E-11 -0.1331E-04 -0.3143E-21 -0.4561E-15 -0.1125E-10 -0.7464E-04 -0.4966E-11 -0.3267E-04 -0.9275E-20 -0.2683E-13 -0.1753E-11 -0.1164E-04 -0.9680E-20 -0.2765E-13 -0.8742E-12 -0.5812E-05
      0.603  0.0000E+00 -0.5406E-09  0.0000E+00 -0.2011E-10  0.0000E+00 -0.6894E-21  0.0000E+00 -0.1128E-09  0.0000E+00 -0.4938E-10  0.0000E+00 -0.4055E-19  0.0000E+00 -0.1759E-10  0.0000E+00 -0.4179E-19  0.0000E+00 -0.8785E-11
      0.699  0.0000E+00  0.0000E+00  0.0000E+00  0.0000E+00  0.0000E+00  0.0000E+00  0.0000E+00  0.0000E+00  0.0000E+00  0.0000E+00  0.0000E+00  0.0000E+00  0.0000E+00  0.0000E+00  0.0000E+00  0.0000E+00  0.0000E+00  0.0000E+00
      0.795  0.0000E+00  0.0000E+00  0.0000E+00  0.0000E+00  0.0000E+00  0.0000E+00  0.0000E+00  0.0000E+00  0.0000E+00  0.0000E+00  0.0000E+00  0.0000E+00  0.0000E+00  0.0000E+00  0.0000E+00  0.0000E+00  0.0000E+00  0.0000E+00
      0.892  0.0000E+00  0.0000E+00  0.0000E+00  0.0000E+00  0.0000E+00  0.0000E+00  0.0000E+00  0.0000E+00  0.0000E+00  0.0000E+00  0.0000E+00  0.0000E+00  0.0000E+00  0.0000E+00  0.0000E+00  0.0000E+00  0.0000E+00  0.0000E+00
      0.988 -0.2593E-32  0.0000E+00 -0.3243E-33  0.0000E+00 -0.3243E-33  0.0000E+00 -0.2174E-33  0.0000E+00 -0.2809E-34  0.0000E+00 -0.1233E-32  0.0000E+00 -0.7688E-34  0.0000E+00 -0.2809E-34  0.0000E+00 -0.2306E-33  0.0000E+00
      1.084 -0.1595E-19 -0.4336E-34 -0.1995E-20 -0.5459E-35 -0.1995E-20 -0.5459E-35 -0.1337E-20 -0.3652E-35 -0.1728E-21 -0.4707E-36 -0.7587E-20 -0.2057E-34 -0.4730E-21 -0.1293E-35 -0.1728E-21 -0.4707E-36 -0.1419E-20 -0.3880E-35
      1.180 -0.5248E-10 -0.6614E-21 -0.6564E-11 -0.8328E-22 -0.6564E-11 -0.8328E-22 -0.4401E-11 -0.5572E-22 -0.5687E-12 -0.7181E-23 -0.2496E-10 -0.3139E-21 -0.1556E-11 -0.1973E-22 -0.5685E-12 -0.7181E-23 -0.4668E-11 -0.5919E-22
      1.276 -0.8537E-04 -0.5449E-11 -0.1068E-04 -0.6861E-12 -0.1068E-04 -0.6861E-12 -0.7160E-05 -0.4590E-12 -0.9529E-06 -0.5917E-13 -0.4060E-04 -0.2586E-11 -0.2547E-05 -0.1625E-12 -0.9246E-06 -0.5916E-13 -0.7593E-05 -0.4876E-12
      1.373 -0.1423E-01 -0.2279E-04 -0.1566E-02 -0.2869E-05 -0.1563E-02 -0.2869E-05 -0.1311E-02 -0.1920E-05 -0.2181E-02 -0.2523E-06 -0.5944E-02 -0.1081E-04 -0.1520E-02 -0.6824E-06 -0.1354E-03 -0.2474E-06 -0.1125E-02 -0.2039E-05
      1.469  0.6831E+00 -0.2002E-01  0.7116E-01 -0.2429E-02  0.7096E-01 -0.2427E-02  0.6514E-01 -0.1738E-02  0.1430E+00 -0.1092E-02  0.2698E+00 -0.9147E-02  0.9370E-01 -0.1076E-02  0.6146E-02 -0.2093E-03  0.5135E-01 -0.1731E-02
      1.565  0.2474E+00  0.6037E+00 -0.7849E-03  0.6855E-01 -0.1223E-02  0.6845E-01  0.3821E-01  0.5496E-01  0.3037E+00  0.7683E-01 -0.4651E-02  0.2580E+00  0.1705E+00  0.5642E-01 -0.1059E-03  0.5902E-02  0.1083E-02  0.4910E-01
      1.661 -0.7169E-02  0.3352E+00 -0.2472E-04  0.3136E-02 -0.1312E-04  0.2584E-02 -0.1204E-02  0.4977E-01 -0.8044E-02  0.3718E+00 -0.5004E-04  0.9740E-02 -0.4547E-02  0.2113E+00 -0.1136E-05  0.2228E-03 -0.1352E-03  0.4246E-02
      1.758  0.1889E-01 -0.1086E-01 -0.1195E-08 -0.6104E-04 -0.8726E-11 -0.4290E-04  0.1277E-01 -0.1720E-02 -0.8220E-06 -0.1222E-01 -0.3323E-02 -0.1617E-03  0.1659E-02 -0.6951E-02  0.1132E-11 -0.3699E-05  0.4980E-02 -0.1611E-03