    1    1    1    2
  0.1846302E+02  0.2883865E-09  0.2883865E-09  0.2883865E-09  0.5000000E-15
  1.000000000000000E-004
  CAR 
 unknown system                          
    5   14    9
 
  0.8333333E-01  0.8333333E-01  0.8333333E-01  0.3703704E-01
   1       -0.701227     -0.590470
   2        5.374008      5.481052
   3        5.374008      5.481052
   4        8.357617      8.459323
   5        9.259758      9.331598
   6        9.259758      9.331598
   7       20.017897     20.064108
   8       21.492391     21.609445
   9       22.506935     22.602670
 
  0.2500000E+00  0.8333333E-01  0.8333333E-01  0.1111111E+00
   1        1.421786      1.529704
   2        4.361093      4.469946
   3        4.895343      4.993776
   4        9.421015      9.498570
   5       10.022902     10.092157
   6       11.680888     11.771135
   7       19.075075     19.167680
   8       19.614074     19.706263
   9       20.040466     20.086078
 
  0.4166667E+00  0.8333333E-01  0.8333333E-01  0.5555556E-01
   1        1.850899      1.958097
   2        3.986177      4.095873
   3        6.328146      6.417889
   4        9.615684      9.693682
   5       10.410676     10.477728
   6       14.103543     14.182135
   7       15.734941     15.837183
   8       17.972916     18.066819
   9       20.026779     20.072371
 
 -0.8333333E-01  0.8333333E-01  0.8333333E-01  0.2777778E-01
   1       -1.741200     -1.628530
   2        6.220639      6.328364
   3        6.220717      6.328389
   4        6.562555      6.669708
   5        8.547475      8.619215
   6        9.826288      9.891648
   7       20.018767     20.064784
   8       21.384318     21.492380
   9       21.409876     21.525468
 
  0.2500000E+00  0.2500000E+00  0.8333333E-01  0.1111111E+00
   1        3.044749      3.153253
   2        4.177461      4.276474
   3        4.769540      4.868847
   4        9.921712      9.996614
   5       10.360625     10.430788
   6       14.613602     14.726327
   7       15.321427     15.398428
   8       19.018824     19.093477
   9       20.025014     20.070923
 
 -0.2500000E+00  0.2500000E+00  0.8333333E-01  0.1111111E+00
   1        0.167637      0.276312
   2        5.307061      5.416123
   3        5.453659      5.550764
   4        7.998376      8.083454
   5        8.714311      8.815310
   6       10.264831     10.332145
   7       20.002191     20.050683
   8       20.393445     20.486476
   9       22.416326     22.505343
 
 -0.4166667E+00  0.4166667E+00  0.8333333E-01  0.1111111E+00
   1        1.480300      1.587272
   2        4.488885      4.598978
   3        5.787677      5.874577
   4        8.802007      8.886673
   5       10.698792     10.770629
   6       12.212521     12.299420
   7       17.483980     17.572572
   8       18.955404     19.046326
   9       20.030960     20.076418
 
 -0.2500000E+00  0.4166667E+00  0.8333333E-01  0.1111111E+00
   1        2.065705      2.170562
   2        4.259511      4.352584
   3        5.412270      5.516144
   4        8.102202      8.193775
   5       10.170703     10.251203
   6       11.782687     11.868579
   7       18.190746     18.280875
   8       20.028315     20.074041
   9       21.870451     21.945348
 
 -0.4166667E+00 -0.4166667E+00  0.8333333E-01  0.1111111E+00
   1        2.696108      2.799242
   2        4.518498      4.622053
   3        4.828877      4.915297
   4        8.645809      8.736148
   5       10.826653     10.908785
   6       14.948621     15.024676
   7       15.376860     15.478588
   8       19.206069     19.284897
   9       20.027097     20.072786
 
  0.2500000E+00  0.2500000E+00  0.2500000E+00  0.9259259E-02
   1        4.332204      4.433810
   2        4.332204      4.433810
   3        4.332292      4.433844
   4       10.602089     10.668575
   5       10.602089     10.668575
   6       12.345052     12.471320
   7       18.147127     18.222316
   8       18.147127     18.222328
   9       18.147130     20.078640
 
 -0.2500000E+00  0.2500000E+00  0.2500000E+00  0.2777778E-01
   1        1.779946      1.880500
   2        4.677865      4.762339
   3        6.792115      6.896397
   4        6.792182      6.896424
   5        8.704547      8.805793
   6       10.440274     10.518490
   7       19.857310     19.934213
   8       20.071726     20.126104
   9       24.414101     24.499652
 
 -0.4166667E+00  0.4166667E+00  0.2500000E+00  0.1111111E+00
   1        2.759000      2.851981
   2        3.597190      3.683928
   3        6.727847      6.832237
   4        7.391230      7.490935
   5       11.715672     11.804442
   6       11.721887     11.813232
   7       17.953511     18.037964
   8       20.029339     20.075021
   9       20.283608     20.378914
 
 -0.4166667E+00 -0.4166667E+00  0.2500000E+00  0.3703704E-01
   1        2.934312      3.021853
   2        2.934324      3.021857
   3        6.300987      6.408243
   4       10.434596     10.527507
   5       10.434646     10.527510
   6       15.250708     15.351211
   7       16.346980     16.432812
   8       16.347126     16.432889
   9       20.026600     20.072554
 
 -0.4166667E+00  0.4166667E+00  0.4166667E+00  0.2777778E-01
   1        2.192641      2.281246
   2        2.280478      2.368765
   3       10.094096     10.189579
   4       10.094151     10.189579
   5       11.623862     11.711973
   6       12.279899     12.383172
   7       16.677907     16.770095
   8       16.678026     16.770176
   9       20.009445     20.056458
