       N       E                     dE             d eps       ncg     rms          rms(c)
DAV:   1     0.374670204888E+01    0.37467E+01   -0.14690E+03   586   0.222E+02
DAV:   2    -0.127402877014E+01   -0.50207E+01   -0.44567E+01   598   0.344E+01
DAV:   3    -0.133650873180E+01   -0.62480E-01   -0.62405E-01   605   0.329E+00
DAV:   4    -0.133658389212E+01   -0.75160E-04   -0.75151E-04   637   0.100E-01
DAV:   5    -0.133658411311E+01   -0.22099E-06   -0.22089E-06   564   0.346E-03    0.784E+00
DAV:   6    -0.117693802439E+02   -0.10433E+02   -0.36192E+00   556   0.535E+00    0.391E+00
DAV:   7    -0.118472443546E+02   -0.77864E-01   -0.34840E-02   599   0.987E-01    0.338E+00
DAV:   8    -0.285027023592E+02   -0.16655E+02   -0.56134E+01   525   0.557E+00    0.199E+01
DAV:   9    -0.114177156803E+02    0.17085E+02   -0.15768E+02   559   0.126E+01    0.419E+00
DAV:  10    -0.118400702606E+02   -0.42235E+00   -0.23302E-01   522   0.250E+00    0.105E+00
DAV:  11    -0.118722509024E+02   -0.32181E-01   -0.35665E-03   599   0.305E-01    0.692E-01
DAV:  12    -0.118656817626E+02    0.65691E-02   -0.80779E-04   558   0.126E-01    0.928E-01
DAV:  13    -0.118813075424E+02   -0.15626E-01   -0.41609E-02   546   0.100E+00    0.332E-01
DAV:  14    -0.118796534117E+02    0.16541E-02   -0.24285E-03   523   0.262E-01    0.281E-01
DAV:  15    -0.118799155762E+02   -0.26216E-03   -0.47101E-05   271   0.414E-02    0.260E-01
DAV:  16    -0.118799538986E+02   -0.38322E-04   -0.89826E-06   256   0.155E-02
   1 F= -.11879954E+02 E0= -.11879837E+02  d E =-.350991E-03  mag=     0.1440
