 vasp.5.2.12 11Nov11 complex                                                    
  
 executed on             LinuxIFC date 2012.10.17  10:22:31
 running on    1 nodes
 distr:  one band on    1 nodes,    1 groups


--------------------------------------------------------------------------------------------------------


 INCAR:
 POTCAR:    PAW_PBE Ta 17Jan2003                  
 POTCAR:    PAW_PBE Ta 17Jan2003                  
   VRHFIN =Ta:  6s5d                                                            
   LEXCH  = PE                                                                  
   EATOM  =   130.6506 eV,    9.6025 Ry                                         
                                                                                
   TITEL  = PAW_PBE Ta 17Jan2003                                                
   LULTRA =        F    use ultrasoft PP ?                                      
   IUNSCR =        1    unscreen: 0-lin 1-nonlin 2-no                           
   RPACOR =    2.330    partial core radius                                     
   POMASS =  180.948; ZVAL   =    5.000    mass and valenz                      
   RCORE  =    2.900    outmost cutoff radius                                   
   RWIGS  =    2.840; RWIGS  =    1.503    wigner-seitz radius (au A)           
   ENMAX  =  223.667; ENMIN  =  167.750 eV                                      
   RCLOC  =    2.205    cutoff for local pot                                    
   LCOR   =        T    correct aug charges                                     
   LPAW   =        T    paw PP                                                  
   EAUG   =  332.075                                                            
   DEXC   =    -.049                                                            
   RMAX   =    3.083    core radius for proj-oper                               
   RAUG   =    1.300    factor for augmentation sphere                          
   RDEP   =    3.060    radius for radial grids                                 
   QCUT   =   -4.055; QGAM   =    8.109    optimization parameters              
                                                                                
   Description                                                                  
     l     E      TYP  RCUT    TYP  RCUT                                        
     2   .000     23  2.500                                                     
     2   .000     23  2.500                                                     
     0   .000     23  2.500                                                     
     0   .000     23  2.500                                                     
     1   .000     23  2.900                                                     
     1  2.000     23  2.900                                                     
     3   .000      7   .000                                                     
  local pseudopotential read in
  partial core-charges read in
  atomic valenz-charges read in
  non local Contribution for L=           2  read in
    real space projection operators read in
  non local Contribution for L=           2  read in
    real space projection operators read in
  non local Contribution for L=           0  read in
    real space projection operators read in
  non local Contribution for L=           0  read in
    real space projection operators read in
  non local Contribution for L=           1  read in
    real space projection operators read in
  non local Contribution for L=           1  read in
    real space projection operators read in
    PAW grid and wavefunctions read in
 
   number of l-projection  operators is LMAX  =           6
   number of lm-projection operators is LMMAX =          18
 
  PAW_PBE Ta 17Jan2003                  :
 energy of atom  1       EATOM= -130.6506
 kinetic energy error for atom=    0.0711 (will be added to EATOM!!)
 
 
 POSCAR: Ta                                      
  positions in cartesian coordinates
  No initial velocities read in
 exchange correlation table for  LEXCH =        8
   RHO(1)=    0.500       N(1)  =     2000
   RHO(2)=  100.500       N(2)  =     4000
 


--------------------------------------------------------------------------------------------------------


 ion  position               nearest neighbor table
   1  0.000  0.000  0.000-
 
  LATTYP: Found a body centered cubic cell.
 ALAT       =     3.3300000000
  
  Lattice vectors:
  
 A1 = (  -1.6650000000,   1.6650000000,   1.6650000000)
 A2 = (   1.6650000000,  -1.6650000000,   1.6650000000)
 A3 = (   1.6650000000,   1.6650000000,  -1.6650000000)
 Subroutine PRICEL returns:
 Original cell was already a primitive cell.
 

Analysis of symmetry for initial positions (statically):

 Routine SETGRP: Setting up the symmetry group for a 
 body centered cubic supercell.


 Subroutine GETGRP returns: Found 48 space group operations
 (whereof 48 operations were pure point group operations)
 out of a pool of 48 trial point group operations.


The static configuration has the point symmetry O_h .

Analysis of symmetry for dynamics (positions and initial velocities):

 Subroutine DYNSYM returns: Found 48 space group operations
 (whereof 48 operations were pure point group operations)
 out of a pool of 48 trial space group operations
 (whereof 48 operations were pure point group operations)
 and found also     1 'primitive' translations


The dynamic configuration has the point symmetry O_h .

Analysis of magnetic symmetry:

 Subroutine MAGSYM returns: Found 48 space group operations
 (whereof 48 operations were pure point group operations)
 out of a pool of 48 trial space group operations
 (whereof 48 operations were pure point group operations)
 and found also     1 'primitive' translations


The magnetic configuration has the point symmetry O_h .
 
 
 KPOINTS: KPOINTS created by Atomic Simulation Env

Automatic generation of k-mesh.
 
 Subroutine IBZKPT returns following result:
 ===========================================
 
 Found     14 irreducible k-points:
 
 Following reciprocal coordinates:
            Coordinates               Weight
  0.083333  0.083333  0.083333      8.000000
  0.250000  0.083333  0.083333     24.000000
  0.416667  0.083333  0.083333     12.000000
 -0.083333  0.083333  0.083333      6.000000
  0.250000  0.250000  0.083333     24.000000
 -0.250000  0.250000  0.083333     24.000000
 -0.416667  0.416667  0.083333     24.000000
 -0.250000  0.416667  0.083333     24.000000
 -0.416667 -0.416667  0.083333     24.000000
  0.250000  0.250000  0.250000      2.000000
 -0.250000  0.250000  0.250000      6.000000
 -0.416667  0.416667  0.250000     24.000000
 -0.416667 -0.416667  0.250000      8.000000
 -0.416667  0.416667  0.416667      6.000000
 
 Following cartesian coordinates:
            Coordinates               Weight
  0.050050  0.050050  0.050050      8.000000
  0.050050  0.100100  0.100100     24.000000
  0.050050  0.150150  0.150150     12.000000
  0.050050  0.000000  0.000000      6.000000
  0.100100  0.100100  0.150150     24.000000
  0.100100 -0.050050  0.000000     24.000000
  0.150150 -0.100100  0.000000     24.000000
  0.150150 -0.050050  0.050050     24.000000
 -0.100100 -0.100100 -0.250250     24.000000
  0.150150  0.150150  0.150150      2.000000
  0.150150  0.000000  0.000000      6.000000
  0.200200 -0.050050  0.000000     24.000000
 -0.050050 -0.050050 -0.250250      8.000000
  0.250250  0.000000  0.000000      6.000000
 


--------------------------------------------------------------------------------------------------------




 Dimension of arrays:
   k-points           NKPTS =     14   k-points in BZ     NKDIM =     14   number of bands    NBANDS=      9
   number of dos      NEDOS =    301   number of ions     NIONS =      1
   non local maximal  LDIM  =      6   non local SUM 2l+1 LMDIM =     18
   total plane-waves  NPLWV =   2744
   max r-space proj   IRMAX =      1   max aug-charges    IRDMAX=  10315
   dimension x,y,z NGX =    14 NGY =   14 NGZ =   14
   dimension x,y,z NGXF=    28 NGYF=   28 NGZF=   28
   support grid    NGXF=    28 NGYF=   28 NGZF=   28
   ions per type =               1
 NGX,Y,Z   is equivalent  to a cutoff of   8.07,  8.07,  8.07 a.u.
 NGXF,Y,Z  is equivalent  to a cutoff of  16.14, 16.14, 16.14 a.u.


 I would recommend the setting:
   dimension x,y,z NGX =    13 NGY =   13 NGZ =   13
 SYSTEM =  unknown system                          
 POSCAR =  Ta                                      

 Startparameter for this run:
   NWRITE =      2    write-flag & timer
   PREC   = accura    normal or accurate (medium, high low for compatibility)
   ISTART =      0    job   : 0-new  1-cont  2-samecut
   ICHARG =      2    charge: 1-file 2-atom 10-const
   ISPIN  =      2    spin polarized calculation?
   LNONCOLLINEAR =      F non collinear calculations
   LSORBIT =      F    spin-orbit coupling
   INIWAV =      1    electr: 0-lowe 1-rand  2-diag
   LASPH  =      F    aspherical Exc in radial PAW
   METAGGA=      F    non-selfconsistent MetaGGA calc.

 Electronic Relaxation 1
   ENCUT  =  200.0 eV  14.70 Ry    3.83 a.u.   3.33  3.33  3.33*2*pi/ulx,y,z
   ENINI  =  200.0     initial cutoff
   ENAUG  =  332.1 eV  augmentation charge cutoff
   NELM   =     60;   NELMIN=  2; NELMDL= -5     # of ELM steps 
   EDIFF  = 0.1E-03   stopping-criterion for ELM
   LREAL  =      F    real-space projection
   NLSPLINE    = F    spline interpolate recip. space projectors
   LCOMPAT=      F    compatible to vasp.4.4
   GGA_COMPAT  = T    GGA compatible to vasp.4.4-vasp.4.6
   LMAXPAW     = -100 max onsite density
   LMAXMIX     =    2 max onsite mixed and CHGCAR
   VOSKOWN=      0    Vosko Wilk Nusair interpolation
   ROPT   =    0.00000
 Ionic relaxation
   EDIFFG = 0.1E-02   stopping-criterion for IOM
   NSW    =      0    number of steps for IOM
   NBLOCK =      1;   KBLOCK =      1    inner block; outer block 
   IBRION =     -1    ionic relax: 0-MD 1-quasi-New 2-CG
   NFREE  =      0    steps in history (QN), initial steepest desc. (CG)
   ISIF   =      2    stress and relaxation
   IWAVPR =     10    prediction:  0-non 1-charg 2-wave 3-comb
   ISYM   =      2    0-nonsym 1-usesym 2-fastsym
   LCORR  =      T    Harris-Foulkes like correction to forces

   POTIM  = 0.5000    time-step for ionic-motion
   TEIN   =    0.0    initial temperature
   TEBEG  =    0.0;   TEEND  =   0.0 temperature during run
   SMASS  =  -3.00    Nose mass-parameter (am)
   estimated Nose-frequenzy (Omega)   =  0.10E-29 period in steps =****** mass=  -0.190E-27a.u.
   SCALEE = 1.0000    scale energy and forces
   NPACO  =    256;   APACO  = 16.0  distance and # of slots for P.C.
   PSTRESS=    0.0 pullay stress

  Mass of Ions in am
   POMASS = 180.95
  Ionic Valenz
   ZVAL   =   5.00
  Atomic Wigner-Seitz radii
   RWIGS  =  -1.00
  virtual crystal weights 
   VCA    =   1.00
   NELECT =       5.0000    total number of electrons
   NUPDOWN=      -1.0000    fix difference up-down

 DOS related values:
   EMIN   =  10.00;   EMAX   =-10.00  energy-range for DOS
   EFERMI =   0.00
   ISMEAR =     1;   SIGMA  =   0.05  broadening in eV -4-tet -1-fermi 0-gaus

 Electronic relaxation 2 (details)
   IALGO  =     38    algorithm
   LDIAG  =      T    sub-space diagonalisation (order eigenvalues)
   LSUBROT=      T    optimize rotation matrix (better conditioning)
   TURBO    =      0    0=normal 1=particle mesh
   IRESTART =      0    0=no restart 2=restart with 2 vectors
   NREBOOT  =      0    no. of reboots
   NMIN     =      0    reboot dimension
   EREF     =   0.00    reference energy to select bands
   IMIX   =      4    mixing-type and parameters
     AMIX     =   0.40;   BMIX     =  1.00
     AMIX_MAG =   1.60;   BMIX_MAG =  1.00
     AMIN     =   0.10
     WC   =   100.;   INIMIX=   1;  MIXPRE=   1

 Intra band minimization:
   WEIMIN = 0.0000     energy-eigenvalue tresh-hold
   EBREAK =  0.28E-05  absolut break condition
   DEPER  =   0.30     relativ break condition  

   TIME   =   0.40     timestep for ELM

  volume/ion in A,a.u.               =      18.46       124.59
  Fermi-wavevector in a.u.,A,eV,Ry     =   1.059166  2.001533 15.263452  1.121832
  Thomas-Fermi vector in A             =   2.194501
 
 Write flags
   LWAVE  =      T    write WAVECAR
   LCHARG =      T    write CHGCAR
   LVTOT  =      F    write LOCPOT, total local potential
   LVHAR  =      F    write LOCPOT, Hartree potential only
   LELF   =      F    write electronic localiz. function (ELF)
   LORBIT =     11    0 simple, 1 ext, 2 COOP (PROOUT)


 Dipole corrections
   LMONO  =      F    monopole corrections only (constant potential shift)
   LDIPOL =      F    correct potential (dipole corrections)
   IDIPOL =      0    1-x, 2-y, 3-z, 4-all directions 
   EPSILON=  1.0000000 bulk dielectric constant

 Exchange correlation treatment:
   GGA     =    --    GGA type
   LEXCH   =     8    internal setting for exchange type
   VOSKOWN=      0    Vosko Wilk Nusair interpolation
   LHFCALC =     F    Hartree Fock is set to
   LHFONE  =     F    Hartree Fock one center treatment
   AEXX    =    0.0000 exact exchange contribution

 Linear response parameters
   LEPSILON=     F    determine dielectric tensor
   LRPA    =     F    only Hartree local field effects (RPA)
   LNABLA  =     F    use nabla operator in PAW spheres
   LVEL    =     F    velocity operator in full k-point grid
   LINTERFAST=   F  fast interpolation
   KINTER  =     0    interpolate to denser k-point grid
   CSHIFT  =0.1000    complex shift for real part using Kramers Kronig
   OMEGAMAX=  -1.0    maximum frequency
   RTIME   =    0.100 relaxation time in fs

 Orbital magnetization related:
   ORBITALMAG=     F  switch on orbital magnetization
   LCHIMAG   =     F  perturbation theory with respect to B field
   DQ        =  0.001000  dq finite difference perturbation B field



--------------------------------------------------------------------------------------------------------


 Static calculation
 charge density and potential will be updated during run
 spin polarized calculation
 Variant of blocked Davidson
 Davidson routine will perform the subspace rotation
 perform sub-space diagonalisation
    after iterative eigenvector-optimisation
 modified Broyden-mixing scheme, WC =      100.0
 initial mixing is a Kerker type mixing with AMIX =  0.4000 and BMIX =      1.0000
 Hartree-type preconditioning will be used
 using additional bands            6
 reciprocal scheme for non local part
 use partial core corrections
 calculate Harris-corrections to forces 
   (improved forces if not selfconsistent)
 use gradient corrections 
 use of overlap-Matrix (Vanderbilt PP)
 Methfessel and Paxton  Order N= 1 SIGMA  =   0.05


--------------------------------------------------------------------------------------------------------


  energy-cutoff  :      200.00
  volume of cell :       18.46
      direct lattice vectors                 reciprocal lattice vectors
    -1.665000000  1.665000000  1.665000000     0.000000000  0.300300300  0.300300300
     1.665000000 -1.665000000  1.665000000     0.300300300  0.000000000  0.300300300
     1.665000000  1.665000000 -1.665000000     0.300300300  0.300300300  0.000000000

  length of vectors
     2.883864595  2.883864595  2.883864595     0.424688757  0.424688757  0.424688757


 
 k-points in units of 2pi/SCALE and weight: KPOINTS created by Atomic Simulation Env
   0.05005005  0.05005005  0.05005005       0.037
   0.05005005  0.10010010  0.10010010       0.111
   0.05005005  0.15015015  0.15015015       0.056
   0.05005005  0.00000000  0.00000000       0.028
   0.10010010  0.10010010  0.15015015       0.111
   0.10010010 -0.05005005  0.00000000       0.111
   0.15015015 -0.10010010  0.00000000       0.111
   0.15015015 -0.05005005  0.05005005       0.111
  -0.10010010 -0.10010010 -0.25025025       0.111
   0.15015015  0.15015015  0.15015015       0.009
   0.15015015  0.00000000  0.00000000       0.028
   0.20020020 -0.05005005  0.00000000       0.111
  -0.05005005 -0.05005005 -0.25025025       0.037
   0.25025025  0.00000000  0.00000000       0.028
 
 k-points in reciprocal lattice and weights: KPOINTS created by Atomic Simulation Env
   0.08333333  0.08333333  0.08333333       0.037
   0.25000000  0.08333333  0.08333333       0.111
   0.41666667  0.08333333  0.08333333       0.056
  -0.08333333  0.08333333  0.08333333       0.028
   0.25000000  0.25000000  0.08333333       0.111
  -0.25000000  0.25000000  0.08333333       0.111
  -0.41666667  0.41666667  0.08333333       0.111
  -0.25000000  0.41666667  0.08333333       0.111
  -0.41666667 -0.41666667  0.08333333       0.111
   0.25000000  0.25000000  0.25000000       0.009
  -0.25000000  0.25000000  0.25000000       0.028
  -0.41666667  0.41666667  0.25000000       0.111
  -0.41666667 -0.41666667  0.25000000       0.037
  -0.41666667  0.41666667  0.41666667       0.028
 
 position of ions in fractional coordinates (direct lattice) 
   0.00000000  0.00000000  0.00000000
 
 position of ions in cartesian coordinates  (Angst):
   0.00000000  0.00000000  0.00000000
 


--------------------------------------------------------------------------------------------------------


 k-point  1 :  0.08330.08330.0833  plane waves:     117
 k-point  2 :  0.25000.08330.0833  plane waves:     119
 k-point  3 :  0.41670.08330.0833  plane waves:     122
 k-point  4 :  -.08330.08330.0833  plane waves:     128
 k-point  5 :  0.25000.25000.0833  plane waves:     121
 k-point  6 :  -.25000.25000.0833  plane waves:     118
 k-point  7 :  -.41670.41670.0833  plane waves:     120
 k-point  8 :  -.25000.41670.0833  plane waves:     116
 k-point  9 :  -.4167-.41670.0833  plane waves:     119
 k-point 10 :  0.25000.25000.2500  plane waves:     104
 k-point 11 :  -.25000.25000.2500  plane waves:     116
 k-point 12 :  -.41670.41670.2500  plane waves:     117
 k-point 13 :  -.4167-.41670.2500  plane waves:     110
 k-point 14 :  -.41670.41670.4167  plane waves:     116

 maximum and minimum number of plane-waves per node :       128      104

 maximum number of plane-waves:       128
 maximum index in each direction: 
   IXMAX=    3   IYMAX=    3   IZMAX=    3
   IXMIN=   -3   IYMIN=   -3   IZMIN=   -3

 NGX is ok and might be reduce to  14
 NGY is ok and might be reduce to  14
 NGZ is ok and might be reduce to  14

 serial   3D FFT for wavefunctions
 parallel 3D FFT for charge:
    minimum data exchange during FFTs selected (reduces bandwidth)


 total amount of memory used by VASP on root node    33573. kBytes
========================================================================

   base      :      30000. kBytes
   nonl-proj :        260. kBytes
   fftplans  :        800. kBytes
   grid      :       1894. kBytes
   one-center:         31. kBytes
   wavefun   :        588. kBytes
 
 Broyden mixing: mesh for mixing (old mesh)
   NGX =  7   NGY =  7   NGZ =  7
  (NGX  = 28   NGY  = 28   NGZ  = 28)
  gives a total of    343 points

 initial charge density was supplied:
 charge density of overlapping atoms calculated
 number of electron       5.0000000 magnetization       6.0000000
 keeping initial charge density in first step


--------------------------------------------------------------------------------------------------------


 Maximum index for augmentation-charges         9841 (set IRDMAX)


--------------------------------------------------------------------------------------------------------


 First call to EWALD:  gamma=   0.671
 Maximum number of real-space cells 3x 3x 3
 Maximum number of reciprocal cells 3x 3x 3

    FEWALD:  cpu time    0.00: real time    0.00


----------------------------------------- Iteration    1(   1)  ---------------------------------------


    POTLOK:  cpu time    0.07: real time    0.07
    SETDIJ:  cpu time    0.02: real time    0.02
     EDDAV:  cpu time    0.29: real time    0.29
       DOS:  cpu time    0.00: real time    0.00
    --------------------------------------------
      LOOP:  cpu time    0.39: real time    0.39

 eigenvalue-minimisations  :   586
 total energy-change (2. order) : 0.3746702E+01  (-0.1469013E+03)
 number of electron       5.0000000 magnetization       6.0000000
 augmentation part        5.0000000 magnetization       6.0000000

 Free energy of the ion-electron system (eV)
  ---------------------------------------------------
  alpha Z        PSCENC =        30.03559250
  Ewald energy   TEWEN  =      -196.71241410
  -1/2 Hartree   DENC   =        -2.61031375
  -exchange  EXHF       =         0.00000000
  -V(xc)+E(xc)   XCENC  =       -60.72814028
  PAW double counting   =       143.51874798      -69.33493833
  entropy T*S    EENTRO =        -0.00074358
  eigenvalues    EBANDS =        28.99941130
  atomic energy  EATOM  =       130.57950032
  ---------------------------------------------------
  free energy    TOTEN  =         3.74670205 eV

  energy without entropy =        3.74744563  energy(sigma->0) =        3.74694991


--------------------------------------------------------------------------------------------------------




----------------------------------------- Iteration    1(   2)  ---------------------------------------


     EDDAV:  cpu time    0.30: real time    0.30
       DOS:  cpu time    0.00: real time    0.00
    --------------------------------------------
      LOOP:  cpu time    0.30: real time    1.04

 eigenvalue-minimisations  :   598
 total energy-change (2. order) :-0.5020731E+01  (-0.4456721E+01)
 number of electron       5.0000000 magnetization       6.0000000
 augmentation part        5.0000000 magnetization       6.0000000

 Free energy of the ion-electron system (eV)
  ---------------------------------------------------
  alpha Z        PSCENC =        30.03559250
  Ewald energy   TEWEN  =      -196.71241410
  -1/2 Hartree   DENC   =        -2.61031375
  -exchange  EXHF       =         0.00000000
  -V(xc)+E(xc)   XCENC  =       -60.72814028
  PAW double counting   =       143.51874798      -69.33493833
  entropy T*S    EENTRO =        -0.00120343
  eigenvalues    EBANDS =        23.97914033
  atomic energy  EATOM  =       130.57950032
  ---------------------------------------------------
  free energy    TOTEN  =        -1.27402877 eV

  energy without entropy =       -1.27282534  energy(sigma->0) =       -1.27362763


--------------------------------------------------------------------------------------------------------




----------------------------------------- Iteration    1(   3)  ---------------------------------------


     EDDAV:  cpu time    0.30: real time    0.30
       DOS:  cpu time    0.00: real time    0.00
    --------------------------------------------
      LOOP:  cpu time    0.30: real time    0.31

 eigenvalue-minimisations  :   605
 total energy-change (2. order) :-0.6247996E-01  (-0.6240499E-01)
 number of electron       5.0000000 magnetization       6.0000000
 augmentation part        5.0000000 magnetization       6.0000000

 Free energy of the ion-electron system (eV)
  ---------------------------------------------------
  alpha Z        PSCENC =        30.03559250
  Ewald energy   TEWEN  =      -196.71241410
  -1/2 Hartree   DENC   =        -2.61031375
  -exchange  EXHF       =         0.00000000
  -V(xc)+E(xc)   XCENC  =       -60.72814028
  PAW double counting   =       143.51874798      -69.33493833
  entropy T*S    EENTRO =        -0.00114196
  eigenvalues    EBANDS =        23.91659890
  atomic energy  EATOM  =       130.57950032
  ---------------------------------------------------
  free energy    TOTEN  =        -1.33650873 eV

  energy without entropy =       -1.33536677  energy(sigma->0) =       -1.33612808


--------------------------------------------------------------------------------------------------------




----------------------------------------- Iteration    1(   4)  ---------------------------------------


     EDDAV:  cpu time    0.31: real time    0.31
       DOS:  cpu time    0.00: real time    0.00
    --------------------------------------------
      LOOP:  cpu time    0.31: real time    0.33

 eigenvalue-minimisations  :   637
 total energy-change (2. order) :-0.7516032E-04  (-0.7515092E-04)
 number of electron       5.0000000 magnetization       6.0000000
 augmentation part        5.0000000 magnetization       6.0000000

 Free energy of the ion-electron system (eV)
  ---------------------------------------------------
  alpha Z        PSCENC =        30.03559250
  Ewald energy   TEWEN  =      -196.71241410
  -1/2 Hartree   DENC   =        -2.61031375
  -exchange  EXHF       =         0.00000000
  -V(xc)+E(xc)   XCENC  =       -60.72814028
  PAW double counting   =       143.51874798      -69.33493833
  entropy T*S    EENTRO =        -0.00114206
  eigenvalues    EBANDS =        23.91652383
  atomic energy  EATOM  =       130.57950032
  ---------------------------------------------------
  free energy    TOTEN  =        -1.33658389 eV

  energy without entropy =       -1.33544184  energy(sigma->0) =       -1.33620321


--------------------------------------------------------------------------------------------------------




----------------------------------------- Iteration    1(   5)  ---------------------------------------


     EDDAV:  cpu time    0.28: real time    0.28
       DOS:  cpu time    0.00: real time    0.00
    CHARGE:  cpu time    0.03: real time    0.03
    MIXING:  cpu time    0.00: real time    0.00
    --------------------------------------------
      LOOP:  cpu time    0.32: real time    0.36

 eigenvalue-minimisations  :   564
 total energy-change (2. order) :-0.2209879E-06  (-0.2208946E-06)
 number of electron       4.9999998 magnetization       1.8665886
 augmentation part        0.4482282 magnetization      -0.8787178

 Broyden mixing:
  rms(total) = 0.78412E+00    rms(broyden)= 0.78396E+00
  rms(prec ) = 0.10047E+01
  weight for this iteration     100.00

 Free energy of the ion-electron system (eV)
  ---------------------------------------------------
  alpha Z        PSCENC =        30.03559250
  Ewald energy   TEWEN  =      -196.71241410
  -1/2 Hartree   DENC   =        -2.61031375
  -exchange  EXHF       =         0.00000000
  -V(xc)+E(xc)   XCENC  =       -60.72814028
  PAW double counting   =       143.51874798      -69.33493833
  entropy T*S    EENTRO =        -0.00114206
  eigenvalues    EBANDS =        23.91652361
  atomic energy  EATOM  =       130.57950032
  ---------------------------------------------------
  free energy    TOTEN  =        -1.33658411 eV

  energy without entropy =       -1.33544206  energy(sigma->0) =       -1.33620343


--------------------------------------------------------------------------------------------------------




----------------------------------------- Iteration    1(   6)  ---------------------------------------


    POTLOK:  cpu time    0.07: real time    0.07
    SETDIJ:  cpu time    0.02: real time    0.02
     EDDAV:  cpu time    0.28: real time    0.28
       DOS:  cpu time    0.00: real time    0.00
    CHARGE:  cpu time    0.03: real time    0.03
    MIXING:  cpu time    0.00: real time    0.00
    --------------------------------------------
      LOOP:  cpu time    0.40: real time    0.42

 eigenvalue-minimisations  :   556
 total energy-change (2. order) :-0.1043280E+02  (-0.3619243E+00)
 number of electron       4.9999998 magnetization       1.6244776
 augmentation part        0.3622062 magnetization       1.0092810

 Broyden mixing:
  rms(total) = 0.39087E+00    rms(broyden)= 0.39066E+00
  rms(prec ) = 0.11734E+01
  weight for this iteration     100.00

 eigenvalues of (default mixing * dielectric matrix)
  average eigenvalue GAMMA=   1.4557
  1.4557

 Free energy of the ion-electron system (eV)
  ---------------------------------------------------
  alpha Z        PSCENC =        30.03559250
  Ewald energy   TEWEN  =      -196.71241410
  -1/2 Hartree   DENC   =        -2.07272360
  -exchange  EXHF       =         0.00000000
  -V(xc)+E(xc)   XCENC  =       -66.23387172
  PAW double counting   =       162.97552786      -89.01677815
  entropy T*S    EENTRO =         0.00008053
  eigenvalues    EBANDS =        18.67570611
  atomic energy  EATOM  =       130.57950032
  ---------------------------------------------------
  free energy    TOTEN  =       -11.76938024 eV

  energy without entropy =      -11.76946078  energy(sigma->0) =      -11.76940709


--------------------------------------------------------------------------------------------------------




----------------------------------------- Iteration    1(   7)  ---------------------------------------


    POTLOK:  cpu time    0.07: real time    0.07
    SETDIJ:  cpu time    0.02: real time    0.02
     EDDAV:  cpu time    0.30: real time    0.30
       DOS:  cpu time    0.00: real time    0.00
    CHARGE:  cpu time    0.03: real time    0.03
    MIXING:  cpu time    0.00: real time    0.00
    --------------------------------------------
      LOOP:  cpu time    0.41: real time    0.43

 eigenvalue-minimisations  :   599
 total energy-change (2. order) :-0.7786411E-01  (-0.3483960E-02)
 number of electron       4.9999998 magnetization       2.5154829
 augmentation part        0.3619316 magnetization       1.9043698

 Broyden mixing:
  rms(total) = 0.33780E+00    rms(broyden)= 0.33780E+00
  rms(prec ) = 0.10973E+01
  weight for this iteration     100.00

 eigenvalues of (default mixing * dielectric matrix)
  average eigenvalue GAMMA=   0.9696
  0.9696  0.9696

 Free energy of the ion-electron system (eV)
  ---------------------------------------------------
  alpha Z        PSCENC =        30.03559250
  Ewald energy   TEWEN  =      -196.71241410
  -1/2 Hartree   DENC   =        -1.94384125
  -exchange  EXHF       =         0.00000000
  -V(xc)+E(xc)   XCENC  =       -66.28868865
  PAW double counting   =       164.94936570      -91.02709055
  entropy T*S    EENTRO =         0.00008072
  eigenvalues    EBANDS =        18.56025096
  atomic energy  EATOM  =       130.57950032
  ---------------------------------------------------
  free energy    TOTEN  =       -11.84724435 eV

  energy without entropy =      -11.84732507  energy(sigma->0) =      -11.84727126


--------------------------------------------------------------------------------------------------------




----------------------------------------- Iteration    1(   8)  ---------------------------------------


    POTLOK:  cpu time    0.07: real time    0.07
    SETDIJ:  cpu time    0.02: real time    0.03
     EDDAV:  cpu time    0.27: real time    0.27
       DOS:  cpu time    0.00: real time    0.00
    CHARGE:  cpu time    0.03: real time    0.03
    MIXING:  cpu time    0.00: real time    0.00
    --------------------------------------------
      LOOP:  cpu time    0.39: real time    0.41

 eigenvalue-minimisations  :   525
 total energy-change (2. order) :-0.1665546E+02  (-0.5613379E+01)
 number of electron       5.0000000 magnetization       2.2602616
 augmentation part       -0.1061222 magnetization       2.6766702

 Broyden mixing:
  rms(total) = 0.19856E+01    rms(broyden)= 0.19849E+01
  rms(prec ) = 0.35158E+01
  weight for this iteration     100.00

 eigenvalues of (default mixing * dielectric matrix)
  average eigenvalue GAMMA=   0.6560
  0.9724  0.9724  0.0233

 Free energy of the ion-electron system (eV)
  ---------------------------------------------------
  alpha Z        PSCENC =        30.03559250
  Ewald energy   TEWEN  =      -196.71241410
  -1/2 Hartree   DENC   =        -1.10331634
  -exchange  EXHF       =         0.00000000
  -V(xc)+E(xc)   XCENC  =       -65.65852223
  PAW double counting   =       170.52820616      -97.01088036
  entropy T*S    EENTRO =        -0.00013717
  eigenvalues    EBANDS =         0.83926886
  atomic energy  EATOM  =       130.57950032
  ---------------------------------------------------
  free energy    TOTEN  =       -28.50270236 eV

  energy without entropy =      -28.50256519  energy(sigma->0) =      -28.50265664


--------------------------------------------------------------------------------------------------------




----------------------------------------- Iteration    1(   9)  ---------------------------------------


    POTLOK:  cpu time    0.07: real time    0.07
    SETDIJ:  cpu time    0.02: real time    0.02
     EDDAV:  cpu time    0.28: real time    0.28
       DOS:  cpu time    0.00: real time    0.00
    CHARGE:  cpu time    0.03: real time    0.03
    MIXING:  cpu time    0.00: real time    0.00
    --------------------------------------------
      LOOP:  cpu time    0.40: real time    0.42

 eigenvalue-minimisations  :   559
 total energy-change (2. order) : 0.1708499E+02  (-0.1576759E+02)
 number of electron       4.9999998 magnetization       0.6127387
 augmentation part        0.3777137 magnetization       0.0073301

 Broyden mixing:
  rms(total) = 0.41944E+00    rms(broyden)= 0.41738E+00
  rms(prec ) = 0.64695E+00
  weight for this iteration     100.00

 eigenvalues of (default mixing * dielectric matrix)
  average eigenvalue GAMMA=   0.9046
  1.9165  0.9143  0.7558  0.0319

 Free energy of the ion-electron system (eV)
  ---------------------------------------------------
  alpha Z        PSCENC =        30.03559250
  Ewald energy   TEWEN  =      -196.71241410
  -1/2 Hartree   DENC   =        -1.10349519
  -exchange  EXHF       =         0.00000000
  -V(xc)+E(xc)   XCENC  =       -65.75160886
  PAW double counting   =       198.55942054     -124.92638759
  entropy T*S    EENTRO =         0.00016280
  eigenvalues    EBANDS =        17.90151391
  atomic energy  EATOM  =       130.57950032
  ---------------------------------------------------
  free energy    TOTEN  =       -11.41771568 eV

  energy without entropy =      -11.41787848  energy(sigma->0) =      -11.41776995


--------------------------------------------------------------------------------------------------------




----------------------------------------- Iteration    1(  10)  ---------------------------------------


    POTLOK:  cpu time    0.06: real time    0.07
    SETDIJ:  cpu time    0.02: real time    0.02
     EDDAV:  cpu time    0.27: real time    0.27
       DOS:  cpu time    0.00: real time    0.00
    CHARGE:  cpu time    0.03: real time    0.03
    MIXING:  cpu time    0.00: real time    0.00
    --------------------------------------------
      LOOP:  cpu time    0.38: real time    0.40

 eigenvalue-minimisations  :   522
 total energy-change (2. order) :-0.4223546E+00  (-0.2330156E-01)
 number of electron       4.9999998 magnetization       0.3576817
 augmentation part        0.4023362 magnetization       0.1351529

 Broyden mixing:
  rms(total) = 0.10471E+00    rms(broyden)= 0.10464E+00
  rms(prec ) = 0.16508E+00
  weight for this iteration     100.00

 eigenvalues of (default mixing * dielectric matrix)
  average eigenvalue GAMMA=   0.8437
  2.0327  0.8588  0.6474  0.6474  0.0324

 Free energy of the ion-electron system (eV)
  ---------------------------------------------------
  alpha Z        PSCENC =        30.03559250
  Ewald energy   TEWEN  =      -196.71241410
  -1/2 Hartree   DENC   =        -0.52599231
  -exchange  EXHF       =         0.00000000
  -V(xc)+E(xc)   XCENC  =       -65.93816057
  PAW double counting   =       217.74022028     -144.31515837
  entropy T*S    EENTRO =        -0.00140264
  eigenvalues    EBANDS =        17.29774464
  atomic energy  EATOM  =       130.57950032
  ---------------------------------------------------
  free energy    TOTEN  =       -11.84007026 eV

  energy without entropy =      -11.83866762  energy(sigma->0) =      -11.83960271


--------------------------------------------------------------------------------------------------------




----------------------------------------- Iteration    1(  11)  ---------------------------------------


    POTLOK:  cpu time    0.06: real time    0.07
    SETDIJ:  cpu time    0.02: real time    0.02
     EDDAV:  cpu time    0.30: real time    0.30
       DOS:  cpu time    0.00: real time    0.00
    CHARGE:  cpu time    0.03: real time    0.03
    MIXING:  cpu time    0.00: real time    0.00
    --------------------------------------------
      LOOP:  cpu time    0.42: real time    0.43

 eigenvalue-minimisations  :   599
 total energy-change (2. order) :-0.3218064E-01  (-0.3566520E-03)
 number of electron       4.9999998 magnetization       0.4586790
 augmentation part        0.4045314 magnetization       0.3259888

 Broyden mixing:
  rms(total) = 0.69207E-01    rms(broyden)= 0.69204E-01
  rms(prec ) = 0.15826E+00
  weight for this iteration     100.00

 eigenvalues of (default mixing * dielectric matrix)
  average eigenvalue GAMMA=   0.8362
  1.8703  0.7920  0.7920  0.9210  0.6100  0.0323

 Free energy of the ion-electron system (eV)
  ---------------------------------------------------
  alpha Z        PSCENC =        30.03559250
  Ewald energy   TEWEN  =      -196.71241410
  -1/2 Hartree   DENC   =        -0.53980926
  -exchange  EXHF       =         0.00000000
  -V(xc)+E(xc)   XCENC  =       -65.96985779
  PAW double counting   =       215.72556267     -142.29928484
  entropy T*S    EENTRO =        -0.00086591
  eigenvalues    EBANDS =        17.30932552
  atomic energy  EATOM  =       130.57950032
  ---------------------------------------------------
  free energy    TOTEN  =       -11.87225090 eV

  energy without entropy =      -11.87138499  energy(sigma->0) =      -11.87196226


--------------------------------------------------------------------------------------------------------




----------------------------------------- Iteration    1(  12)  ---------------------------------------


    POTLOK:  cpu time    0.06: real time    0.06
    SETDIJ:  cpu time    0.02: real time    0.02
     EDDAV:  cpu time    0.28: real time    0.28
       DOS:  cpu time    0.00: real time    0.00
    CHARGE:  cpu time    0.03: real time    0.03
    MIXING:  cpu time    0.00: real time    0.00
    --------------------------------------------
      LOOP:  cpu time    0.40: real time    0.40

 eigenvalue-minimisations  :   558
 total energy-change (2. order) : 0.6569140E-02  (-0.8077897E-04)
 number of electron       4.9999998 magnetization       0.0753801
 augmentation part        0.4054495 magnetization      -0.0560441

 Broyden mixing:
  rms(total) = 0.92820E-01    rms(broyden)= 0.92820E-01
  rms(prec ) = 0.19407E+00
  weight for this iteration     100.00

 eigenvalues of (default mixing * dielectric matrix)
  average eigenvalue GAMMA=   1.0723
  2.0863  2.0863  0.8838  0.8838  0.9147  0.6189  0.0323

 Free energy of the ion-electron system (eV)
  ---------------------------------------------------
  alpha Z        PSCENC =        30.03559250
  Ewald energy   TEWEN  =      -196.71241410
  -1/2 Hartree   DENC   =        -0.51413192
  -exchange  EXHF       =         0.00000000
  -V(xc)+E(xc)   XCENC  =       -65.94820987
  PAW double counting   =       215.86813398     -142.45106429
  entropy T*S    EENTRO =        -0.00073790
  eigenvalues    EBANDS =        17.27764953
  atomic energy  EATOM  =       130.57950032
  ---------------------------------------------------
  free energy    TOTEN  =       -11.86568176 eV

  energy without entropy =      -11.86494386  energy(sigma->0) =      -11.86543579


--------------------------------------------------------------------------------------------------------




----------------------------------------- Iteration    1(  13)  ---------------------------------------


    POTLOK:  cpu time    0.06: real time    0.06
    SETDIJ:  cpu time    0.02: real time    0.02
     EDDAV:  cpu time    0.28: real time    0.28
       DOS:  cpu time    0.00: real time    0.00
    CHARGE:  cpu time    0.03: real time    0.03
    MIXING:  cpu time    0.00: real time    0.00
    --------------------------------------------
      LOOP:  cpu time    0.39: real time    0.41

 eigenvalue-minimisations  :   546
 total energy-change (2. order) :-0.1562578E-01  (-0.4160933E-02)
 number of electron       4.9999998 magnetization       0.1258612
 augmentation part        0.3979769 magnetization       0.0168302

 Broyden mixing:
  rms(total) = 0.33152E-01    rms(broyden)= 0.33147E-01
  rms(prec ) = 0.94590E-01
  weight for this iteration     100.00

 eigenvalues of (default mixing * dielectric matrix)
  average eigenvalue GAMMA=   1.0606
  2.1181  2.1181  0.9759  0.9759  0.9342  0.6651  0.6651  0.0323

 Free energy of the ion-electron system (eV)
  ---------------------------------------------------
  alpha Z        PSCENC =        30.03559250
  Ewald energy   TEWEN  =      -196.71241410
  -1/2 Hartree   DENC   =        -0.75982501
  -exchange  EXHF       =         0.00000000
  -V(xc)+E(xc)   XCENC  =       -66.08804498
  PAW double counting   =       217.86980940     -144.37508498
  entropy T*S    EENTRO =        -0.00078771
  eigenvalues    EBANDS =        17.56994701
  atomic energy  EATOM  =       130.57950032
  ---------------------------------------------------
  free energy    TOTEN  =       -11.88130754 eV

  energy without entropy =      -11.88051984  energy(sigma->0) =      -11.88104497


--------------------------------------------------------------------------------------------------------




----------------------------------------- Iteration    1(  14)  ---------------------------------------


    POTLOK:  cpu time    0.06: real time    0.07
    SETDIJ:  cpu time    0.02: real time    0.02
     EDDAV:  cpu time    0.27: real time    0.27
       DOS:  cpu time    0.00: real time    0.00
    CHARGE:  cpu time    0.03: real time    0.03
    MIXING:  cpu time    0.00: real time    0.00
    --------------------------------------------
      LOOP:  cpu time    0.38: real time    0.40

 eigenvalue-minimisations  :   523
 total energy-change (2. order) : 0.1654131E-02  (-0.2428478E-03)
 number of electron       4.9999998 magnetization       0.1505733
 augmentation part        0.3996933 magnetization       0.0098828

 Broyden mixing:
  rms(total) = 0.28118E-01    rms(broyden)= 0.28117E-01
  rms(prec ) = 0.49880E-01
  weight for this iteration     100.00

 eigenvalues of (default mixing * dielectric matrix)
  average eigenvalue GAMMA=   1.0295
  2.3144  1.3450  1.3450  1.2227  0.0323  0.8599  0.8599  0.6799  0.6064

 Free energy of the ion-electron system (eV)
  ---------------------------------------------------
  alpha Z        PSCENC =        30.03559250
  Ewald energy   TEWEN  =      -196.71241410
  -1/2 Hartree   DENC   =        -0.69878472
  -exchange  EXHF       =         0.00000000
  -V(xc)+E(xc)   XCENC  =       -66.05673293
  PAW double counting   =       218.47815540     -145.00452423
  entropy T*S    EENTRO =        -0.00028581
  eigenvalues    EBANDS =        17.49984015
  atomic energy  EATOM  =       130.57950032
  ---------------------------------------------------
  free energy    TOTEN  =       -11.87965341 eV

  energy without entropy =      -11.87936760  energy(sigma->0) =      -11.87955814


--------------------------------------------------------------------------------------------------------




----------------------------------------- Iteration    1(  15)  ---------------------------------------


    POTLOK:  cpu time    0.07: real time    0.07
    SETDIJ:  cpu time    0.02: real time    0.02
     EDDAV:  cpu time    0.18: real time    0.18
       DOS:  cpu time    0.00: real time    0.00
    CHARGE:  cpu time    0.03: real time    0.03
    MIXING:  cpu time    0.00: real time    0.00
    --------------------------------------------
      LOOP:  cpu time    0.29: real time    0.31

 eigenvalue-minimisations  :   271
 total energy-change (2. order) :-0.2621645E-03  (-0.4710114E-05)
 number of electron       4.9999998 magnetization       0.1428259
 augmentation part        0.3995785 magnetization       0.0039224

 Broyden mixing:
  rms(total) = 0.26045E-01    rms(broyden)= 0.26045E-01
  rms(prec ) = 0.51307E-01
  weight for this iteration     100.00

 eigenvalues of (default mixing * dielectric matrix)
  average eigenvalue GAMMA=   1.0184
  2.3095  1.3239  1.3239  0.0323  1.2410  0.9573  0.8796  0.8796  0.6183  0.6183

 Free energy of the ion-electron system (eV)
  ---------------------------------------------------
  alpha Z        PSCENC =        30.03559250
  Ewald energy   TEWEN  =      -196.71241410
  -1/2 Hartree   DENC   =        -0.70374039
  -exchange  EXHF       =         0.00000000
  -V(xc)+E(xc)   XCENC  =       -66.05904858
  PAW double counting   =       217.93117555     -144.45511212
  entropy T*S    EENTRO =        -0.00039953
  eigenvalues    EBANDS =        17.50453077
  atomic energy  EATOM  =       130.57950032
  ---------------------------------------------------
  free energy    TOTEN  =       -11.87991558 eV

  energy without entropy =      -11.87951605  energy(sigma->0) =      -11.87978240


--------------------------------------------------------------------------------------------------------




----------------------------------------- Iteration    1(  16)  ---------------------------------------


    POTLOK:  cpu time    0.06: real time    0.06
    SETDIJ:  cpu time    0.02: real time    0.02
     EDDAV:  cpu time    0.17: real time    0.17
       DOS:  cpu time    0.00: real time    0.00
    --------------------------------------------
      LOOP:  cpu time    0.26: real time    0.29

 eigenvalue-minimisations  :   256
 total energy-change (2. order) :-0.3832237E-04  (-0.8982557E-06)
 number of electron       4.9999998 magnetization       0.1428259
 augmentation part        0.3995785 magnetization       0.0039224

 Free energy of the ion-electron system (eV)
  ---------------------------------------------------
  alpha Z        PSCENC =        30.03559250
  Ewald energy   TEWEN  =      -196.71241410
  -1/2 Hartree   DENC   =        -0.70734651
  -exchange  EXHF       =         0.00000000
  -V(xc)+E(xc)   XCENC  =       -66.06099695
  PAW double counting   =       217.46163605     -143.98396211
  entropy T*S    EENTRO =        -0.00035099
  eigenvalues    EBANDS =        17.50838790
  atomic energy  EATOM  =       130.57950032
  ---------------------------------------------------
  free energy    TOTEN  =       -11.87995390 eV

  energy without entropy =      -11.87960291  energy(sigma->0) =      -11.87983690


--------------------------------------------------------------------------------------------------------




 average (electrostatic) potential at core
  the test charge radii are     1.2538
  (the norm of the test charge is              1.0000)
       1 -35.1314
 
 
 
 E-fermi :   5.5198     XC(G=0): -12.2700     alpha+bet :-13.2617


 spin component 1

 k-point   1 :       0.0833    0.0833    0.0833
  band No.  band energies     occupation 
      1      -0.7012      1.00000
      2       5.3740      1.00015
      3       5.3740      1.00015
      4       8.3576      0.00000
      5       9.2598      0.00000
      6       9.2598      0.00000
      7      20.0179      0.00000
      8      21.4924      0.00000
      9      22.5069      0.00000

 k-point   2 :       0.2500    0.0833    0.0833
  band No.  band energies     occupation 
      1       1.4218      1.00000
      2       4.3611      1.00000
      3       4.8953      1.00000
      4       9.4210      0.00000
      5      10.0229      0.00000
      6      11.6809      0.00000
      7      19.0751      0.00000
      8      19.6141      0.00000
      9      20.0405      0.00000

 k-point   3 :       0.4167    0.0833    0.0833
  band No.  band energies     occupation 
      1       1.8509      1.00000
      2       3.9862      1.00000
      3       6.3281      0.00000
      4       9.6157      0.00000
      5      10.4107      0.00000
      6      14.1035      0.00000
      7      15.7349      0.00000
      8      17.9729      0.00000
      9      20.0268      0.00000

 k-point   4 :      -0.0833    0.0833    0.0833
  band No.  band energies     occupation 
      1      -1.7412      1.00000
      2       6.2206      0.00000
      3       6.2207      0.00000
      4       6.5626      0.00000
      5       8.5475      0.00000
      6       9.8263      0.00000
      7      20.0188      0.00000
      8      21.3843      0.00000
      9      21.4099      0.00000

 k-point   5 :       0.2500    0.2500    0.0833
  band No.  band energies     occupation 
      1       3.0447      1.00000
      2       4.1775      1.00000
      3       4.7695      1.00000
      4       9.9217      0.00000
      5      10.3606      0.00000
      6      14.6136      0.00000
      7      15.3214      0.00000
      8      19.0188      0.00000
      9      20.0250      0.00000

 k-point   6 :      -0.2500    0.2500    0.0833
  band No.  band energies     occupation 
      1       0.1676      1.00000
      2       5.3071      1.00000
      3       5.4537      1.03418
      4       7.9984      0.00000
      5       8.7143      0.00000
      6      10.2648      0.00000
      7      20.0022      0.00000
      8      20.3934      0.00000
      9      22.4163      0.00000

 k-point   7 :      -0.4167    0.4167    0.0833
  band No.  band energies     occupation 
      1       1.4803      1.00000
      2       4.4889      1.00000
      3       5.7877      0.00000
      4       8.8020      0.00000
      5      10.6988      0.00000
      6      12.2125      0.00000
      7      17.4840      0.00000
      8      18.9554      0.00000
      9      20.0310      0.00000

 k-point   8 :      -0.2500    0.4167    0.0833
  band No.  band energies     occupation 
      1       2.0657      1.00000
      2       4.2595      1.00000
      3       5.4123      1.00478
      4       8.1022      0.00000
      5      10.1707      0.00000
      6      11.7827      0.00000
      7      18.1907      0.00000
      8      20.0283      0.00000
      9      21.8705      0.00000

 k-point   9 :      -0.4167   -0.4167    0.0833
  band No.  band energies     occupation 
      1       2.6961      1.00000
      2       4.5185      1.00000
      3       4.8289      1.00000
      4       8.6458      0.00000
      5      10.8267      0.00000
      6      14.9486      0.00000
      7      15.3769      0.00000
      8      19.2061      0.00000
      9      20.0271      0.00000

 k-point  10 :       0.2500    0.2500    0.2500
  band No.  band energies     occupation 
      1       4.3322      1.00000
      2       4.3322      1.00000
      3       4.3323      1.00000
      4      10.6021      0.00000
      5      10.6021      0.00000
      6      12.3451      0.00000
      7      18.1471      0.00000
      8      18.1471      0.00000
      9      18.1471      0.00000

 k-point  11 :      -0.2500    0.2500    0.2500
  band No.  band energies     occupation 
      1       1.7799      1.00000
      2       4.6779      1.00000
      3       6.7921      0.00000
      4       6.7922      0.00000
      5       8.7045      0.00000
      6      10.4403      0.00000
      7      19.8573      0.00000
      8      20.0717      0.00000
      9      24.4141      0.00000

 k-point  12 :      -0.4167    0.4167    0.2500
  band No.  band energies     occupation 
      1       2.7590      1.00000
      2       3.5972      1.00000
      3       6.7278      0.00000
      4       7.3912      0.00000
      5      11.7157      0.00000
      6      11.7219      0.00000
      7      17.9535      0.00000
      8      20.0293      0.00000
      9      20.2836      0.00000

 k-point  13 :      -0.4167   -0.4167    0.2500
  band No.  band energies     occupation 
      1       2.9343      1.00000
      2       2.9343      1.00000
      3       6.3010      0.00000
      4      10.4346      0.00000
      5      10.4346      0.00000
      6      15.2507      0.00000
      7      16.3470      0.00000
      8      16.3471      0.00000
      9      20.0266      0.00000

 k-point  14 :      -0.4167    0.4167    0.4167
  band No.  band energies     occupation 
      1       2.1926      1.00000
      2       2.2805      1.00000
      3      10.0941      0.00000
      4      10.0942      0.00000
      5      11.6239      0.00000
      6      12.2799      0.00000
      7      16.6779      0.00000
      8      16.6780      0.00000
      9      20.0094      0.00000

 spin component 2

 k-point   1 :       0.0833    0.0833    0.0833
  band No.  band energies     occupation 
      1      -0.5905      1.00000
      2       5.4811      0.98321
      3       5.4811      0.98321
      4       8.4593      0.00000
      5       9.3316      0.00000
      6       9.3316      0.00000
      7      20.0641      0.00000
      8      21.6094      0.00000
      9      22.6027      0.00000

 k-point   2 :       0.2500    0.0833    0.0833
  band No.  band energies     occupation 
      1       1.5297      1.00000
      2       4.4699      1.00000
      3       4.9938      1.00000
      4       9.4986      0.00000
      5      10.0922      0.00000
      6      11.7711      0.00000
      7      19.1677      0.00000
      8      19.7063      0.00000
      9      20.0861      0.00000

 k-point   3 :       0.4167    0.0833    0.0833
  band No.  band energies     occupation 
      1       1.9581      1.00000
      2       4.0959      1.00000
      3       6.4179      0.00000
      4       9.6937      0.00000
      5      10.4777      0.00000
      6      14.1821      0.00000
      7      15.8372      0.00000
      8      18.0668      0.00000
      9      20.0724      0.00000

 k-point   4 :      -0.0833    0.0833    0.0833
  band No.  band energies     occupation 
      1      -1.6285      1.00000
      2       6.3284      0.00000
      3       6.3284      0.00000
      4       6.6697      0.00000
      5       8.6192      0.00000
      6       9.8916      0.00000
      7      20.0648      0.00000
      8      21.4924      0.00000
      9      21.5255      0.00000

 k-point   5 :       0.2500    0.2500    0.0833
  band No.  band energies     occupation 
      1       3.1533      1.00000
      2       4.2765      1.00000
      3       4.8688      1.00000
      4       9.9966      0.00000
      5      10.4308      0.00000
      6      14.7263      0.00000
      7      15.3984      0.00000
      8      19.0935      0.00000
      9      20.0709      0.00000

 k-point   6 :      -0.2500    0.2500    0.0833
  band No.  band energies     occupation 
      1       0.2763      1.00000
      2       5.4161      1.00627
      3       5.5508      0.07129
      4       8.0835      0.00000
      5       8.8153      0.00000
      6      10.3321      0.00000
      7      20.0507      0.00000
      8      20.4865      0.00000
      9      22.5053      0.00000

 k-point   7 :      -0.4167    0.4167    0.0833
  band No.  band energies     occupation 
      1       1.5873      1.00000
      2       4.5990      1.00000
      3       5.8746      0.00000
      4       8.8867      0.00000
      5      10.7706      0.00000
      6      12.2994      0.00000
      7      17.5726      0.00000
      8      19.0463      0.00000
      9      20.0764      0.00000

 k-point   8 :      -0.2500    0.4167    0.0833
  band No.  band energies     occupation 
      1       2.1706      1.00000
      2       4.3526      1.00000
      3       5.5161      0.56124
      4       8.1938      0.00000
      5      10.2512      0.00000
      6      11.8686      0.00000
      7      18.2809      0.00000
      8      20.0740      0.00000
      9      21.9453      0.00000

 k-point   9 :      -0.4167   -0.4167    0.0833
  band No.  band energies     occupation 
      1       2.7992      1.00000
      2       4.6221      1.00000
      3       4.9153      1.00000
      4       8.7361      0.00000
      5      10.9088      0.00000
      6      15.0247      0.00000
      7      15.4786      0.00000
      8      19.2849      0.00000
      9      20.0728      0.00000

 k-point  10 :       0.2500    0.2500    0.2500
  band No.  band energies     occupation 
      1       4.4338      1.00000
      2       4.4338      1.00000
      3       4.4338      1.00000
      4      10.6686      0.00000
      5      10.6686      0.00000
      6      12.4713      0.00000
      7      18.2223      0.00000
      8      18.2223      0.00000
      9      20.0786      0.00000

 k-point  11 :      -0.2500    0.2500    0.2500
  band No.  band energies     occupation 
      1       1.8805      1.00000
      2       4.7623      1.00000
      3       6.8964      0.00000
      4       6.8964      0.00000
      5       8.8058      0.00000
      6      10.5185      0.00000
      7      19.9342      0.00000
      8      20.1261      0.00000
      9      24.4997      0.00000

 k-point  12 :      -0.4167    0.4167    0.2500
  band No.  band energies     occupation 
      1       2.8520      1.00000
      2       3.6839      1.00000
      3       6.8322      0.00000
      4       7.4909      0.00000
      5      11.8044      0.00000
      6      11.8132      0.00000
      7      18.0380      0.00000
      8      20.0750      0.00000
      9      20.3789      0.00000

 k-point  13 :      -0.4167   -0.4167    0.2500
  band No.  band energies     occupation 
      1       3.0219      1.00000
      2       3.0219      1.00000
      3       6.4082      0.00000
      4      10.5275      0.00000
      5      10.5275      0.00000
      6      15.3512      0.00000
      7      16.4328      0.00000
      8      16.4329      0.00000
      9      20.0726      0.00000

 k-point  14 :      -0.4167    0.4167    0.4167
  band No.  band energies     occupation 
      1       2.2812      1.00000
      2       2.3688      1.00000
      3      10.1896      0.00000
      4      10.1896      0.00000
      5      11.7120      0.00000
      6      12.3832      0.00000
      7      16.7701      0.00000
      8      16.7702      0.00000
      9      20.0565      0.00000


--------------------------------------------------------------------------------------------------------


 soft charge-density along one line, spin component           1
         0         1         2         3         4         5         6         7         8         9
 total charge-density along one line
 
 soft charge-density along one line, spin component           2
         0         1         2         3         4         5         6         7         8         9
 total charge-density along one line
 
 pseudopotential strength for first ion, spin component:           1
 -6.591   0.000   0.000   0.000   0.000   0.088   0.000   0.000
  0.000  -6.591   0.000   0.000   0.000   0.000   0.088   0.000
  0.000   0.000  -6.600   0.000   0.000   0.000   0.000   0.088
  0.000   0.000   0.000  -6.591   0.000   0.000   0.000   0.000
  0.000   0.000   0.000   0.000  -6.600   0.000   0.000   0.000
  0.088   0.000   0.000   0.000   0.000   0.071   0.000   0.000
  0.000   0.088   0.000   0.000   0.000   0.000   0.071   0.000
  0.000   0.000   0.088   0.000   0.000   0.000   0.000   0.071
  0.000   0.000   0.000   0.088   0.000   0.000   0.000   0.000
  0.000   0.000   0.000   0.000   0.088   0.000   0.000   0.000
  0.000   0.000   0.000   0.000   0.000   0.000   0.000   0.000
  0.000   0.000   0.000   0.000   0.000   0.000   0.000   0.000
  0.000   0.000   0.000   0.000   0.000   0.000   0.000   0.000
  0.000   0.000   0.000   0.000   0.000   0.000   0.000   0.000
  0.000   0.000   0.000   0.000   0.000   0.000   0.000   0.000
  0.000   0.000   0.000   0.000   0.000   0.000   0.000   0.000
  0.000   0.000   0.000   0.000   0.000   0.000   0.000   0.000
  0.000   0.000   0.000   0.000   0.000   0.000   0.000   0.000
 pseudopotential strength for first ion, spin component:           2
 -6.590   0.000   0.000   0.000   0.000   0.088   0.000   0.000
  0.000  -6.590   0.000   0.000   0.000   0.000   0.088   0.000
  0.000   0.000  -6.601   0.000   0.000   0.000   0.000   0.088
  0.000   0.000   0.000  -6.590   0.000   0.000   0.000   0.000
  0.000   0.000   0.000   0.000  -6.601   0.000   0.000   0.000
  0.088   0.000   0.000   0.000   0.000   0.071   0.000   0.000
  0.000   0.088   0.000   0.000   0.000   0.000   0.071   0.000
  0.000   0.000   0.088   0.000   0.000   0.000   0.000   0.071
  0.000   0.000   0.000   0.088   0.000   0.000   0.000   0.000
  0.000   0.000   0.000   0.000   0.088   0.000   0.000   0.000
  0.000   0.000   0.000   0.000   0.000   0.000   0.000   0.000
  0.000   0.000   0.000   0.000   0.000   0.000   0.000   0.000
  0.000   0.000   0.000   0.000   0.000   0.000   0.000   0.000
  0.000   0.000   0.000   0.000   0.000   0.000   0.000   0.000
  0.000   0.000   0.000   0.000   0.000   0.000   0.000   0.000
  0.000   0.000   0.000   0.000   0.000   0.000   0.000   0.000
  0.000   0.000   0.000   0.000   0.000   0.000   0.000   0.000
  0.000   0.000   0.000   0.000   0.000   0.000   0.000   0.000
 total augmentation occupancy for first ion, spin component:           1
  0.792   0.000   0.000   0.000   0.000  -0.561   0.000   0.000   0.000   0.000   0.000   0.000   0.000   0.000   0.000   0.000
  0.000   0.792   0.000   0.000   0.000   0.000  -0.561   0.000   0.000   0.000   0.000   0.000   0.000   0.000   0.000   0.000
  0.000   0.000   0.543   0.000   0.000   0.000   0.000  -0.483   0.000   0.000   0.000   0.000   0.000   0.000   0.000   0.000
  0.000   0.000   0.000   0.792   0.000   0.000   0.000   0.000  -0.561   0.000   0.000   0.000   0.000   0.000   0.000   0.000
  0.000   0.000   0.000   0.000   0.543   0.000   0.000   0.000   0.000  -0.483   0.000   0.000   0.000   0.000   0.000   0.000
 -0.561   0.000   0.000   0.000   0.000   0.449   0.000   0.000   0.000   0.000   0.000   0.000   0.000   0.000   0.000   0.000
  0.000  -0.561   0.000   0.000   0.000   0.000   0.449   0.000   0.000   0.000   0.000   0.000   0.000   0.000   0.000   0.000
  0.000   0.000  -0.483   0.000   0.000   0.000   0.000   0.464   0.000   0.000   0.000   0.000   0.000   0.000   0.000   0.000
  0.000   0.000   0.000  -0.561   0.000   0.000   0.000   0.000   0.449   0.000   0.000   0.000   0.000   0.000   0.000   0.000
  0.000   0.000   0.000   0.000  -0.483   0.000   0.000   0.000   0.000   0.464   0.000   0.000   0.000   0.000   0.000   0.000
  0.000   0.000   0.000   0.000   0.000   0.000   0.000   0.000   0.000   0.000   1.383  -0.244   0.000   0.000   0.000   0.000
  0.000   0.000   0.000   0.000   0.000   0.000   0.000   0.000   0.000   0.000  -0.244   0.047   0.000   0.000   0.000   0.000
  0.000   0.000   0.000   0.000   0.000   0.000   0.000   0.000   0.000   0.000   0.000   0.000   0.284   0.000   0.000   0.011
  0.000   0.000   0.000   0.000   0.000   0.000   0.000   0.000   0.000   0.000   0.000   0.000   0.000   0.284   0.000   0.000
  0.000   0.000   0.000   0.000   0.000   0.000   0.000   0.000   0.000   0.000   0.000   0.000   0.000   0.000   0.284   0.000
  0.000   0.000   0.000   0.000   0.000   0.000   0.000   0.000   0.000   0.000   0.000   0.000   0.011   0.000   0.000   0.000
  0.000   0.000   0.000   0.000   0.000   0.000   0.000   0.000   0.000   0.000   0.000   0.000   0.000   0.011   0.000   0.000
  0.000   0.000   0.000   0.000   0.000   0.000   0.000   0.000   0.000   0.000   0.000   0.000   0.000   0.000   0.011   0.000
 total augmentation occupancy for first ion, spin component:           2
  0.035   0.000   0.000   0.000   0.000  -0.018   0.000   0.000   0.000   0.000   0.000   0.000   0.000   0.000   0.000   0.000
  0.000   0.035   0.000   0.000   0.000   0.000  -0.018   0.000   0.000   0.000   0.000   0.000   0.000   0.000   0.000   0.000
  0.000   0.000   0.016   0.000   0.000   0.000   0.000  -0.009   0.000   0.000   0.000   0.000   0.000   0.000   0.000   0.000
  0.000   0.000   0.000   0.035   0.000   0.000   0.000   0.000  -0.018   0.000   0.000   0.000   0.000   0.000   0.000   0.000
  0.000   0.000   0.000   0.000   0.016   0.000   0.000   0.000   0.000  -0.009   0.000   0.000   0.000   0.000   0.000   0.000
 -0.018   0.000   0.000   0.000   0.000   0.011   0.000   0.000   0.000   0.000   0.000   0.000   0.000   0.000   0.000   0.000
  0.000  -0.018   0.000   0.000   0.000   0.000   0.011   0.000   0.000   0.000   0.000   0.000   0.000   0.000   0.000   0.000
  0.000   0.000  -0.009   0.000   0.000   0.000   0.000   0.006   0.000   0.000   0.000   0.000   0.000   0.000   0.000   0.000
  0.000   0.000   0.000  -0.018   0.000   0.000   0.000   0.000   0.011   0.000   0.000   0.000   0.000   0.000   0.000   0.000
  0.000   0.000   0.000   0.000  -0.009   0.000   0.000   0.000   0.000   0.006   0.000   0.000   0.000   0.000   0.000   0.000
  0.000   0.000   0.000   0.000   0.000   0.000   0.000   0.000   0.000   0.000   0.005   0.000   0.000   0.000   0.000   0.000
  0.000   0.000   0.000   0.000   0.000   0.000   0.000   0.000   0.000   0.000   0.000   0.000   0.000   0.000   0.000   0.000
  0.000   0.000   0.000   0.000   0.000   0.000   0.000   0.000   0.000   0.000   0.000   0.000   0.009   0.000   0.000   0.000
  0.000   0.000   0.000   0.000   0.000   0.000   0.000   0.000   0.000   0.000   0.000   0.000   0.000   0.009   0.000   0.000
  0.000   0.000   0.000   0.000   0.000   0.000   0.000   0.000   0.000   0.000   0.000   0.000   0.000   0.000   0.009   0.000
  0.000   0.000   0.000   0.000   0.000   0.000   0.000   0.000   0.000   0.000   0.000   0.000   0.000   0.000   0.000   0.000
  0.000   0.000   0.000   0.000   0.000   0.000   0.000   0.000   0.000   0.000   0.000   0.000   0.000   0.000   0.000   0.000
  0.000   0.000   0.000   0.000   0.000   0.000   0.000   0.000   0.000   0.000   0.000   0.000   0.000   0.000   0.000   0.000


------------------------ aborting loop because EDIFF is reached ----------------------------------------


 


 total charge     
 
# of ion     s       p       d       tot
----------------------------------------
  1        0.689   0.658   3.349   4.696
 


 magnetization (x)
 
# of ion     s       p       d       tot
----------------------------------------
  1        0.002   0.019   0.125   0.146
 
    CHARGE:  cpu time    0.03: real time    0.03
    FORLOC:  cpu time    0.00: real time    0.00
    FORNL :  cpu time    0.07: real time    0.07
    STRESS:  cpu time    0.12: real time    0.12
    FORCOR:  cpu time    0.06: real time    0.07
    FORHAR:  cpu time    0.01: real time    0.01
    MIXING:  cpu time    0.00: real time    0.00

  FORCE on cell =-STRESS in cart. coord.  units (eV):
  Direction    XX          YY          ZZ          XY          YZ          ZX
  --------------------------------------------------------------------------------------
  Alpha Z    30.03559    30.03559    30.03559
  Ewald     -65.57080   -65.57080   -65.57080     0.00000     0.00000     0.00000
  Hartree     0.22083     0.22083     0.22083     0.00000     0.00000     0.00000
  E(xc)     -22.41515   -22.41515   -22.41515    -0.00006    -0.00006    -0.00006
  Local       3.90618     3.90618     3.90618     0.00000     0.00000     0.00000
  n-local    -8.92530    -8.76044    -7.58046     1.55307    -1.47200    -2.14979
  augment     2.88168     2.88169     2.88168    -0.00002    -0.00002    -0.00002
  Kinetic    57.53113    56.40556    60.57688    -1.40483     2.36564     1.98250
  Fock        0.00000     0.00000     0.00000     0.00000     0.00000     0.00000
  -------------------------------------------------------------------------------------
  Total      -1.19254    -1.19254    -1.19254     0.00000     0.00000     0.00000
  in kB    -103.48560  -103.48560  -103.48560     0.00000     0.00000     0.00000
  external pressure =     -103.49 kB  Pullay stress =        0.00 kB


 VOLUME and BASIS-vectors are now :
 -----------------------------------------------------------------------------
  energy-cutoff  :      200.00
  volume of cell :       18.46
      direct lattice vectors                 reciprocal lattice vectors
    -1.665000000  1.665000000  1.665000000     0.000000000  0.300300300  0.300300300
     1.665000000 -1.665000000  1.665000000     0.300300300  0.000000000  0.300300300
     1.665000000  1.665000000 -1.665000000     0.300300300  0.300300300  0.000000000

  length of vectors
     2.883864595  2.883864595  2.883864595     0.424688757  0.424688757  0.424688757


 FORCES acting on ions
    electron-ion (+dipol)            ewald-force                    non-local-force                 convergence-correction
 -----------------------------------------------------------------------------------------------
   -.279E-14 -.318E-15 0.291E-14   0.348E-16 0.336E-15 0.289E-15   -.199E-22 -.662E-23 -.331E-23   -.471E-16 0.563E-15 0.562E-15
 -----------------------------------------------------------------------------------------------
   -.279E-14 -.318E-15 0.291E-14   0.348E-16 0.336E-15 0.289E-15   -.199E-22 -.662E-23 -.331E-23   -.471E-16 0.563E-15 0.562E-15
 
 
 POSITION                                       TOTAL-FORCE (eV/Angst)
 -----------------------------------------------------------------------------------
      0.00000      0.00000      0.00000         0.000000      0.000000      0.000000
 -----------------------------------------------------------------------------------
    total drift:                                0.000000      0.000000      0.000000


--------------------------------------------------------------------------------------------------------



  FREE ENERGIE OF THE ION-ELECTRON SYSTEM (eV)
  ---------------------------------------------------
  free  energy   TOTEN  =       -11.879954 eV

  energy  without entropy=      -11.879603  energy(sigma->0) =      -11.879837
 


--------------------------------------------------------------------------------------------------------


    POTLOK:  cpu time    0.09: real time    0.09


--------------------------------------------------------------------------------------------------------


 writing wavefunctions
     LOOP+:  cpu time    6.26: real time    7.43
    4ORBIT:  cpu time    0.00: real time    0.00
 


 total charge     
 
# of ion     s       p       d       tot
----------------------------------------
  1        0.689   0.658   3.349   4.696
 


 magnetization (x)
 
# of ion     s       p       d       tot
----------------------------------------
  1        0.002   0.019   0.125   0.146
 

 total amount of memory used by VASP on root node    33573. kBytes
========================================================================

   base      :      30000. kBytes
   nonl-proj :        260. kBytes
   fftplans  :        800. kBytes
   grid      :       1894. kBytes
   one-center:         31. kBytes
   wavefun   :        588. kBytes
 
  
  
 General timing and accounting informations for this job:
 ========================================================
  
                  Total CPU time used (sec):        6.569
                            User time (sec):        6.503
                          System time (sec):        0.066
                         Elapsed time (sec):        8.304
  
                   Maximum memory used (kb):           0.
                   Average memory used (kb):           0.
  
                          Minor page faults:         5878
                          Major page faults:            0
                 Voluntary context switches:          549
