PROCAR lm decomposed
# of k-points:   14         # of bands:   9         # of ions:   1

 k-point    1 :    0.08333333 0.08333333 0.08333333     weight = 0.03703704

band   1 # energy   -0.70122673 # occ.  1.00000000
 
ion      s     py     pz     px    dxy    dyz    dz2    dxz    dx2    tot
  1  0.724  0.037  0.037  0.037  0.008  0.008  0.000  0.008  0.000  0.861
 
band   2 # energy    5.37400758 # occ.  1.00014878
 
ion      s     py     pz     px    dxy    dyz    dz2    dxz    dx2    tot
  1  0.000  0.000  0.010  0.011  0.436  0.465  0.039  0.018  0.016  0.996
 
band   3 # energy    5.37400758 # occ.  1.00014878
 
ion      s     py     pz     px    dxy    dyz    dz2    dxz    dx2    tot
  1  0.000  0.014  0.004  0.004  0.177  0.148  0.016  0.595  0.039  0.996
 
band   4 # energy    8.35761679 # occ.  0.00000000
 
ion      s     py     pz     px    dxy    dyz    dz2    dxz    dx2    tot
  1  0.002  0.023  0.023  0.023  0.306  0.306  0.000  0.306  0.000  0.989
 
band   5 # energy    9.25975823 # occ.  0.00000000
 
ion      s     py     pz     px    dxy    dyz    dz2    dxz    dx2    tot
  1  0.000  0.000  0.000  0.000  0.040  0.043  0.582  0.002  0.236  0.902
 
band   6 # energy    9.25975824 # occ.  0.00000000
 
ion      s     py     pz     px    dxy    dyz    dz2    dxz    dx2    tot
  1  0.000  0.000  0.000  0.000  0.016  0.014  0.236  0.054  0.582  0.902
 
band   7 # energy   20.01789748 # occ.  0.00000000
 
ion      s     py     pz     px    dxy    dyz    dz2    dxz    dx2    tot
  1 43.757  0.000  0.000  0.000  0.000  0.000  0.000  0.000  0.000 43.757
 
band   8 # energy   21.49239071 # occ.  0.00000000
 
ion      s     py     pz     px    dxy    dyz    dz2    dxz    dx2    tot
  1  0.000  0.000  0.000  0.000  0.000  0.000  0.000  0.000  0.000  0.000
 
band   9 # energy   22.50693543 # occ.  0.00000000
 
ion      s     py     pz     px    dxy    dyz    dz2    dxz    dx2    tot
  1  0.000  0.002  0.046  0.049  0.043  0.046  0.142  0.002  0.058  0.388
 

 k-point    2 :    0.25000000 0.08333333 0.08333333     weight = 0.11111111

band   1 # energy    1.42178621 # occ.  1.00000000
 
ion      s     py     pz     px    dxy    dyz    dz2    dxz    dx2    tot
  1  0.472  0.059  0.059  0.040  0.005  0.224  0.014  0.005  0.042  0.920
 
band   2 # energy    4.36109283 # occ.  1.00000000
 
ion      s     py     pz     px    dxy    dyz    dz2    dxz    dx2    tot
  1  0.000  0.017  0.017  0.000  0.477  0.000  0.017  0.477  0.006  1.012
 
band   3 # energy    4.89534310 # occ.  1.00000000
 
ion      s     py     pz     px    dxy    dyz    dz2    dxz    dx2    tot
  1  0.041  0.117  0.117  0.011  0.087  0.320  0.037  0.087  0.111  0.928
 
band   4 # energy    9.42101453 # occ.  0.00000000
 
ion      s     py     pz     px    dxy    dyz    dz2    dxz    dx2    tot
  1  0.006  0.003  0.003  0.001  0.023  0.211  0.170  0.023  0.511  0.950
 
band   5 # energy   10.02290190 # occ.  0.00000000
 
ion      s     py     pz     px    dxy    dyz    dz2    dxz    dx2    tot
  1  0.000  0.001  0.001  0.000  0.019  0.000  0.673  0.019  0.224  0.937
 
band   6 # energy   11.68088796 # occ.  0.00000000
 
ion      s     py     pz     px    dxy    dyz    dz2    dxz    dx2    tot
  1  0.002  0.053  0.053  0.060  0.336  0.109  0.000  0.336  0.000  0.948
 
band   7 # energy   19.07507480 # occ.  0.00000000
 
ion      s     py     pz     px    dxy    dyz    dz2    dxz    dx2    tot
  1  0.499  0.128  0.128  0.015  0.008  0.216  0.011  0.008  0.034  1.046
 
band   8 # energy   19.61407350 # occ.  0.00000000
 
ion      s     py     pz     px    dxy    dyz    dz2    dxz    dx2    tot
  1  0.000  0.107  0.107  0.000  0.030  0.000  0.064  0.030  0.021  0.359
 
band   9 # energy   20.04046629 # occ.  0.00000000
 
ion      s     py     pz     px    dxy    dyz    dz2    dxz    dx2    tot
  1 43.753  0.003  0.003  0.000  0.000  0.006  0.000  0.000  0.001 43.765
 

 k-point    3 :    0.41666667 0.08333333 0.08333333     weight = 0.05555556

band   1 # energy    1.85089923 # occ.  1.00000000
 
ion      s     py     pz     px    dxy    dyz    dz2    dxz    dx2    tot
  1  0.252  0.000  0.000  0.047  0.000  0.479  0.047  0.000  0.142  0.967
 
band   2 # energy    3.98617674 # occ.  1.00000000
 
ion      s     py     pz     px    dxy    dyz    dz2    dxz    dx2    tot
  1  0.000  0.020  0.020  0.000  0.494  0.000  0.000  0.494  0.000  1.027
 
band   3 # energy    6.32814567 # occ.  0.00000000
 
ion      s     py     pz     px    dxy    dyz    dz2    dxz    dx2    tot
  1  0.000  0.346  0.346  0.000  0.094  0.000  0.000  0.094  0.000  0.881
 
band   4 # energy    9.61568353 # occ.  0.00000000
 
ion      s     py     pz     px    dxy    dyz    dz2    dxz    dx2    tot
  1  0.065  0.000  0.000  0.000  0.000  0.173  0.182  0.000  0.547  0.967
 
band   5 # energy   10.41067637 # occ.  0.00000000
 
ion      s     py     pz     px    dxy    dyz    dz2    dxz    dx2    tot
  1  0.000  0.000  0.000  0.000  0.000  0.000  0.733  0.000  0.244  0.978
 
band   6 # energy   14.10354320 # occ.  0.00000000
 
ion      s     py     pz     px    dxy    dyz    dz2    dxz    dx2    tot
  1  0.000  0.063  0.063  0.000  0.409  0.000  0.000  0.409  0.000  0.945
 
band   7 # energy   15.73494070 # occ.  0.00000000
 
ion      s     py     pz     px    dxy    dyz    dz2    dxz    dx2    tot
  1  0.491  0.000  0.000  0.054  0.000  0.347  0.002  0.000  0.005  0.898
 
band   8 # energy   17.97291594 # occ.  0.00000000
 
ion      s     py     pz     px    dxy    dyz    dz2    dxz    dx2    tot
  1  0.000  0.115  0.115  0.000  0.033  0.000  0.000  0.033  0.000  0.297
 
band   9 # energy   20.02677903 # occ.  0.00000000
 
ion      s     py     pz     px    dxy    dyz    dz2    dxz    dx2    tot
  1 44.063  0.000  0.000  0.000  0.000  0.001  0.000  0.000  0.000 44.064
 

 k-point    4 :   -0.08333333 0.08333333 0.08333333     weight = 0.02777778

band   1 # energy   -1.74120007 # occ.  1.00000000
 
ion      s     py     pz     px    dxy    dyz    dz2    dxz    dx2    tot
  1  0.795  0.000  0.000  0.044  0.000  0.000  0.000  0.000  0.001  0.841
 
band   2 # energy    6.22063911 # occ.  0.00000000
 
ion      s     py     pz     px    dxy    dyz    dz2    dxz    dx2    tot
  1  0.000  0.007  0.007  0.000  0.508  0.000  0.000  0.508  0.000  1.031
 
band   3 # energy    6.22071741 # occ.  0.00000000
 
ion      s     py     pz     px    dxy    dyz    dz2    dxz    dx2    tot
  1  0.000  0.007  0.007  0.000  0.508  0.000  0.000  0.508  0.000  1.031
 
band   4 # energy    6.56255528 # occ.  0.00000000
 
ion      s     py     pz     px    dxy    dyz    dz2    dxz    dx2    tot
  1  0.000  0.000  0.000  0.000  0.000  1.045  0.000  0.000  0.000  1.045
 
band   5 # energy    8.54747488 # occ.  0.00000000
 
ion      s     py     pz     px    dxy    dyz    dz2    dxz    dx2    tot
  1  0.000  0.000  0.000  0.000  0.000  0.000  0.646  0.000  0.215  0.862
 
band   6 # energy    9.82628827 # occ.  0.00000000
 
ion      s     py     pz     px    dxy    dyz    dz2    dxz    dx2    tot
  1  0.001  0.000  0.000  0.001  0.000  0.000  0.229  0.000  0.688  0.920
 
band   7 # energy   20.01876669 # occ.  0.00000000
 
ion      s     py     pz     px    dxy    dyz    dz2    dxz    dx2    tot
  1 43.814  0.000  0.000  0.000  0.000  0.000  0.000  0.000  0.000 43.814
 
band   8 # energy   21.38431814 # occ.  0.00000000
 
ion      s     py     pz     px    dxy    dyz    dz2    dxz    dx2    tot
  1  0.000  0.000  0.000  0.000  0.000  0.000  0.107  0.000  0.036  0.143
 
band   9 # energy   21.40987559 # occ.  0.00000000
 
ion      s     py     pz     px    dxy    dyz    dz2    dxz    dx2    tot
  1  0.000  0.000  0.000  0.000  0.019  0.000  0.000  0.019  0.000  0.037
 

 k-point    5 :    0.25000000 0.25000000 0.08333333     weight = 0.11111111

band   1 # energy    3.04474853 # occ.  1.00000000
 
ion      s     py     pz     px    dxy    dyz    dz2    dxz    dx2    tot
  1  0.187  0.052  0.005  0.052  0.098  0.275  0.033  0.275  0.000  0.978
 
band   2 # energy    4.17746105 # occ.  1.00000000
 
ion      s     py     pz     px    dxy    dyz    dz2    dxz    dx2    tot
  1  0.000  0.112  0.000  0.112  0.000  0.286  0.000  0.286  0.156  0.952
 
band   3 # energy    4.76953966 # occ.  1.00000000
 
ion      s     py     pz     px    dxy    dyz    dz2    dxz    dx2    tot
  1  0.042  0.029  0.291  0.029  0.532  0.001  0.019  0.001  0.000  0.944
 
band   4 # energy    9.92171161 # occ.  0.00000000
 
ion      s     py     pz     px    dxy    dyz    dz2    dxz    dx2    tot
  1  0.000  0.005  0.000  0.005  0.000  0.102  0.000  0.102  0.744  0.957
 
band   5 # energy   10.36062479 # occ.  0.00000000
 
ion      s     py     pz     px    dxy    dyz    dz2    dxz    dx2    tot
  1  0.028  0.000  0.002  0.000  0.013  0.019  0.897  0.019  0.000  0.978
 
band   6 # energy   14.61360214 # occ.  0.00000000
 
ion      s     py     pz     px    dxy    dyz    dz2    dxz    dx2    tot
  1  0.591  0.055  0.031  0.055  0.000  0.073  0.003  0.073  0.000  0.882
 
band   7 # energy   15.32142737 # occ.  0.00000000
 
ion      s     py     pz     px    dxy    dyz    dz2    dxz    dx2    tot
  1  0.004  0.057  0.150  0.057  0.361  0.134  0.027  0.134  0.000  0.925
 
band   8 # energy   19.01882417 # occ.  0.00000000
 
ion      s     py     pz     px    dxy    dyz    dz2    dxz    dx2    tot
  1  0.000  0.171  0.000  0.171  0.000  0.165  0.000  0.165  0.132  0.803
 
band   9 # energy   20.02501380 # occ.  0.00000000
 
ion      s     py     pz     px    dxy    dyz    dz2    dxz    dx2    tot
  1 43.815  0.000  0.000  0.000  0.000  0.001  0.000  0.001  0.000 43.818
 

 k-point    6 :   -0.25000000 0.25000000 0.08333333     weight = 0.11111111

band   1 # energy    0.16763665 # occ.  1.00000000
 
ion      s     py     pz     px    dxy    dyz    dz2    dxz    dx2    tot
  1  0.635  0.023  0.000  0.132  0.058  0.000  0.021  0.000  0.010  0.880
 
band   2 # energy    5.30706067 # occ.  1.00000002
 
ion      s     py     pz     px    dxy    dyz    dz2    dxz    dx2    tot
  1  0.000  0.000  0.013  0.000  0.000  0.403  0.000  0.601  0.000  1.017
 
band   3 # energy    5.45365950 # occ.  1.03417868
 
ion      s     py     pz     px    dxy    dyz    dz2    dxz    dx2    tot
  1  0.011  0.069  0.000  0.040  0.516  0.000  0.238  0.000  0.042  0.916
 
band   4 # energy    7.99837575 # occ.  0.00000000
 
ion      s     py     pz     px    dxy    dyz    dz2    dxz    dx2    tot
  1  0.000  0.011  0.000  0.011  0.332  0.000  0.404  0.000  0.144  0.903
 
band   5 # energy    8.71431097 # occ.  0.00000000
 
ion      s     py     pz     px    dxy    dyz    dz2    dxz    dx2    tot
  1  0.000  0.000  0.045  0.000  0.000  0.586  0.000  0.338  0.000  0.969
 
band   6 # energy   10.26483076 # occ.  0.00000000
 
ion      s     py     pz     px    dxy    dyz    dz2    dxz    dx2    tot
  1  0.017  0.000  0.000  0.004  0.013  0.000  0.197  0.000  0.714  0.946
 
band   7 # energy   20.00219092 # occ.  0.00000000
 
ion      s     py     pz     px    dxy    dyz    dz2    dxz    dx2    tot
  1 41.514  0.000  0.000  0.009  0.003  0.000  0.000  0.000  0.001 41.526
 
band   8 # energy   20.39344483 # occ.  0.00000000
 
ion      s     py     pz     px    dxy    dyz    dz2    dxz    dx2    tot
  1  2.313  0.001  0.000  0.183  0.061  0.000  0.001  0.000  0.038  2.597
 
band   9 # energy   22.41632641 # occ.  0.00000000
 
ion      s     py     pz     px    dxy    dyz    dz2    dxz    dx2    tot
  1  0.176  0.126  0.000  0.026  0.066  0.000  0.210  0.000  0.086  0.690
 

 k-point    7 :   -0.41666667 0.41666667 0.08333333     weight = 0.11111111

band   1 # energy    1.48029968 # occ.  1.00000000
 
ion      s     py     pz     px    dxy    dyz    dz2    dxz    dx2    tot
  1  0.316  0.001  0.000  0.048  0.373  0.000  0.210  0.000  0.002  0.949
 
band   2 # energy    4.48888459 # occ.  1.00000000
 
ion      s     py     pz     px    dxy    dyz    dz2    dxz    dx2    tot
  1  0.000  0.000  0.012  0.000  0.000  0.482  0.000  0.528  0.000  1.023
 
band   3 # energy    5.78767669 # occ.  0.00000000
 
ion      s     py     pz     px    dxy    dyz    dz2    dxz    dx2    tot
  1  0.044  0.244  0.000  0.247  0.038  0.000  0.111  0.000  0.179  0.863
 
band   4 # energy    8.80200714 # occ.  0.00000000
 
ion      s     py     pz     px    dxy    dyz    dz2    dxz    dx2    tot
  1  0.032  0.030  0.000  0.040  0.297  0.000  0.529  0.000  0.000  0.928
 
band   5 # energy   10.69879205 # occ.  0.00000000
 
ion      s     py     pz     px    dxy    dyz    dz2    dxz    dx2    tot
  1  0.039  0.045  0.000  0.074  0.011  0.000  0.032  0.000  0.771  0.972
 
band   6 # energy   12.21252082 # occ.  0.00000000
 
ion      s     py     pz     px    dxy    dyz    dz2    dxz    dx2    tot
  1  0.000  0.000  0.037  0.000  0.000  0.506  0.000  0.412  0.000  0.956
 
band   7 # energy   17.48398031 # occ.  0.00000000
 
ion      s     py     pz     px    dxy    dyz    dz2    dxz    dx2    tot
  1  0.258  0.015  0.000  0.082  0.374  0.000  0.005  0.000  0.004  0.738
 
band   8 # energy   18.95540408 # occ.  0.00000000
 
ion      s     py     pz     px    dxy    dyz    dz2    dxz    dx2    tot
  1  0.061  0.204  0.000  0.038  0.033  0.000  0.101  0.000  0.027  0.465
 
band   9 # energy   20.03096024 # occ.  0.00000000
 
ion      s     py     pz     px    dxy    dyz    dz2    dxz    dx2    tot
  1 44.043  0.001  0.000  0.000  0.002  0.000  0.001  0.000  0.000 44.047
 

 k-point    8 :   -0.25000000 0.41666667 0.08333333     weight = 0.11111111

band   1 # energy    2.06570496 # occ.  1.00000000
 
ion      s     py     pz     px    dxy    dyz    dz2    dxz    dx2    tot
  1  0.391  0.011  0.011  0.169  0.106  0.009  0.029  0.106  0.088  0.921
 
band   2 # energy    4.25951087 # occ.  1.00000000
 
ion      s     py     pz     px    dxy    dyz    dz2    dxz    dx2    tot
  1  0.000  0.052  0.052  0.000  0.161  0.000  0.356  0.161  0.119  0.902
 
band   3 # energy    5.41226961 # occ.  1.00477894
 
ion      s     py     pz     px    dxy    dyz    dz2    dxz    dx2    tot
  1  0.007  0.024  0.024  0.116  0.164  0.441  0.007  0.164  0.021  0.967
 
band   4 # energy    8.10220176 # occ.  0.00000000
 
ion      s     py     pz     px    dxy    dyz    dz2    dxz    dx2    tot
  1  0.000  0.022  0.022  0.000  0.259  0.000  0.265  0.259  0.088  0.916
 
band   5 # energy   10.17070330 # occ.  0.00000000
 
ion      s     py     pz     px    dxy    dyz    dz2    dxz    dx2    tot
  1  0.084  0.002  0.002  0.004  0.037  0.160  0.158  0.037  0.475  0.957
 
band   6 # energy   11.78268680 # occ.  0.00000000
 
ion      s     py     pz     px    dxy    dyz    dz2    dxz    dx2    tot
  1  0.033  0.044  0.044  0.077  0.108  0.356  0.046  0.108  0.137  0.952
 
band   7 # energy   18.19074604 # occ.  0.00000000
 
ion      s     py     pz     px    dxy    dyz    dz2    dxz    dx2    tot
  1  0.183  0.029  0.029  0.153  0.110  0.000  0.005  0.110  0.015  0.634
 
band   8 # energy   20.02831518 # occ.  0.00000000
 
ion      s     py     pz     px    dxy    dyz    dz2    dxz    dx2    tot
  1 43.953  0.000  0.000  0.000  0.000  0.000  0.000  0.000  0.000 43.955
 
band   9 # energy   21.87045061 # occ.  0.00000000
 
ion      s     py     pz     px    dxy    dyz    dz2    dxz    dx2    tot
  1  0.000  0.191  0.191  0.000  0.097  0.000  0.234  0.097  0.078  0.889
 

 k-point    9 :   -0.41666667-0.41666667 0.08333333     weight = 0.11111111

band   1 # energy    2.69610754 # occ.  1.00000000
 
ion      s     py     pz     px    dxy    dyz    dz2    dxz    dx2    tot
  1  0.179  0.023  0.030  0.023  0.364  0.028  0.271  0.028  0.000  0.945
 
band   2 # energy    4.51849808 # occ.  1.00000000
 
ion      s     py     pz     px    dxy    dyz    dz2    dxz    dx2    tot
  1  0.022  0.014  0.055  0.014  0.007  0.353  0.151  0.353  0.000  0.969
 
band   3 # energy    4.82887651 # occ.  1.00000000
 
ion      s     py     pz     px    dxy    dyz    dz2    dxz    dx2    tot
  1  0.000  0.181  0.000  0.181  0.000  0.041  0.000  0.041  0.437  0.881
 
band   4 # energy    8.64580897 # occ.  0.00000000
 
ion      s     py     pz     px    dxy    dyz    dz2    dxz    dx2    tot
  1  0.065  0.007  0.016  0.007  0.255  0.075  0.416  0.075  0.000  0.917
 
band   5 # energy   10.82665272 # occ.  0.00000000
 
ion      s     py     pz     px    dxy    dyz    dz2    dxz    dx2    tot
  1  0.000  0.082  0.000  0.082  0.000  0.200  0.000  0.200  0.396  0.962
 
band   6 # energy   14.94862137 # occ.  0.00000000
 
ion      s     py     pz     px    dxy    dyz    dz2    dxz    dx2    tot
  1  0.000  0.161  0.000  0.161  0.000  0.258  0.000  0.258  0.145  0.984
 
band   7 # energy   15.37686049 # occ.  0.00000000
 
ion      s     py     pz     px    dxy    dyz    dz2    dxz    dx2    tot
  1  0.471  0.006  0.051  0.006  0.307  0.015  0.001  0.015  0.000  0.870
 
band   8 # energy   19.20606941 # occ.  0.00000000
 
ion      s     py     pz     px    dxy    dyz    dz2    dxz    dx2    tot
  1  0.003  0.073  0.349  0.073  0.125  0.052  0.187  0.052  0.000  0.912
 
band   9 # energy   20.02709681 # occ.  0.00000000
 
ion      s     py     pz     px    dxy    dyz    dz2    dxz    dx2    tot
  1 44.003  0.000  0.000  0.000  0.001  0.000  0.000  0.000  0.000 44.004
 

 k-point   10 :    0.25000000 0.25000000 0.25000000     weight = 0.00925926

band   1 # energy    4.33220448 # occ.  1.00000000
 
ion      s     py     pz     px    dxy    dyz    dz2    dxz    dx2    tot
  1  0.000  0.137  0.082  0.068  0.192  0.159  0.000  0.319  0.000  0.956
 
band   2 # energy    4.33220448 # occ.  1.00000000
 
ion      s     py     pz     px    dxy    dyz    dz2    dxz    dx2    tot
  1  0.000  0.055  0.109  0.123  0.255  0.288  0.000  0.127  0.000  0.956
 
band   3 # energy    4.33229158 # occ.  1.00000000
 
ion      s     py     pz     px    dxy    dyz    dz2    dxz    dx2    tot
  1  0.000  0.096  0.096  0.096  0.223  0.223  0.000  0.223  0.000  0.956
 
band   4 # energy   10.60208942 # occ.  0.00000000
 
ion      s     py     pz     px    dxy    dyz    dz2    dxz    dx2    tot
  1  0.000  0.000  0.000  0.000  0.000  0.000  0.000  0.000  0.969  0.969
 
band   5 # energy   10.60208942 # occ.  0.00000000
 
ion      s     py     pz     px    dxy    dyz    dz2    dxz    dx2    tot
  1  0.000  0.000  0.000  0.000  0.000  0.000  0.969  0.000  0.000  0.969
 
band   6 # energy   12.34505179 # occ.  0.00000000
 
ion      s     py     pz     px    dxy    dyz    dz2    dxz    dx2    tot
  1  0.926  0.000  0.000  0.000  0.000  0.000  0.000  0.000  0.000  0.926
 
band   7 # energy   18.14712697 # occ.  0.00000000
 
ion      s     py     pz     px    dxy    dyz    dz2    dxz    dx2    tot
  1  0.000  0.150  0.090  0.075  0.138  0.114  0.000  0.230  0.000  0.796
 
band   8 # energy   18.14712697 # occ.  0.00000000
 
ion      s     py     pz     px    dxy    dyz    dz2    dxz    dx2    tot
  1  0.000  0.060  0.120  0.135  0.183  0.207  0.000  0.091  0.000  0.796
 
band   9 # energy   18.14712991 # occ.  0.00000000
 
ion      s     py     pz     px    dxy    dyz    dz2    dxz    dx2    tot
  1  0.000  0.105  0.105  0.105  0.161  0.161  0.000  0.160  0.000  0.796
 

 k-point   11 :   -0.25000000 0.25000000 0.25000000     weight = 0.02777778

band   1 # energy    1.77994643 # occ.  1.00000000
 
ion      s     py     pz     px    dxy    dyz    dz2    dxz    dx2    tot
  1  0.441  0.000  0.000  0.280  0.000  0.000  0.042  0.000  0.127  0.890
 
band   2 # energy    4.67786489 # occ.  1.00000000
 
ion      s     py     pz     px    dxy    dyz    dz2    dxz    dx2    tot
  1  0.000  0.000  0.000  0.000  0.000  0.000  0.623  0.000  0.208  0.830
 
band   3 # energy    6.79211533 # occ.  0.00000000
 
ion      s     py     pz     px    dxy    dyz    dz2    dxz    dx2    tot
  1  0.000  0.057  0.057  0.000  0.421  0.000  0.000  0.421  0.000  0.956
 
band   4 # energy    6.79218192 # occ.  0.00000000
 
ion      s     py     pz     px    dxy    dyz    dz2    dxz    dx2    tot
  1  0.000  0.057  0.057  0.000  0.421  0.000  0.000  0.421  0.000  0.956
 
band   5 # energy    8.70454709 # occ.  0.00000000
 
ion      s     py     pz     px    dxy    dyz    dz2    dxz    dx2    tot
  1  0.000  0.000  0.000  0.000  0.000  0.952  0.000  0.000  0.000  0.952
 
band   6 # energy   10.44027413 # occ.  0.00000000
 
ion      s     py     pz     px    dxy    dyz    dz2    dxz    dx2    tot
  1  0.167  0.000  0.000  0.026  0.000  0.000  0.194  0.000  0.583  0.970
 
band   7 # energy   19.85731033 # occ.  0.00000000
 
ion      s     py     pz     px    dxy    dyz    dz2    dxz    dx2    tot
  1  8.902  0.000  0.000  0.179  0.000  0.000  0.015  0.000  0.046  9.142
 
band   8 # energy   20.07172621 # occ.  0.00000000
 
ion      s     py     pz     px    dxy    dyz    dz2    dxz    dx2    tot
  1 35.094  0.000  0.000  0.051  0.000  0.000  0.004  0.000  0.013 35.162
 
band   9 # energy   24.41410080 # occ.  0.00000000
 
ion      s     py     pz     px    dxy    dyz    dz2    dxz    dx2    tot
  1  0.000  0.151  0.338  0.000  0.152  0.000  0.000  0.340  0.000  0.981
 

 k-point   12 :   -0.41666667 0.41666667 0.25000000     weight = 0.11111111

band   1 # energy    2.75899991 # occ.  1.00000000
 
ion      s     py     pz     px    dxy    dyz    dz2    dxz    dx2    tot
  1  0.111  0.004  0.000  0.126  0.102  0.000  0.517  0.000  0.043  0.904
 
band   2 # energy    3.59719022 # occ.  1.00000000
 
ion      s     py     pz     px    dxy    dyz    dz2    dxz    dx2    tot
  1  0.019  0.057  0.000  0.092  0.003  0.000  0.140  0.000  0.564  0.875
 
band   3 # energy    6.72784690 # occ.  0.00000000
 
ion      s     py     pz     px    dxy    dyz    dz2    dxz    dx2    tot
  1  0.000  0.000  0.103  0.000  0.000  0.327  0.000  0.527  0.000  0.956
 
band   4 # energy    7.39123020 # occ.  0.00000000
 
ion      s     py     pz     px    dxy    dyz    dz2    dxz    dx2    tot
  1  0.117  0.082  0.000  0.001  0.500  0.000  0.179  0.000  0.025  0.905
 
band   5 # energy   11.71567177 # occ.  0.00000000
 
ion      s     py     pz     px    dxy    dyz    dz2    dxz    dx2    tot
  1  0.000  0.000  0.033  0.000  0.000  0.623  0.000  0.287  0.000  0.943
 
band   6 # energy   11.72188704 # occ.  0.00000000
 
ion      s     py     pz     px    dxy    dyz    dz2    dxz    dx2    tot
  1  0.185  0.119  0.000  0.251  0.101  0.000  0.027  0.000  0.261  0.945
 
band   7 # energy   17.95351076 # occ.  0.00000000
 
ion      s     py     pz     px    dxy    dyz    dz2    dxz    dx2    tot
  1  0.168  0.247  0.000  0.065  0.342  0.000  0.001  0.000  0.061  0.884
 
band   8 # energy   20.02933946 # occ.  0.00000000
 
ion      s     py     pz     px    dxy    dyz    dz2    dxz    dx2    tot
  1 43.918  0.001  0.000  0.000  0.001  0.000  0.000  0.000  0.000 43.921
 
band   9 # energy   20.28360767 # occ.  0.00000000
 
ion      s     py     pz     px    dxy    dyz    dz2    dxz    dx2    tot
  1  0.000  0.000  0.665  0.000  0.000  0.003  0.000  0.269  0.000  0.937
 

 k-point   13 :   -0.41666667-0.41666667 0.25000000     weight = 0.03703704

band   1 # energy    2.93431179 # occ.  1.00000000
 
ion      s     py     pz     px    dxy    dyz    dz2    dxz    dx2    tot
  1  0.000  0.045  0.000  0.045  0.000  0.009  0.000  0.009  0.779  0.888
 
band   2 # energy    2.93432385 # occ.  1.00000000
 
ion      s     py     pz     px    dxy    dyz    dz2    dxz    dx2    tot
  1  0.000  0.015  0.060  0.015  0.012  0.003  0.779  0.003  0.000  0.888
 
band   3 # energy    6.30098685 # occ.  0.00000000
 
ion      s     py     pz     px    dxy    dyz    dz2    dxz    dx2    tot
  1  0.142  0.034  0.034  0.034  0.229  0.229  0.000  0.229  0.000  0.930
 
band   4 # energy   10.43459635 # occ.  0.00000000
 
ion      s     py     pz     px    dxy    dyz    dz2    dxz    dx2    tot
  1  0.000  0.104  0.000  0.104  0.000  0.325  0.000  0.325  0.065  0.924
 
band   5 # energy   10.43464622 # occ.  0.00000000
 
ion      s     py     pz     px    dxy    dyz    dz2    dxz    dx2    tot
  1  0.000  0.035  0.139  0.035  0.433  0.108  0.065  0.108  0.000  0.924
 
band   6 # energy   15.25070775 # occ.  0.00000000
 
ion      s     py     pz     px    dxy    dyz    dz2    dxz    dx2    tot
  1  0.399  0.050  0.050  0.050  0.101  0.101  0.000  0.101  0.000  0.851
 
band   7 # energy   16.34698030 # occ.  0.00000000
 
ion      s     py     pz     px    dxy    dyz    dz2    dxz    dx2    tot
  1  0.000  0.287  0.000  0.287  0.000  0.165  0.000  0.165  0.073  0.979
 
band   8 # energy   16.34712642 # occ.  0.00000000
 
ion      s     py     pz     px    dxy    dyz    dz2    dxz    dx2    tot
  1  0.000  0.096  0.383  0.096  0.220  0.055  0.073  0.055  0.000  0.979
 
band   9 # energy   20.02659955 # occ.  0.00000000
 
ion      s     py     pz     px    dxy    dyz    dz2    dxz    dx2    tot
  1 43.801  0.000  0.000  0.000  0.000  0.000  0.000  0.000  0.000 43.803
 

 k-point   14 :   -0.41666667 0.41666667 0.41666667     weight = 0.02777778

band   1 # energy    2.19264085 # occ.  1.00000000
 
ion      s     py     pz     px    dxy    dyz    dz2    dxz    dx2    tot
  1  0.000  0.000  0.000  0.000  0.000  0.000  0.676  0.000  0.225  0.901
 
band   2 # energy    2.28047822 # occ.  1.00000000
 
ion      s     py     pz     px    dxy    dyz    dz2    dxz    dx2    tot
  1  0.006  0.000  0.000  0.059  0.000  0.000  0.210  0.000  0.630  0.905
 
band   3 # energy   10.09409621 # occ.  0.00000000
 
ion      s     py     pz     px    dxy    dyz    dz2    dxz    dx2    tot
  1  0.000  0.113  0.113  0.000  0.347  0.000  0.000  0.347  0.000  0.919
 
band   4 # energy   10.09415147 # occ.  0.00000000
 
ion      s     py     pz     px    dxy    dyz    dz2    dxz    dx2    tot
  1  0.000  0.113  0.113  0.000  0.347  0.000  0.000  0.347  0.000  0.919
 
band   5 # energy   11.62386214 # occ.  0.00000000
 
ion      s     py     pz     px    dxy    dyz    dz2    dxz    dx2    tot
  1  0.000  0.000  0.000  0.000  0.000  0.943  0.000  0.000  0.000  0.943
 
band   6 # energy   12.27989860 # occ.  0.00000000
 
ion      s     py     pz     px    dxy    dyz    dz2    dxz    dx2    tot
  1  0.248  0.000  0.000  0.561  0.000  0.000  0.016  0.000  0.048  0.872
 
band   7 # energy   16.67790731 # occ.  0.00000000
 
ion      s     py     pz     px    dxy    dyz    dz2    dxz    dx2    tot
  1  0.000  0.308  0.308  0.000  0.157  0.000  0.000  0.157  0.000  0.929
 
band   8 # energy   16.67802599 # occ.  0.00000000
 
ion      s     py     pz     px    dxy    dyz    dz2    dxz    dx2    tot
  1  0.000  0.308  0.308  0.000  0.157  0.000  0.000  0.157  0.000  0.929
 
band   9 # energy   20.00944467 # occ.  0.00000000
 
ion      s     py     pz     px    dxy    dyz    dz2    dxz    dx2    tot
  1 42.750  0.000  0.000  0.003  0.000  0.000  0.000  0.000  0.000 42.754
 
# of k-points:   14         # of bands:   9         # of ions:   1

 k-point    1 :    0.08333333 0.08333333 0.08333333     weight = 0.03703704

band   1 # energy   -0.59047033 # occ.  1.00000000
 
ion      s     py     pz     px    dxy    dyz    dz2    dxz    dx2    tot
  1  0.724  0.037  0.037  0.037  0.008  0.008  0.000  0.008  0.000  0.861
 
band   2 # energy    5.48105152 # occ.  0.98321366
 
ion      s     py     pz     px    dxy    dyz    dz2    dxz    dx2    tot
  1  0.000  0.006  0.002  0.014  0.079  0.572  0.007  0.267  0.048  0.996
 
band   3 # energy    5.48105153 # occ.  0.98321361
 
ion      s     py     pz     px    dxy    dyz    dz2    dxz    dx2    tot
  1  0.000  0.008  0.013  0.001  0.533  0.040  0.048  0.345  0.007  0.996
 
band   4 # energy    8.45932261 # occ.  0.00000000
 
ion      s     py     pz     px    dxy    dyz    dz2    dxz    dx2    tot
  1  0.002  0.023  0.023  0.023  0.306  0.306  0.000  0.306  0.000  0.989
 
band   5 # energy    9.33159801 # occ.  0.00000000
 
ion      s     py     pz     px    dxy    dyz    dz2    dxz    dx2    tot
  1  0.000  0.000  0.000  0.000  0.007  0.053  0.106  0.025  0.712  0.903
 
band   6 # energy    9.33159805 # occ.  0.00000000
 
ion      s     py     pz     px    dxy    dyz    dz2    dxz    dx2    tot
  1  0.000  0.000  0.000  0.000  0.049  0.004  0.712  0.032  0.106  0.903
 
band   7 # energy   20.06410833 # occ.  0.00000000
 
ion      s     py     pz     px    dxy    dyz    dz2    dxz    dx2    tot
  1 43.757  0.000  0.000  0.000  0.000  0.000  0.000  0.000  0.000 43.757
 
band   8 # energy   21.60944538 # occ.  0.00000000
 
ion      s     py     pz     px    dxy    dyz    dz2    dxz    dx2    tot
  1  0.000  0.000  0.000  0.000  0.000  0.000  0.000  0.000  0.000  0.000
 
band   9 # energy   22.60267045 # occ.  0.00000000
 
ion      s     py     pz     px    dxy    dyz    dz2    dxz    dx2    tot
  1  0.000  0.029  0.008  0.061  0.008  0.057  0.026  0.027  0.174  0.390
 

 k-point    2 :    0.25000000 0.08333333 0.08333333     weight = 0.11111111

band   1 # energy    1.52970414 # occ.  1.00000000
 
ion      s     py     pz     px    dxy    dyz    dz2    dxz    dx2    tot
  1  0.472  0.059  0.059  0.040  0.005  0.224  0.014  0.005  0.042  0.920
 
band   2 # energy    4.46994587 # occ.  1.00000000
 
ion      s     py     pz     px    dxy    dyz    dz2    dxz    dx2    tot
  1  0.000  0.017  0.017  0.000  0.477  0.000  0.018  0.477  0.006  1.012
 
band   3 # energy    4.99377621 # occ.  1.00000000
 
ion      s     py     pz     px    dxy    dyz    dz2    dxz    dx2    tot
  1  0.041  0.118  0.118  0.011  0.087  0.319  0.037  0.087  0.112  0.928
 
band   4 # energy    9.49857017 # occ.  0.00000000
 
ion      s     py     pz     px    dxy    dyz    dz2    dxz    dx2    tot
  1  0.006  0.003  0.003  0.001  0.023  0.212  0.170  0.023  0.510  0.950
 
band   5 # energy   10.09215741 # occ.  0.00000000
 
ion      s     py     pz     px    dxy    dyz    dz2    dxz    dx2    tot
  1  0.000  0.001  0.001  0.000  0.019  0.000  0.673  0.019  0.224  0.937
 
band   6 # energy   11.77113459 # occ.  0.00000000
 
ion      s     py     pz     px    dxy    dyz    dz2    dxz    dx2    tot