<?xml version="1.0" encoding="ISO-8859-1"?>
<modeling>
 <generator>
  <i name="program" type="string">vasp </i>
  <i name="version" type="string">5.2.12  </i>
  <i name="subversion" type="string">11Nov11 complex                                                      parallel </i>
  <i name="platform" type="string">LinuxIFC </i>
  <i name="date" type="string">2012 10 17 </i>
  <i name="time" type="string">10:22:31 </i>
 </generator>
 <incar>
  <i type="int" name="ISTART">     0</i>
  <i type="string" name="PREC">accurate</i>
  <i type="int" name="ISPIN">     2</i>
  <i name="ENCUT">    200.00000000</i>
  <v name="MAGMOM">      6.00000000</v>
  <i type="logical" name="LREAL"> F  </i>
  <i type="int" name="ISMEAR">     1</i>
  <i name="SIGMA">      0.05000000</i>
  <i type="logical" name="LORBIT"> F  </i>
 </incar>
 <kpoints>
  <generation param="Monkhorst-Pack">
   <v type="int" name="divisions">       6        6        6 </v>
   <v name="usershift">      0.00000000       0.00000000       0.00000000 </v>
   <v name="genvec1">      0.16666667       0.00000000       0.00000000 </v>
   <v name="genvec2">      0.00000000       0.16666667       0.00000000 </v>
   <v name="genvec3">      0.00000000       0.00000000       0.16666667 </v>
   <v name="shift">      0.50000000       0.50000000       0.50000000 </v>
  </generation>
  <varray name="kpointlist" >
   <v>       0.08333333       0.08333333       0.08333333 </v>
   <v>       0.25000000       0.08333333       0.08333333 </v>
   <v>       0.41666667       0.08333333       0.08333333 </v>
   <v>      -0.08333333       0.08333333       0.08333333 </v>
   <v>       0.25000000       0.25000000       0.08333333 </v>
   <v>      -0.25000000       0.25000000       0.08333333 </v>
   <v>      -0.41666667       0.41666667       0.08333333 </v>
   <v>      -0.25000000       0.41666667       0.08333333 </v>
   <v>      -0.41666667      -0.41666667       0.08333333 </v>
   <v>       0.25000000       0.25000000       0.25000000 </v>
   <v>      -0.25000000       0.25000000       0.25000000 </v>
   <v>      -0.41666667       0.41666667       0.25000000 </v>
   <v>      -0.41666667      -0.41666667       0.25000000 </v>
   <v>      -0.41666667       0.41666667       0.41666667 </v>
  </varray>
  <varray name="weights" >
   <v>       0.03703704 </v>
   <v>       0.11111111 </v>
   <v>       0.05555556 </v>
   <v>       0.02777778 </v>
   <v>       0.11111111 </v>
   <v>       0.11111111 </v>
   <v>       0.11111111 </v>
   <v>       0.11111111 </v>
   <v>       0.11111111 </v>
   <v>       0.00925926 </v>
   <v>       0.02777778 </v>
   <v>       0.11111111 </v>
   <v>       0.03703704 </v>
   <v>       0.02777778 </v>
  </varray>
 </kpoints>
 <parameters>
  <separator name="general" >
   <i type="string" name="SYSTEM">unknown system</i>
   <i type="logical" name="LCOMPAT"> F  </i>
  </separator>
  <separator name="electronic" >
   <i type="string" name="PREC">accura</i>
   <i name="ENMAX">    200.00000000</i>
   <i name="ENAUG">    332.07500000</i>
   <i name="EDIFF">      0.00010000</i>
   <i type="int" name="IALGO">    38</i>
   <i type="int" name="IWAVPR">    10</i>
   <i type="int" name="NBANDS">     9</i>
   <i name="NELECT">      5.00000000</i>
   <i type="int" name="TURBO">     0</i>
   <i type="int" name="IRESTART">     0</i>
   <i type="int" name="NREBOOT">     0</i>
   <i type="int" name="NMIN">     0</i>
   <i name="EREF">      0.00000000</i>
   <separator name="electronic smearing" >
    <i type="int" name="ISMEAR">     1</i>
    <i name="SIGMA">      0.05000000</i>
    <i name="KSPACING">      0.50000000</i>
    <i type="logical" name="KGAMMA"> T  </i>
   </separator>
   <separator name="electronic projectors" >
    <i type="logical" name="LREAL"> F  </i>
    <v name="ROPT">      0.00000000</v>
    <i type="int" name="LMAXPAW">  -100</i>
    <i type="int" name="LMAXMIX">     2</i>
    <i type="logical" name="NLSPLINE"> F  </i>
   </separator>
   <separator name="electronic startup" >
    <i type="int" name="ISTART">     0</i>
    <i type="int" name="ICHARG">     2</i>
    <i type="int" name="INIWAV">     1</i>
   </separator>
   <separator name="electronic spin" >
    <i type="int" name="ISPIN">     2</i>
    <i type="logical" name="LNONCOLLINEAR"> F  </i>
    <v name="MAGMOM">      6.00000000</v>
    <i name="NUPDOWN">     -1.00000000</i>
    <i type="logical" name="LSORBIT"> F  </i>
    <v name="SAXIS">      0.00000000      0.00000000      1.00000000</v>
    <i type="logical" name="LSPIRAL"> F  </i>
    <v name="QSPIRAL">      0.00000000      0.00000000      0.00000000</v>
    <i type="logical" name="LZEROZ"> F  </i>
   </separator>
   <separator name="electronic exchange-correlation" >
    <i type="logical" name="LASPH"> F  </i>
    <i type="logical" name="LMETAGGA"> F  </i>
   </separator>
   <separator name="electronic convergence" >
    <i type="int" name="NELM">    60</i>
    <i type="int" name="NELMDL">    -5</i>
    <i type="int" name="NELMIN">     2</i>
    <i name="ENINI">    200.00000000</i>
    <separator name="electronic convergence detail" >
     <i type="logical" name="LDIAG"> T  </i>
     <i type="logical" name="LSUBROT"> T  </i>
     <i name="WEIMIN">      0.00000000</i>
     <i name="EBREAK">      0.00000278</i>
     <i name="DEPER">      0.30000000</i>
     <i type="int" name="NRMM">     4</i>
     <i name="TIME">      0.40000000</i>
    </separator>
   </separator>
   <separator name="electronic mixer" >
    <i name="AMIX">      0.40000000</i>
    <i name="BMIX">      1.00000000</i>
    <i name="AMIN">      0.10000000</i>
    <i name="AMIX_MAG">      1.60000000</i>
    <i name="BMIX_MAG">      1.00000000</i>
    <separator name="electronic mixer details" >
     <i type="int" name="IMIX">     4</i>
     <i type="int" name="MAXMIX">   -45</i>
     <i name="WC">    100.00000000</i>
     <i type="int" name="INIMIX">     1</i>
     <i type="int" name="MIXPRE">     1</i>
     <i type="int" name="MREMOVE">     5</i>
    </separator>
   </separator>
   <separator name="electronic dipolcorrection" >
    <i type="logical" name="LDIPOL"> F  </i>
    <i type="logical" name="LMONO"> F  </i>
    <i type="int" name="IDIPOL">     0</i>
    <i name="EPSILON">      1.00000000</i>
    <v name="DIPOL">   -100.00000000   -100.00000000   -100.00000000</v>
    <i name="EFIELD">      0.00000000</i>
   </separator>
  </separator>
  <separator name="grids" >
   <i type="int" name="NGX">    14</i>
   <i type="int" name="NGY">    14</i>
   <i type="int" name="NGZ">    14</i>
   <i type="int" name="NGXF">    28</i>
   <i type="int" name="NGYF">    28</i>
   <i type="int" name="NGZF">    28</i>
   <i type="logical" name="ADDGRID"> F  </i>
  </separator>
  <separator name="ionic" >
   <i type="int" name="NSW">     0</i>
   <i type="int" name="IBRION">    -1</i>
   <i type="int" name="ISIF">     2</i>
   <i name="PSTRESS">      0.00000000</i>
   <i name="EDIFFG">      0.00100000</i>
   <i type="int" name="NFREE">     0</i>
   <i name="POTIM">      0.50000000</i>
   <i name="SMASS">     -3.00000000</i>
   <i name="SCALEE">      1.00000000</i>
  </separator>
  <separator name="ionic md" >
   <i name="TEBEG">      0.00010000</i>
   <i name="TEEND">      0.00010000</i>
   <i type="int" name="NBLOCK">     1</i>
   <i type="int" name="KBLOCK">     1</i>
   <i type="int" name="NPACO">   256</i>
   <i name="APACO">     16.00000000</i>
  </separator>
  <separator name="symmetry" >
   <i type="int" name="ISYM">     2</i>
   <i name="SYMPREC">      0.00001000</i>
  </separator>
  <separator name="dos" >
   <i type="logical" name="LORBIT"> F  </i>
   <v name="RWIGS">     -1.00000000</v>
   <i type="int" name="NEDOS">   301</i>
   <i name="EMIN">     10.00000000</i>
   <i name="EMAX">    -10.00000000</i>
   <i name="EFERMI">      0.00000000</i>
  </separator>
  <separator name="writing" >
   <i type="int" name="NWRITE">     2</i>
   <i type="logical" name="LWAVE"> T  </i>
   <i type="logical" name="LCHARG"> T  </i>
   <i type="logical" name="LPARD"> F  </i>
   <i type="logical" name="LVTOT"> F  </i>
   <i type="logical" name="LVHAR"> F  </i>
   <i type="logical" name="LELF"> F  </i>
   <i type="logical" name="LOPTICS"> F  </i>
   <v name="STM">      0.00000000      0.00000000      0.00000000      0.00000000      0.00000000      0.00000000      0.00000000</v>
  </separator>
  <separator name="performance" >
   <i type="int" name="NPAR">     1</i>
   <i type="int" name="NSIM">     4</i>
   <i type="int" name="NBLK">    -1</i>
   <i type="logical" name="LPLANE"> T  </i>
   <i type="logical" name="LSCALAPACK"> F  </i>
   <i type="logical" name="LSCAAWARE"> F  </i>
   <i type="logical" name="LSCALU"> F  </i>
   <i type="logical" name="LASYNC"> F  </i>
   <i type="logical" name="LORBITALREAL"> F  </i>
  </separator>
  <separator name="miscellaneous" >
   <i type="int" name="IDIOT">     3</i>
   <i type="logical" name="LMUSIC"> F  </i>
   <v name="POMASS">    180.94800000</v>
   <v name="DARWINR">      0.00000000</v>
   <v name="DARWINV">      1.00000000</v>
   <i type="logical" name="LCORR"> T  </i>
  </separator>
  <i type="logical" name="GGA_COMPAT"> T  </i>
  <i type="logical" name="LBERRY"> F  </i>
  <i type="int" name="ICORELEVEL">     0</i>
  <i type="logical" name="LDAU"> F  </i>
  <i type="int" name="I_CONSTRAINED_M">     0</i>
  <separator name="electronic exchange-correlation" >
   <i type="string" name="GGA">--</i>
   <i type="int" name="VOSKOWN">     0</i>
   <i type="logical" name="LHFCALC"> F  </i>
   <i type="string" name="PRECFOCK"></i>
   <i type="logical" name="LHFONE"> F  </i>
   <i type="logical" name="LRHFCALC"> F  </i>
   <i type="logical" name="LTHOMAS"> F  </i>
   <i type="logical" name="LMODELHF"> F  </i>
   <i name="ENCUT4O">     -1.00000000</i>
   <i type="int" name="EXXOEP">     0</i>
   <i type="int" name="FOURORBIT">     0</i>
   <i name="AEXX">      0.00000000</i>
   <i name="HFALPHA">      0.00000000</i>
   <i name="ALDAX">      1.00000000</i>
   <i name="AGGAX">      1.00000000</i>
   <i name="ALDAC">      1.00000000</i>
   <i name="AGGAC">      1.00000000</i>
   <i type="int" name="NKREDX">     1</i>
   <i type="int" name="NKREDY">     1</i>
   <i type="int" name="NKREDZ">     1</i>
   <i type="logical" name="SHIFTRED"> F  </i>
   <i type="logical" name="ODDONLY"> F  </i>
   <i type="logical" name="EVENONLY"> F  </i>
   <i type="int" name="LMAXFOCK">     0</i>
   <i type="int" name="NMAXFOCKAE">     0</i>
   <i type="logical" name="LFOCKAEDFT"> F  </i>
   <i name="HFSCREEN">      0.00000000</i>
   <i name="HFSCREENC">      0.00000000</i>
  </separator>
  <separator name="vdW DFT" >
   <i type="logical" name="LUSE_VDW"> F  </i>
   <i name="Zab_VDW">     -0.84910000</i>
   <i name="PARAM1">      0.12340000</i>
   <i name="PARAM2">      1.00000000</i>
   <i name="PARAM3">      0.00000000</i>
  </separator>
  <separator name="model GW" >
   <i type="int" name="MODEL_GW">     0</i>
   <i name="MODEL_EPS0">     11.07781110</i>
   <i name="MODEL_ALPHA">      1.00000000</i>
  </separator>
  <separator name="linear response parameters" >
   <i type="logical" name="LEPSILON"> F  </i>
   <i type="logical" name="LRPA"> F  </i>
   <i type="logical" name="LNABLA"> F  </i>
   <i type="logical" name="LVEL"> F  </i>
   <i type="int" name="KINTER">     0</i>
   <i name="CSHIFT">      0.10000000</i>
   <i name="OMEGAMAX">     -1.00000000</i>
  </separator>
  <separator name="orbital magnetization" >
   <i type="logical" name="NUCIND"> F  </i>
   <v name="MAGPOS">      0.00000000      0.00000000      0.00000000</v>
   <i type="logical" name="LNICSALL"> T  </i>
   <i type="logical" name="ORBITALMAG"> F  </i>
   <i type="logical" name="LMAGBLOCH"> F  </i>
   <i type="logical" name="LCHIMAG"> F  </i>
   <i type="logical" name="LGAUGE"> T  </i>
   <i type="int" name="MAGATOM">     0</i>
   <v name="MAGDIPOL">      0.00000000      0.00000000      0.00000000</v>
   <v name="AVECCONST">      0.00000000      0.00000000      0.00000000</v>
  </separator>
  <separator name="response functions" >
   <i type="logical" name="LADDER"> F  </i>
   <i type="logical" name="LHARTREE"> T  </i>
   <i type="int" name="IBSE">     0</i>
   <i type="logical" name="LTCTE"> F  </i>
   <i type="logical" name="LTETE"> F  </i>
   <i type="logical" name="LFXCEPS"> F  </i>
   <i type="logical" name="L2ORDER"> F  </i>
   <i type="logical" name="LUSEW"> F  </i>
   <i name="ENCUTGW">     -2.00000000</i>
   <i name="ENCUTGWSOFT">     -2.00000000</i>
   <i name="ENCUTLF">     -1.00000000</i>
   <i type="int" name="LMAXMP2">    -1</i>
   <i name="SCISSOR">      0.00000000</i>
   <i type="int" name="NOMEGA">     0</i>
   <i type="int" name="NOMEGAR">     0</i>
   <i type="int" name="NBANDSGW">    -1</i>
   <i type="int" name="NBANDSO">    -1</i>
   <i type="int" name="NBANDSV">    -1</i>
   <i name="OPTEMAX">      0.00000000</i>
   <i type="int" name="NELM">     1</i>
   <i type="int" name="DIM">     3</i>
   <i type="int" name="ANTIRES">     0</i>
   <i name="OMEGAMAX">    -30.00000000</i>
   <i name="OMEGATL">   -200.00000000</i>
   <i type="int" name="OMEGAGRID">     0</i>
   <i name="CSHIFT">     -0.10000000</i>
   <i type="logical" name="SELFENERGY"> F  </i>
   <i type="logical" name="LSPECTRAL"> F  </i>
   <i type="logical" name="ODDONLYGW"> F  </i>
   <i type="logical" name="EVENONLYGW"> F  </i>
   <i type="int" name="NKREDLFX">     1</i>
   <i type="int" name="NKREDLFY">     1</i>
   <i type="int" name="NKREDLFZ">     1</i>
   <i type="int" name="MAXMEM">  1800</i>
   <i type="int" name="TELESCOPE">     0</i>
  </separator>
 </parameters>
 <atominfo>
  <atoms>       1 </atoms>
  <types>       1 </types>
  <array name="atoms" >
   <dimension dim="1">ion</dimension>
   <field type="string">element</field>
   <field type="int">atomtype</field>
   <set>
    <rc><c>Ta</c><c>   1</c></rc>
   </set>
  </array>
  <array name="atomtypes" >
   <dimension dim="1">type</dimension>
   <field type="int">atomspertype</field>
   <field type="string">element</field>
   <field>mass</field>
   <field>valence</field>
   <field type="string">pseudopotential</field>
   <set>
    <rc><c>   1</c><c>Ta</c><c>    180.94800000</c><c>      5.00000000</c><c>  PAW_PBE Ta 17Jan2003                  </c></rc>
   </set>
  </array>
 </atominfo>
 <structure name="initialpos" >
  <crystal>
   <varray name="basis" >
    <v>      -1.66500000       1.66500000       1.66500000 </v>
    <v>       1.66500000      -1.66500000       1.66500000 </v>
    <v>       1.66500000       1.66500000      -1.66500000 </v>
   </varray>
   <i name="volume">     18.46301850 </i>
   <varray name="rec_basis" >
    <v>       0.00000000       0.30030030       0.30030030 </v>
    <v>       0.30030030       0.00000000       0.30030030 </v>
    <v>       0.30030030       0.30030030       0.00000000 </v>
   </varray>
  </crystal>
  <varray name="positions" >
   <v>       0.00000000       0.00000000       0.00000000 </v>
  </varray>
 </structure>
 <calculation>
  <scstep>
   <time name="dav">    0.29    0.29</time>
   <time name="total">    0.39    0.39</time>
   <energy>
    <i name="alphaZ">     30.03559250 </i>
    <i name="ewald">   -196.71241410 </i>
    <i name="hartreedc">     -2.61031375 </i>
    <i name="XCdc">    -60.72814028 </i>
    <i name="pawpsdc">    143.51874798 </i>
    <i name="pawaedc">    -69.33493833 </i>
    <i name="eentropy">     -0.00074358 </i>
    <i name="bandstr">     28.99941130 </i>
    <i name="atom">    130.57950032 </i>
    <i name="e_fr_energy">      3.74670205 </i>
    <i name="e_wo_entrp">      3.74744563 </i>
    <i name="e_0_energy">      3.74694991 </i>
   </energy>
  </scstep>
  <scstep>
   <time name="dav">    0.30    0.30</time>
   <time name="total">    0.30    1.04</time>
   <energy>
    <i name="e_fr_energy">     -1.27402877 </i>
    <i name="e_wo_entrp">     -1.27282534 </i>
    <i name="e_0_energy">     -1.27362763 </i>
   </energy>
  </scstep>
  <scstep>
   <time name="dav">    0.30    0.30</time>
   <time name="total">    0.30    0.31</time>
   <energy>
    <i name="e_fr_energy">     -1.33650873 </i>
    <i name="e_wo_entrp">     -1.33536677 </i>
    <i name="e_0_energy">     -1.33612808 </i>
   </energy>
  </scstep>
  <scstep>
   <time name="dav">    0.31    0.31</time>
   <time name="total">    0.31    0.33</time>
   <energy>
    <i name="e_fr_energy">     -1.33658389 </i>
    <i name="e_wo_entrp">     -1.33544184 </i>
    <i name="e_0_energy">     -1.33620321 </i>
   </energy>
  </scstep>
  <scstep>
   <time name="dav">    0.28    0.28</time>
   <time name="total">    0.32    0.36</time>
   <energy>
    <i name="e_fr_energy">     -1.33658411 </i>
    <i name="e_wo_entrp">     -1.33544206 </i>
    <i name="e_0_energy">     -1.33620343 </i>
   </energy>
  </scstep>
  <scstep>
   <time name="dav">    0.28    0.28</time>
   <time name="total">    0.40    0.42</time>
   <energy>
    <i name="e_fr_energy">    -11.76938024 </i>
    <i name="e_wo_entrp">    -11.76946078 </i>
    <i name="e_0_energy">    -11.76940709 </i>
   </energy>
  </scstep>
  <scstep>
   <time name="dav">    0.30    0.30</time>
   <time name="total">    0.41    0.43</time>
   <energy>
    <i name="e_fr_energy">    -11.84724435 </i>
    <i name="e_wo_entrp">    -11.84732507 </i>
    <i name="e_0_energy">    -11.84727126 </i>
   </energy>
  </scstep>
  <scstep>
   <time name="dav">    0.27    0.27</time>
   <time name="total">    0.39    0.41</time>
   <energy>
    <i name="e_fr_energy">    -28.50270236 </i>
    <i name="e_wo_entrp">    -28.50256519 </i>
    <i name="e_0_energy">    -28.50265664 </i>
   </energy>
  </scstep>
  <scstep>
   <time name="dav">    0.28    0.28</time>
   <time name="total">    0.40    0.42</time>
   <energy>
    <i name="e_fr_energy">    -11.41771568 </i>
    <i name="e_wo_entrp">    -11.41787848 </i>
    <i name="e_0_energy">    -11.41776995 </i>
   </energy>
  </scstep>
  <scstep>
   <time name="dav">    0.27    0.27</time>
   <time name="total">    0.38    0.40</time>
   <energy>
    <i name="e_fr_energy">    -11.84007026 </i>
    <i name="e_wo_entrp">    -11.83866762 </i>
    <i name="e_0_energy">    -11.83960271 </i>
   </energy>
  </scstep>
  <scstep>
   <time name="dav">    0.30    0.30</time>
   <time name="total">    0.42    0.43</time>
   <energy>
    <i name="e_fr_energy">    -11.87225090 </i>
    <i name="e_wo_entrp">    -11.87138499 </i>
    <i name="e_0_energy">    -11.87196226 </i>
   </energy>
  </scstep>
  <scstep>
   <time name="dav">    0.28    0.28</time>
   <time name="total">    0.40    0.40</time>
   <energy>
    <i name="e_fr_energy">    -11.86568176 </i>
    <i name="e_wo_entrp">    -11.86494386 </i>
    <i name="e_0_energy">    -11.86543579 </i>
   </energy>
  </scstep>
  <scstep>
   <time name="dav">    0.28    0.28</time>
   <time name="total">    0.39    0.41</time>
   <energy>
    <i name="e_fr_energy">    -11.88130754 </i>
    <i name="e_wo_entrp">    -11.88051984 </i>
    <i name="e_0_energy">    -11.88104497 </i>
   </energy>
  </scstep>
  <scstep>
   <time name="dav">    0.27    0.27</time>
   <time name="total">    0.38    0.40</time>
   <energy>
    <i name="e_fr_energy">    -11.87965341 </i>
    <i name="e_wo_entrp">    -11.87936760 </i>
    <i name="e_0_energy">    -11.87955814 </i>
   </energy>
  </scstep>
  <scstep>
   <time name="dav">    0.18    0.18</time>
   <time name="total">    0.29    0.31</time>
   <energy>
    <i name="e_fr_energy">    -11.87991558 </i>
    <i name="e_wo_entrp">    -11.87951605 </i>
    <i name="e_0_energy">    -11.87978240 </i>
   </energy>
  </scstep>
  <scstep>
   <time name="dav">    0.17    0.17</time>
   <time name="total">    0.26    0.29</time>
   <energy>
    <i name="alphaZ">     30.03559250 </i>
    <i name="ewald">   -196.71241410 </i>
    <i name="hartreedc">     -0.70734651 </i>
    <i name="XCdc">    -66.06099695 </i>
    <i name="pawpsdc">    217.46163605 </i>
    <i name="pawaedc">   -143.98396211 </i>
    <i name="eentropy">     -0.00035099 </i>
    <i name="bandstr">     17.50838790 </i>
    <i name="atom">    130.57950032 </i>
    <i name="e_fr_energy">    -11.87995390 </i>
    <i name="e_wo_entrp">    -11.87960291 </i>
    <i name="e_0_energy">    -11.87983690 </i>
   </energy>
  </scstep>
  <parameters_embedded>
   <separator name="dft+d2" >
    <i type="logical" name="LVDW"> F  </i>
   </separator>
  </parameters_embedded>
  <structure>
   <crystal>
    <varray name="basis" >
     <v>      -1.66500000       1.66500000       1.66500000 </v>
     <v>       1.66500000      -1.66500000       1.66500000 </v>
     <v>       1.66500000       1.66500000      -1.66500000 </v>
    </varray>
    <i name="volume">     18.46301850 </i>
    <varray name="rec_basis" >
     <v>       0.00000000       0.30030030       0.30030030 </v>
     <v>       0.30030030       0.00000000       0.30030030 </v>
     <v>       0.30030030       0.30030030       0.00000000 </v>
    </varray>
   </crystal>
   <varray name="positions" >
    <v>       0.00000000       0.00000000       0.00000000 </v>
   </varray>
  </structure>
  <varray name="forces" >
   <v>       0.00000000       0.00000000       0.00000000 </v>
  </varray>
  <varray name="stress" >
   <v>    -103.48559986       0.00000000       0.00000000 </v>
   <v>       0.00000000    -103.48559986       0.00000000 </v>
   <v>       0.00000000       0.00000000    -103.48559986 </v>
  </varray>
  <energy>
   <i name="e_fr_energy">    -11.87995390 </i>
   <i name="e_wo_entrp">    -11.87983690 </i>
   <i name="e_0_energy">     -0.00035099 </i>
  </energy>
  <time name="totalsc">    6.26    7.43</time>
  <eigenvalues>
   <array>
    <dimension dim="1">band</dimension>
    <dimension dim="2">kpoint</dimension>
    <dimension dim="3">spin</dimension>
    <field>eigene</field>
    <field>occ</field>
    <set>
     <set comment="spin 1">
      <set comment="kpoint 1">
       <r>   -0.7012    1.0000 </r>
       <r>    5.3740    1.0001 </r>
       <r>    5.3740    1.0001 </r>
       <r>    8.3576    0.0000 </r>
       <r>    9.2598    0.0000 </r>
       <r>    9.2598    0.0000 </r>
       <r>   20.0179    0.0000 </r>
       <r>   21.4924    0.0000 </r>
       <r>   22.5069    0.0000 </r>
      </set>
      <set comment="kpoint 2">
       <r>    1.4218    1.0000 </r>
       <r>    4.3611    1.0000 </r>
       <r>    4.8953    1.0000 </r>
       <r>    9.4210    0.0000 </r>
       <r>   10.0229    0.0000 </r>
       <r>   11.6809    0.0000 </r>
       <r>   19.0751    0.0000 </r>
       <r>   19.6141    0.0000 </r>
       <r>   20.0405    0.0000 </r>
      </set>
      <set comment="kpoint 3">
       <r>    1.8509    1.0000 </r>
       <r>    3.9862    1.0000 </r>
       <r>    6.3281    0.0000 </r>
       <r>    9.6157    0.0000 </r>
       <r>   10.4107    0.0000 </r>
       <r>   14.1035    0.0000 </r>
       <r>   15.7349    0.0000 </r>
       <r>   17.9729    0.0000 </r>
       <r>   20.0268    0.0000 </r>
      </set>
      <set comment="kpoint 4">
       <r>   -1.7412    1.0000 </r>
       <r>    6.2206    0.0000 </r>
       <r>    6.2207    0.0000 </r>
       <r>    6.5626    0.0000 </r>
       <r>    8.5475    0.0000 </r>
       <r>    9.8263    0.0000 </r>
       <r>   20.0188    0.0000 </r>
       <r>   21.3843    0.0000 </r>
       <r>   21.4099    0.0000 </r>
      </set>
      <set comment="kpoint 5">
       <r>    3.0447    1.0000 </r>
       <r>    4.1775    1.0000 </r>
       <r>    4.7695    1.0000 </r>
       <r>    9.9217    0.0000 </r>
       <r>   10.3606    0.0000 </r>
       <r>   14.6136    0.0000 </r>
       <r>   15.3214    0.0000 </r>
       <r>   19.0188    0.0000 </r>
       <r>   20.0250    0.0000 </r>
      </set>
      <set comment="kpoint 6">
       <r>    0.1676    1.0000 </r>
       <r>    5.3071    1.0000 </r>
       <r>    5.4537    1.0342 </r>
       <r>    7.9984    0.0000 </r>
       <r>    8.7143    0.0000 </r>
       <r>   10.2648    0.0000 </r>
       <r>   20.0022    0.0000 </r>
       <r>   20.3934    0.0000 </r>
       <r>   22.4163    0.0000 </r>
      </set>
      <set comment="kpoint 7">
       <r>    1.4803    1.0000 </r>
       <r>    4.4889    1.0000 </r>
       <r>    5.7877    0.0000 </r>
       <r>    8.8020    0.0000 </r>
       <r>   10.6988    0.0000 </r>
       <r>   12.2125    0.0000 </r>
       <r>   17.4840    0.0000 </r>
       <r>   18.9554    0.0000 </r>
       <r>   20.0310    0.0000 </r>
      </set>
      <set comment="kpoint 8">
       <r>    2.0657    1.0000 </r>
       <r>    4.2595    1.0000 </r>
       <r>    5.4123    1.0048 </r>
       <r>    8.1022    0.0000 </r>
       <r>   10.1707    0.0000 </r>
       <r>   11.7827    0.0000 </r>
       <r>   18.1907    0.0000 </r>
       <r>   20.0283    0.0000 </r>
       <r>   21.8705    0.0000 </r>
      </set>
      <set comment="kpoint 9">
       <r>    2.6961    1.0000 </r>
       <r>    4.5185    1.0000 </r>
       <r>    4.8289    1.0000 </r>
       <r>    8.6458    0.0000 </r>
       <r>   10.8267    0.0000 </r>
       <r>   14.9486    0.0000 </r>
       <r>   15.3769    0.0000 </r>
       <r>   19.2061    0.0000 </r>
       <r>   20.0271    0.0000 </r>
      </set>
      <set comment="kpoint 10">
       <r>    4.3322    1.0000 </r>
       <r>    4.3322    1.0000 </r>
       <r>    4.3323    1.0000 </r>
       <r>   10.6021    0.0000 </r>
       <r>   10.6021    0.0000 </r>
       <r>   12.3451    0.0000 </r>
       <r>   18.1471    0.0000 </r>
       <r>   18.1471    0.0000 </r>
       <r>   18.1471    0.0000 </r>
      </set>
      <set comment="kpoint 11">
       <r>    1.7799    1.0000 </r>
       <r>    4.6779    1.0000 </r>
       <r>    6.7921    0.0000 </r>
       <r>    6.7922    0.0000 </r>
       <r>    8.7045    0.0000 </r>
       <r>   10.4403    0.0000 </r>
       <r>   19.8573    0.0000 </r>
       <r>   20.0717    0.0000 </r>
       <r>   24.4141    0.0000 </r>
      </set>
      <set comment="kpoint 12">
       <r>    2.7590    1.0000 </r>
       <r>    3.5972    1.0000 </r>
       <r>    6.7278    0.0000 </r>
       <r>    7.3912    0.0000 </r>
       <r>   11.7157    0.0000 </r>
       <r>   11.7219    0.0000 </r>
       <r>   17.9535    0.0000 </r>
       <r>   20.0293    0.0000 </r>
       <r>   20.2836    0.0000 </r>
      </set>
      <set comment="kpoint 13">
       <r>    2.9343    1.0000 </r>
       <r>    2.9343    1.0000 </r>
       <r>    6.3010    0.0000 </r>
       <r>   10.4346    0.0000 </r>
       <r>   10.4346    0.0000 </r>
       <r>   15.2507    0.0000 </r>
       <r>   16.3470    0.0000 </r>
       <r>   16.3471    0.0000 </r>
       <r>   20.0266    0.0000 </r>
      </set>
      <set comment="kpoint 14">
       <r>    2.1926    1.0000 </r>
       <r>    2.2805    1.0000 </r>
       <r>   10.0941    0.0000 </r>
       <r>   10.0942    0.0000 </r>
       <r>   11.6239    0.0000 </r>
       <r>   12.2799    0.0000 </r>
       <r>   16.6779    0.0000 </r>
       <r>   16.6780    0.0000 </r>
       <r>   20.0094    0.0000 </r>
      </set>
     </set>
     <set comment="spin 2">
      <set comment="kpoint 1">
       <r>   -0.5905    1.0000 </r>
       <r>    5.4811    0.9832 </r>
       <r>    5.4811    0.9832 </r>
       <r>    8.4593    0.0000 </r>
       <r>    9.3316    0.0000 </r>
       <r>    9.3316    0.0000 </r>
       <r>   20.0641    0.0000 </r>
       <r>   21.6094    0.0000 </r>
       <r>   22.6027    0.0000 </r>
      </set>
      <set comment="kpoint 2">
       <r>    1.5297    1.0000 </r>
       <r>    4.4699    1.0000 </r>
       <r>    4.9938    1.0000 </r>
       <r>    9.4986    0.0000 </r>
       <r>   10.0922    0.0000 </r>
       <r>   11.7711    0.0000 </r>
       <r>   19.1677    0.0000 </r>
       <r>   19.7063    0.0000 </r>
       <r>   20.0861    0.0000 </r>
      </set>
      <set comment="kpoint 3">
       <r>    1.9581    1.0000 </r>
       <r>    4.0959    1.0000 </r>
       <r>    6.4179    0.0000 </r>
       <r>    9.6937    0.0000 </r>
       <r>   10.4777    0.0000 </r>
       <r>   14.1821    0.0000 </r>
       <r>   15.8372    0.0000 </r>
       <r>   18.0668    0.0000 </r>
       <r>   20.0724    0.0000 </r>
      </set>
      <set comment="kpoint 4">
       <r>   -1.6285    1.0000 </r>
       <r>    6.3284    0.0000 </r>
       <r>    6.3284    0.0000 </r>
       <r>    6.6697    0.0000 </r>
       <r>    8.6192    0.0000 </r>
       <r>    9.8916    0.0000 </r>
       <r>   20.0648    0.0000 </r>
       <r>   21.4924    0.0000 </r>
       <r>   21.5255    0.0000 </r>
      </set>
      <set comment="kpoint 5">
       <r>    3.1533    1.0000 </r>
       <r>    4.2765    1.0000 </r>
       <r>    4.8688    1.0000 </r>
       <r>    9.9966    0.0000 </r>
       <r>   10.4308    0.0000 </r>
       <r>   14.7263    0.0000 </r>
       <r>   15.3984    0.0000 </r>
       <r>   19.0935    0.0000 </r>
       <r>   20.0709    0.0000 </r>
      </set>
      <set comment="kpoint 6">
       <r>    0.2763    1.0000 </r>
       <r>    5.4161    1.0063 </r>
       <r>    5.5508    0.0713 </r>
       <r>    8.0835    0.0000 </r>
       <r>    8.8153    0.0000 </r>
       <r>   10.3321    0.0000 </r>
       <r>   20.0507    0.0000 </r>
       <r>   20.4865    0.0000 </r>
       <r>   22.5053    0.0000 </r>
      </set>
      <set comment="kpoint 7">
       <r>    1.5873    1.0000 </r>
       <r>    4.5990    1.0000 </r>
       <r>    5.8746    0.0000 </r>
       <r>    8.8867    0.0000 </r>
       <r>   10.7706    0.0000 </r>
       <r>   12.2994    0.0000 </r>
       <r>   17.5726    0.0000 </r>
       <r>   19.0463    0.0000 </r>
       <r>   20.0764    0.0000 </r>
      </set>
      <set comment="kpoint 8">
       <r>    2.1706    1.0000 </r>
       <r>    4.3526    1.0000 </r>
       <r>    5.5161    0.5612 </r>
       <r>    8.1938    0.0000 </r>
       <r>   10.2512    0.0000 </r>
       <r>   11.8686    0.0000 </r>
       <r>   18.2809    0.0000 </r>
       <r>   20.0740    0.0000 </r>
       <r>   21.9453    0.0000 </r>
      </set>
      <set comment="kpoint 9">
       <r>    2.7992    1.0000 </r>
       <r>    4.6221    1.0000 </r>
       <r>    4.9153    1.0000 </r>
       <r>    8.7361    0.0000 </r>
       <r>   10.9088    0.0000 </r>
       <r>   15.0247    0.0000 </r>
       <r>   15.4786    0.0000 </r>
       <r>   19.2849    0.0000 </r>
       <r>   20.0728    0.0000 </r>
      </set>
      <set comment="kpoint 10">
       <r>    4.4338    1.0000 </r>
       <r>    4.4338    1.0000 </r>
       <r>    4.4338    1.0000 </r>
       <r>   10.6686    0.0000 </r>
       <r>   10.6686    0.0000 </r>
       <r>   12.4713    0.0000 </r>
       <r>   18.2223    0.0000 </r>
       <r>   18.2223    0.0000 </r>
       <r>   20.0786    0.0000 </r>
      </set>
      <set comment="kpoint 11">
       <r>    1.8805    1.0000 </r>
       <r>    4.7623    1.0000 </r>
       <r>    6.8964    0.0000 </r>
       <r>    6.8964    0.0000 </r>
       <r>    8.8058    0.0000 </r>
       <r>   10.5185    0.0000 </r>
       <r>   19.9342    0.0000 </r>
       <r>   20.1261    0.0000 </r>
       <r>   24.4997    0.0000 </r>
      </set>
      <set comment="kpoint 12">
       <r>    2.8520    1.0000 </r>
       <r>    3.6839    1.0000 </r>
       <r>    6.8322    0.0000 </r>
       <r>    7.4909    0.0000 </r>
       <r>   11.8044    0.0000 </r>
       <r>   11.8132    0.0000 </r>
       <r>   18.0380    0.0000 </r>
       <r>   20.0750    0.0000 </r>
       <r>   20.3789    0.0000 </r>
      </set>
      <set comment="kpoint 13">
       <r>    3.0219    1.0000 </r>
       <r>    3.0219    1.0000 </r>
       <r>    6.4082    0.0000 </r>
       <r>   10.5275    0.0000 </r>
       <r>   10.5275    0.0000 </r>
       <r>   15.3512    0.0000 </r>
       <r>   16.4328    0.0000 </r>
       <r>   16.4329    0.0000 </r>
       <r>   20.0726    0.0000 </r>
      </set>
      <set comment="kpoint 14">
       <r>    2.2812    1.0000 </r>
       <r>    2.3688    1.0000 </r>
       <r>   10.1896    0.0000 </r>
       <r>   10.1896    0.0000 </r>
       <r>   11.7120    0.0000 </r>
       <r>   12.3832    0.0000 </r>
       <r>   16.7701    0.0000 </r>
       <r>   16.7702    0.0000 </r>
       <r>   20.0565    0.0000 </r>
      </set>
     </set>
    </set>
   </array>
  </eigenvalues>
  <separator name="orbital magnetization" >
   <v name="MAGDIPOLOUT">      0.00000000      0.00000000      0.00000000</v>
  </separator>
  <dos>
   <i name="efermi">      5.51977307 </i>
   <total>
    <array>
     <dimension dim="1">gridpoints</dimension>
     <dimension dim="2">spin</dimension>
     <field>energy</field>
     <field>total</field>
     <field>integrated</field>
     <set>
      <set comment="spin 1">
       <r>    -3.0532     0.0000     0.0000 </r>
       <r>    -2.9570     0.0000     0.0000 </r>
       <r>    -2.8608     0.0000     0.0000 </r>
       <r>    -2.7646     0.0000     0.0000 </r>
       <r>    -2.6684     0.0000     0.0000 </r>
       <r>    -2.5722     0.0000     0.0000 </r>
       <r>    -2.4759     0.0000     0.0000 </r>
       <r>    -2.3797     0.0000     0.0000 </r>
       <r>    -2.2835     0.0000     0.0000 </r>
       <r>    -2.1873     0.0000     0.0000 </r>
       <r>    -2.0911     0.0000     0.0000 </r>
       <r>    -1.9949     0.0000     0.0000 </r>
       <r>    -1.8986     0.0000     0.0000 </r>
       <r>    -1.8024    -0.0102    -0.0010 </r>
       <r>    -1.7062     0.2873     0.0267 </r>
       <r>    -1.6100     0.0118     0.0278 </r>
       <r>    -1.5138    -0.0002     0.0278 </r>
       <r>    -1.4176     0.0000     0.0278 </r>
       <r>    -1.3213     0.0000     0.0278 </r>
       <r>    -1.2251     0.0000     0.0278 </r>
       <r>    -1.1289     0.0000     0.0278 </r>
       <r>    -1.0327     0.0000     0.0278 </r>
       <r>    -0.9365     0.0000     0.0278 </r>
       <r>    -0.8403    -0.0001     0.0278 </r>
       <r>    -0.7440    -0.0011     0.0277 </r>
       <r>    -0.6478     0.3980     0.0660 </r>
       <r>    -0.5516    -0.0118     0.0648 </r>
       <r>    -0.4554     0.0000     0.0648 </r>
       <r>    -0.3592     0.0000     0.0648 </r>
       <r>    -0.2630     0.0000     0.0648 </r>
       <r>    -0.1667     0.0000     0.0648 </r>
       <r>    -0.0705     0.0000     0.0648 </r>
       <r>     0.0257    -0.0003     0.0648 </r>
       <r>     0.1219    -0.0158     0.0633 </r>
       <r>     0.2181     1.2010     0.1788 </r>
       <r>     0.3143    -0.0300     0.1759 </r>
       <r>     0.4105    -0.0002     0.1759 </r>
       <r>     0.5068     0.0000     0.1759 </r>
       <r>     0.6030     0.0000     0.1759 </r>
       <r>     0.6992     0.0000     0.1759 </r>
       <r>     0.7954     0.0000     0.1759 </r>
       <r>     0.8916     0.0000     0.1759 </r>
       <r>     0.9878     0.0000     0.1759 </r>
       <r>     1.0841     0.0000     0.1759 </r>
       <r>     1.1803     0.0000     0.1759 </r>
       <r>     1.2765    -0.0002     0.1759 </r>
       <r>     1.3727    -0.0320     0.1728 </r>
       <r>     1.4689     1.5693     0.3238 </r>
       <r>     1.5651     0.7942     0.4002 </r>
       <r>     1.6614    -0.0224     0.3981 </r>
       <r>     1.7576     0.0399     0.4019 </r>
       <r>     1.8538     0.5746     0.4572 </r>
       <r>     1.9500     0.2541     0.4817 </r>
       <r>     2.0462     0.2249     0.5033 </r>
       <r>     2.1424     0.9506     0.5948 </r>
       <r>     2.2387     0.2707     0.6208 </r>
       <r>     2.3349     0.2934     0.6490 </r>
       <r>     2.4311    -0.0093     0.6482 </r>
       <r>     2.5273     0.0000     0.6481 </r>
       <r>     2.6235    -0.0348     0.6448 </r>
       <r>     2.7197     1.0379     0.7447 </r>
       <r>     2.8160     1.3465     0.8742 </r>
       <r>     2.9122     0.0848     0.8824 </r>
       <r>     3.0084     0.7028     0.9500 </r>
       <r>     3.1046     1.1379     1.0595 </r>
       <r>     3.2008    -0.0408     1.0556 </r>
       <r>     3.2970    -0.0001     1.0556 </r>
       <r>     3.3933     0.0000     1.0556 </r>
       <r>     3.4895    -0.0054     1.0550 </r>
       <r>     3.5857     0.3646     1.0901 </r>
       <r>     3.6819     0.8174     1.1688 </r>
       <r>     3.7781    -0.0217     1.1667 </r>
       <r>     3.8743    -0.0020     1.1665 </r>
       <r>     3.9706     0.1460     1.1805 </r>
       <r>     4.0668     0.4420     1.2231 </r>
       <r>     4.1630     0.2872     1.2507 </r>
       <r>     4.2592     1.4386     1.3891 </r>
       <r>     4.3554     1.2991     1.5141 </r>
       <r>     4.4516     0.7266     1.5840 </r>
       <r>     4.5479     2.2438     1.7999 </r>
       <r>     4.6441     0.0729     1.8069 </r>
       <r>     4.7403     0.3670     1.8422 </r>
       <r>     4.8365     1.7854     2.0140 </r>
       <r>     4.9327     1.5653     2.1646 </r>
       <r>     5.0289     0.0218     2.1667 </r>
       <r>     5.1252    -0.0006     2.1667 </r>
       <r>     5.2214    -0.0208     2.1647 </r>
       <r>     5.3176     0.7597     2.2378 </r>
       <r>     5.4138     1.8029     2.4112 </r>
       <r>     5.5100     1.7425     2.5789 </r>
       <r>     5.6062    -0.0499     2.5741 </r>
       <r>     5.7025    -0.0213     2.5720 </r>
       <r>     5.7987     0.8078     2.6498 </r>
       <r>     5.8949     0.3738     2.6857 </r>
       <r>     5.9911    -0.0056     2.6852 </r>
       <r>     6.0873    -0.0003     2.6852 </r>
       <r>     6.1835     0.0144     2.6865 </r>
       <r>     6.2798     0.6382     2.7479 </r>
       <r>     6.3760     0.9097     2.8355 </r>
       <r>     6.4722    -0.0262     2.8330 </r>
       <r>     6.5684     0.1767     2.8499 </r>
       <r>     6.6646     0.0768     2.8573 </r>
       <r>     6.7608     1.1701     2.9699 </r>
       <r>     6.8571     0.6222     3.0298 </r>
       <r>     6.9533    -0.0209     3.0278 </r>
       <r>     7.0495     0.0000     3.0278 </r>
       <r>     7.1457     0.0000     3.0278 </r>
       <r>     7.2419    -0.0001     3.0278 </r>
       <r>     7.3381    -0.0350     3.0244 </r>
       <r>     7.4344     1.1949     3.1394 </r>
       <r>     7.5306    -0.0047     3.1389 </r>
       <r>     7.6268    -0.0003     3.1389 </r>
       <r>     7.7230     0.0000     3.1389 </r>
       <r>     7.8192     0.0000     3.1389 </r>
       <r>     7.9154    -0.0235     3.1366 </r>
       <r>     8.0116     0.8343     3.2169 </r>
       <r>     8.1079     1.0361     3.3166 </r>
       <r>     8.2041     0.4708     3.3619 </r>
       <r>     8.3003    -0.0214     3.3598 </r>
       <r>     8.3965     0.3921     3.3976 </r>
       <r>     8.4927    -0.0031     3.3973 </r>
       <r>     8.5889     0.2557     3.4219 </r>
       <r>     8.6852     1.3376     3.5506 </r>
       <r>     8.7814     1.5597     3.7006 </r>
       <r>     8.8776     0.9295     3.7901 </r>
       <r>     8.9738    -0.0313     3.7870 </r>
       <r>     9.0700     0.0000     3.7870 </r>
       <r>     9.1662    -0.0091     3.7862 </r>
       <r>     9.2625     0.4292     3.8275 </r>
       <r>     9.3587     0.3155     3.8578 </r>
       <r>     9.4549     1.1334     3.9669 </r>
       <r>     9.5511     0.0364     3.9704 </r>
       <r>     9.6473     0.5587     4.0241 </r>
       <r>     9.7435     0.0325     4.0273 </r>
       <r>     9.8398     0.1885     4.0454 </r>
       <r>     9.9360     0.9314     4.1350 </r>
       <r>    10.0322     1.0683     4.2378 </r>
       <r>    10.1284     0.9718     4.3313 </r>
       <r>    10.2246     1.2226     4.4489 </r>
       <r>    10.3208     1.1486     4.5594 </r>
       <r>    10.4171     1.7185     4.7248 </r>
       <r>    10.5133     1.0601     4.8268 </r>
       <r>    10.6095     0.0746     4.8340 </r>
       <r>    10.7057     0.8002     4.9110 </r>
       <r>    10.8019     0.6053     4.9692 </r>
       <r>    10.8981     1.0292     5.0682 </r>
       <r>    10.9944    -0.0354     5.0648 </r>
       <r>    11.0906     0.0000     5.0648 </r>
       <r>    11.1868     0.0000     5.0648 </r>
       <r>    11.2830     0.0000     5.0648 </r>
       <r>    11.3792     0.0000     5.0648 </r>
       <r>    11.4754     0.0000     5.0648 </r>
       <r>    11.5717    -0.0135     5.0635 </r>
       <r>    11.6679     0.5743     5.1188 </r>
       <r>    11.7641     3.4815     5.4537 </r>
       <r>    11.8603     0.8955     5.5399 </r>
       <r>    11.9565    -0.0297     5.5370 </r>
       <r>    12.0527     0.0000     5.5370 </r>
       <r>    12.1490    -0.0407     5.5331 </r>
       <r>    12.2452     1.1404     5.6428 </r>
       <r>    12.3414     0.3972     5.6811 </r>
       <r>    12.4376     0.0441     5.6853 </r>
       <r>    12.5338    -0.0012     5.6852 </r>
       <r>    12.6300     0.0000     5.6852 </r>
       <r>    12.7263     0.0000     5.6852 </r>
       <r>    12.8225     0.0000     5.6852 </r>
       <r>    12.9187     0.0000     5.6852 </r>
       <r>    13.0149     0.0000     5.6852 </r>
       <r>    13.1111     0.0000     5.6852 </r>
       <r>    13.2073     0.0000     5.6852 </r>
       <r>    13.3036     0.0000     5.6852 </r>
       <r>    13.3998     0.0000     5.6852 </r>
       <r>    13.4960     0.0000     5.6852 </r>
       <r>    13.5922     0.0000     5.6852 </r>
       <r>    13.6884     0.0000     5.6852 </r>
       <r>    13.7846     0.0000     5.6852 </r>
       <r>    13.8809     0.0000     5.6852 </r>
       <r>    13.9771    -0.0006     5.6851 </r>
       <r>    14.0733     0.0454     5.6895 </r>
       <r>    14.1695     0.5523     5.7426 </r>
       <r>    14.2657    -0.0198     5.7407 </r>
       <r>    14.3619     0.0000     5.7407 </r>
       <r>    14.4582    -0.0001     5.7407 </r>
       <r>    14.5544    -0.0406     5.7368 </r>
       <r>    14.6506     1.1642     5.8488 </r>
       <r>    14.7468     0.0318     5.8519 </r>
       <r>    14.8430    -0.0069     5.8512 </r>
       <r>    14.9392     0.4038     5.8901 </r>
       <r>    15.0355     0.7769     5.9648 </r>
       <r>    15.1317    -0.0204     5.9629 </r>
       <r>    15.2279     0.0465     5.9674 </r>
       <r>    15.3241     0.9454     6.0583 </r>
       <r>    15.4203     1.7199     6.2238 </r>
       <r>    15.5165    -0.0162     6.2223 </r>
       <r>    15.6128    -0.0012     6.2221 </r>
       <r>    15.7090     0.0698     6.2289 </r>
       <r>    15.8052     0.5267     6.2795 </r>
       <r>    15.9014    -0.0182     6.2778 </r>
       <r>    15.9976     0.0000     6.2778 </r>
       <r>    16.0938     0.0000     6.2778 </r>
       <r>    16.1900     0.0000     6.2778 </r>
       <r>    16.2863    -0.0273     6.2752 </r>
       <r>    16.3825     0.7685     6.3491 </r>
       <r>    16.4787     0.0291     6.3519 </r>
       <r>    16.5749    -0.0043     6.3515 </r>
       <r>    16.6711     0.2264     6.3733 </r>
       <r>    16.7673     0.3634     6.4082 </r>
       <r>    16.8636    -0.0086     6.4074 </r>
       <r>    16.9598     0.0000     6.4074 </r>
       <r>    17.0560     0.0000     6.4074 </r>
       <r>    17.1522     0.0000     6.4074 </r>
       <r>    17.2484     0.0000     6.4074 </r>
       <r>    17.3446    -0.0003     6.4074 </r>
       <r>    17.4409    -0.0047     6.4069 </r>
       <r>    17.5371     1.1949     6.5219 </r>
       <r>    17.6333    -0.0350     6.5185 </r>
       <r>    17.7295    -0.0001     6.5185 </r>
       <r>    17.8257    -0.0011     6.5184 </r>
       <r>    17.9219     0.0622     6.5244 </r>
       <r>    18.0182     1.7181     6.6897 </r>
       <r>    18.1144    -0.0610     6.6838 </r>
       <r>    18.2106     1.2463     6.8038 </r>
       <r>    18.3068     0.2140     6.8244 </r>
       <r>    18.4030    -0.0029     6.8241 </r>
       <r>    18.4992     0.0000     6.8241 </r>
       <r>    18.5955     0.0000     6.8241 </r>
       <r>    18.6917     0.0000     6.8241 </r>
       <r>    18.7879     0.0000     6.8241 </r>
       <r>    18.8841    -0.0361     6.8206 </r>
       <r>    18.9803     1.0480     6.9214 </r>
       <r>    19.0765     1.9448     7.1086 </r>
       <r>    19.1728     0.5791     7.1643 </r>
       <r>    19.2690     1.1242     7.2724 </r>
       <r>    19.3652    -0.0407     7.2685 </r>
       <r>    19.4614    -0.0001     7.2685 </r>
       <r>    19.5576    -0.0390     7.2648 </r>
       <r>    19.6538     1.1810     7.3784 </r>
       <r>    19.7501     0.0119     7.3795 </r>
       <r>    19.8463     0.0927     7.3885 </r>
       <r>    19.9425     0.0003     7.3885 </r>
       <r>    20.0387     7.2509     8.0861 </r>
       <r>    20.1349     3.3020     8.4039 </r>
       <r>    20.2311    -0.0934     8.3949 </r>
       <r>    20.3274     1.1573     8.5062 </r>
       <r>    20.4236     1.0957     8.6116 </r>
       <r>    20.5198     0.0919     8.6205 </r>
       <r>    20.6160    -0.0012     8.6204 </r>
       <r>    20.7122     0.0000     8.6204 </r>
       <r>    20.8084     0.0000     8.6204 </r>
       <r>    20.9047     0.0000     8.6204 </r>
       <r>    21.0009     0.0000     8.6204 </r>
       <r>    21.0971     0.0000     8.6204 </r>
       <r>    21.1933     0.0000     8.6204 </r>
       <r>    21.2895    -0.0037     8.6200 </r>
       <r>    21.3857     0.1933     8.6386 </r>
       <r>    21.4820     0.5253     8.6892 </r>
       <r>    21.5782     0.2543     8.7136 </r>
       <r>    21.6744    -0.0069     8.7130 </r>
       <r>    21.7706    -0.0093     8.7121 </r>
       <r>    21.8668     0.5160     8.7617 </r>
       <r>    21.9630     0.6626     8.8255 </r>
       <r>    22.0593    -0.0145     8.8241 </r>
       <r>    22.1555     0.0000     8.8241 </r>
       <r>    22.2517     0.0000     8.8241 </r>
       <r>    22.3479    -0.0379     8.8204 </r>
       <r>    22.4441     1.0628     8.9227 </r>
       <r>    22.5403     0.4964     8.9704 </r>
       <r>    22.6366     0.0188     8.9723 </r>
       <r>    22.7328    -0.0003     8.9722 </r>
       <r>    22.8290     0.0000     8.9722 </r>
       <r>    22.9252     0.0000     8.9722 </r>
       <r>    23.0214     0.0000     8.9722 </r>
       <r>    23.1176     0.0000     8.9722 </r>
       <r>    23.2139     0.0000     8.9722 </r>
       <r>    23.3101     0.0000     8.9722 </r>
       <r>    23.4063     0.0000     8.9722 </r>
       <r>    23.5025     0.0000     8.9722 </r>
       <r>    23.5987     0.0000     8.9722 </r>
       <r>    23.6949     0.0000     8.9722 </r>
       <r>    23.7911     0.0000     8.9722 </r>
       <r>    23.8874     0.0000     8.9722 </r>
       <r>    23.9836     0.0000     8.9722 </r>
       <r>    24.0798     0.0000     8.9722 </r>
       <r>    24.1760     0.0000     8.9722 </r>
       <r>    24.2722    -0.0001     8.9722 </r>
       <r>    24.3684    -0.0039     8.9718 </r>
       <r>    24.4647     0.3002     9.0007 </r>
       <r>    24.5609    -0.0075     9.0000 </r>
       <r>    24.6571     0.0000     9.0000 </r>
       <r>    24.7533     0.0000     9.0000 </r>
       <r>    24.8495     0.0000     9.0000 </r>
       <r>    24.9457     0.0000     9.0000 </r>
       <r>    25.0420     0.0000     9.0000 </r>
       <r>    25.1382     0.0000     9.0000 </r>
       <r>    25.2344     0.0000     9.0000 </r>
       <r>    25.3306     0.0000     9.0000 </r>
       <r>    25.4268     0.0000     9.0000 </r>
       <r>    25.5230     0.0000     9.0000 </r>
       <r>    25.6193     0.0000     9.0000 </r>
       <r>    25.7155     0.0000     9.0000 </r>
       <r>    25.8117     0.0000     9.0000 </r>
      </set>
      <set comment="spin 2">
       <r>    -3.0532     0.0000     0.0000 </r>
       <r>    -2.9570     0.0000     0.0000 </r>
       <r>    -2.8608     0.0000     0.0000 </r>
       <r>    -2.7646     0.0000     0.0000 </r>
       <r>    -2.6684     0.0000     0.0000 </r>
       <r>    -2.5722     0.0000     0.0000 </r>
       <r>    -2.4759     0.0000     0.0000 </r>
       <r>    -2.3797     0.0000     0.0000 </r>
       <r>    -2.2835     0.0000     0.0000 </r>
       <r>    -2.1873     0.0000     0.0000 </r>
       <r>    -2.0911     0.0000     0.0000 </r>
       <r>    -1.9949     0.0000     0.0000 </r>
       <r>    -1.8986     0.0000     0.0000 </r>
       <r>    -1.8024     0.0000     0.0000 </r>
       <r>    -1.7062    -0.0073    -0.0007 </r>
       <r>    -1.6100     0.2357     0.0220 </r>
       <r>    -1.5138     0.0611     0.0279 </r>
       <r>    -1.4176    -0.0008     0.0278 </r>
       <r>    -1.3213     0.0000     0.0278 </r>
       <r>    -1.2251     0.0000     0.0278 </r>
       <r>    -1.1289     0.0000     0.0278 </r>
       <r>    -1.0327     0.0000     0.0278 </r>
       <r>    -0.9365     0.0000     0.0278 </r>
       <r>    -0.8403     0.0000     0.0278 </r>
       <r>    -0.7440     0.0000     0.0278 </r>
       <r>    -0.6478    -0.0132     0.0265 </r>
       <r>    -0.5516     0.3920     0.0642 </r>
       <r>    -0.4554     0.0063     0.0648 </r>
       <r>    -0.3592    -0.0002     0.0648 </r>
       <r>    -0.2630     0.0000     0.0648 </r>
       <r>    -0.1667     0.0000     0.0648 </r>
       <r>    -0.0705     0.0000     0.0648 </r>
       <r>     0.0257     0.0000     0.0648 </r>
       <r>     0.1219    -0.0001     0.0648 </r>
       <r>     0.2181    -0.0402     0.0609 </r>
       <r>     0.3143     1.1710     0.1736 </r>
       <r>     0.4105     0.0246     0.1760 </r>
       <r>     0.5068    -0.0006     0.1759 </r>
       <r>     0.6030     0.0000     0.1759 </r>
       <r>     0.6992     0.0000     0.1759 </r>
       <r>     0.7954     0.0000     0.1759 </r>
       <r>     0.8916     0.0000     0.1759 </r>
       <r>     0.9878     0.0000     0.1759 </r>
       <r>     1.0841     0.0000     0.1759 </r>
       <r>     1.1803     0.0000     0.1759 </r>
       <r>     1.2765     0.0000     0.1759 </r>
       <r>     1.3727     0.0000     0.1759 </r>
       <r>     1.4689    -0.0433     0.1718 </r>
       <r>     1.5651     1.3437     0.3010 </r>
       <r>     1.6614     1.0428     0.4014 </r>
       <r>     1.7576    -0.0340     0.3981 </r>
       <r>     1.8538     0.0292     0.4009 </r>
       <r>     1.9500     0.4800     0.4471 </r>
       <r>     2.0462     0.3651     0.4822 </r>
       <r>     2.1424     0.1049     0.4923 </r>
       <r>     2.2387     1.0795     0.5962 </r>
       <r>     2.3349     0.2742     0.6226 </r>
       <r>     2.4311     0.2760     0.6491 </r>
       <r>     2.5273    -0.0102     0.6481 </r>
       <r>     2.6235     0.0000     0.6481 </r>
       <r>     2.7197    -0.0279     0.6455 </r>
       <r>     2.8160     0.9510     0.7370 </r>
       <r>     2.9122     1.4278     0.8744 </r>
       <r>     3.0084     0.1748     0.8912 </r>
       <r>     3.1046     0.5439     0.9435 </r>
       <r>     3.2008     1.1868     1.0577 </r>
       <r>     3.2970    -0.0221     1.0556 </r>
       <r>     3.3933    -0.0002     1.0556 </r>
       <r>     3.4895     0.0000     1.0556 </r>
       <r>     3.5857    -0.0103     1.0546 </r>
       <r>     3.6819     0.5483     1.1073 </r>
       <r>     3.7781     0.6300     1.1679 </r>
       <r>     3.8743    -0.0132     1.1667 </r>
       <r>     3.9706    -0.0007     1.1666 </r>
       <r>     4.0668     0.0516     1.1716 </r>
       <r>     4.1630     0.5424     1.2238 </r>
       <r>     4.2592     0.2315     1.2460 </r>
       <r>     4.3554     1.5577     1.3959 </r>
       <r>     4.4516     0.9846     1.4906 </r>
       <r>     4.5479     0.9289     1.5800 </r>
       <r>     4.6441     2.1673     1.7885 </r>
       <r>     4.7403     0.2259     1.8103 </r>
       <r>     4.8365     0.2893     1.8381 </r>
       <r>     4.9327     2.0009     2.0306 </r>
       <r>     5.0289     1.3724     2.1627 </r>
       <r>     5.1252     0.0423     2.1667 </r>
       <r>     5.2214    -0.0007     2.1667 </r>
       <r>     5.3176    -0.0102     2.1657 </r>
       <r>     5.4138     0.5081     2.2146 </r>
       <r>     5.5100     1.8372     2.3913 </r>
       <r>     5.6062     1.9548     2.5794 </r>
       <r>     5.7025    -0.0556     2.5741 </r>
       <r>     5.7987    -0.0311     2.5711 </r>
       <r>     5.8949     0.9714     2.6646 </r>
       <r>     5.9911     0.2172     2.6855 </r>
       <r>     6.0873    -0.0028     2.6852 </r>
       <r>     6.1835    -0.0001     2.6852 </r>
       <r>     6.2798    -0.0131     2.6839 </r>
       <r>     6.3760     0.6256     2.7441 </r>
       <r>     6.4722     0.9594     2.8364 </r>
       <r>     6.5684    -0.0341     2.8331 </r>
       <r>     6.6646     0.1217     2.8448 </r>
       <r>     6.7608     0.1373     2.8581 </r>
       <r>     6.8571     1.0419     2.9583 </r>
       <r>     6.9533     0.7437     3.0299 </r>
       <r>     7.0495    -0.0216     3.0278 </r>
       <r>     7.1457     0.0000     3.0278 </r>
       <r>     7.2419     0.0000     3.0278 </r>
       <r>     7.3381    -0.0001     3.0278 </r>
       <r>     7.4344    -0.0391     3.0240 </r>
       <r>     7.5306     1.1803     3.1376 </r>
       <r>     7.6268     0.0142     3.1389 </r>
       <r>     7.7230    -0.0005     3.1389 </r>
       <r>     7.8192     0.0000     3.1389 </r>
       <r>     7.9154     0.0000     3.1389 </r>
       <r>     8.0116    -0.0351     3.1355 </r>
       <r>     8.1079     1.0118     3.2329 </r>
       <r>     8.2041     0.9542     3.3247 </r>
       <r>     8.3003     0.3845     3.3617 </r>
       <r>     8.3965    -0.0195     3.3598 </r>
       <r>     8.4927     0.3783     3.3962 </r>
       <r>     8.5889     0.0428     3.4003 </r>
       <r>     8.6852     0.2435     3.4237 </r>
       <r>     8.7814     1.2797     3.5469 </r>
       <r>     8.8776     1.7944     3.7195 </r>
       <r>     8.9738     0.7210     3.7889 </r>
       <r>     9.0700    -0.0194     3.7870 </r>
       <r>     9.1662     0.0000     3.7870 </r>
       <r>     9.2625    -0.0249     3.7846 </r>
       <r>     9.3587     0.7114     3.8531 </r>
       <r>     9.4549     0.0769     3.8605 </r>
       <r>     9.5511     1.1954     3.9755 </r>
       <r>     9.6473    -0.0431     3.9714 </r>
       <r>     9.7435     0.6007     4.0292 </r>
       <r>     9.8398    -0.0225     4.0270 </r>
       <r>     9.9360     0.2586     4.0519 </r>
       <r>    10.0322     1.1107     4.1587 </r>
       <r>    10.1284     1.1793     4.2722 </r>
       <r>    10.2246     0.7382     4.3432 </r>
       <r>    10.3208     1.4474     4.4825 </r>
       <r>    10.4171     1.0754     4.5860 </r>
       <r>    10.5133     1.7458     4.7539 </r>
       <r>    10.6095     0.7428     4.8254 </r>
       <r>    10.7057     0.1335     4.8383 </r>
       <r>    10.8019     1.1149     4.9455 </r>
       <r>    10.8981     0.4606     4.9898 </r>
       <r>    10.9944     0.8000     5.0668 </r>
       <r>    11.0906    -0.0208     5.0648 </r>
       <r>    11.1868     0.0000     5.0648 </r>
       <r>    11.2830     0.0000     5.0648 </r>
       <r>    11.3792     0.0000     5.0648 </r>
       <r>    11.4754     0.0000     5.0648 </r>
       <r>    11.5717    -0.0001     5.0648 </r>
       <r>    11.6679    -0.0103     5.0638 </r>
       <r>    11.7641     0.7245     5.1335 </r>
       <r>    11.8603     3.5340     5.4735 </r>
       <r>    11.9565     0.6787     5.5389 </r>
       <r>    12.0527    -0.0189     5.5370 </r>
       <r>    12.1490    -0.0001     5.5370 </r>
       <r>    12.2452    -0.0368     5.5335 </r>
       <r>    12.3414     1.1914     5.6481 </r>
       <r>    12.4376     0.3034     5.6773 </r>
       <r>    12.5338     0.0853     5.6855 </r>
       <r>    12.6300    -0.0034     5.6852 </r>
       <r>    12.7263     0.0000     5.6852 </r>
       <r>    12.8225     0.0000     5.6852 </r>
       <r>    12.9187     0.0000     5.6852 </r>
       <r>    13.0149     0.0000     5.6852 </r>
       <r>    13.1111     0.0000     5.6852 </r>
       <r>    13.2073     0.0000     5.6852 </r>
       <r>    13.3036     0.0000     5.6852 </r>
       <r>    13.3998     0.0000     5.6852 </r>
       <r>    13.4960     0.0000     5.6852 </r>
       <r>    13.5922     0.0000     5.6852 </r>
       <r>    13.6884     0.0000     5.6852 </r>
       <r>    13.7846     0.0000     5.6852 </r>
       <r>    13.8809     0.0000     5.6852 </r>
       <r>    13.9771     0.0000     5.6852 </r>
       <r>    14.0733    -0.0025     5.6849 </r>
       <r>    14.1695     0.1720     5.7015 </r>
       <r>    14.2657     0.4193     5.7418 </r>
       <r>    14.3619    -0.0114     5.7407 </r>
       <r>    14.4582     0.0000     5.7407 </r>
       <r>    14.5544     0.0000     5.7407 </r>
       <r>    14.6506    -0.0312     5.7377 </r>
       <r>    14.7468     0.9740     5.8315 </r>
       <r>    14.8430     0.2147     5.8521 </r>
       <r>    14.9392    -0.0237     5.8498 </r>
       <r>    15.0355     0.8037     5.9272 </r>
       <r>    15.1317     0.3778     5.9635 </r>
       <r>    15.2279    -0.0063     5.9629 </r>
       <r>    15.3241     0.0093     5.9638 </r>
       <r>    15.4203     1.3116     6.0900 </r>
       <r>    15.5165     1.3522     6.2201 </r>
       <r>    15.6128     0.0226     6.2223 </r>
       <r>    15.7090    -0.0011     6.2222 </r>
       <r>    15.8052     0.0368     6.2257 </r>
       <r>    15.9014     0.5613     6.2797 </r>
       <r>    15.9976    -0.0202     6.2778 </r>
       <r>    16.0938     0.0000     6.2778 </r>
       <r>    16.1900     0.0000     6.2778 </r>
       <r>    16.2863    -0.0001     6.2778 </r>
       <r>    16.3825    -0.0198     6.2759 </r>
       <r>    16.4787     0.8007     6.3529 </r>
       <r>    16.5749    -0.0108     6.3519 </r>
       <r>    16.6711    -0.0051     6.3514 </r>
       <r>    16.7673     0.2664     6.3770 </r>
       <r>    16.8636     0.3228     6.4081 </r>
       <r>    16.9598    -0.0069     6.4074 </r>
       <r>    17.0560     0.0000     6.4074 </r>
       <r>    17.1522     0.0000     6.4074 </r>
       <r>    17.2484     0.0000     6.4074 </r>
       <r>    17.3446     0.0000     6.4074 </r>
       <r>    17.4409    -0.0007     6.4073 </r>
       <r>    17.5371     0.0431     6.4115 </r>
       <r>    17.6333     1.1533     6.5225 </r>
       <r>    17.7295    -0.0409     6.5185 </r>
       <r>    17.8257     0.0000     6.5185 </r>
       <r>    17.9219    -0.0030     6.5182 </r>
       <r>    18.0182     0.2121     6.5386 </r>
       <r>    18.1144     1.5637     6.6891 </r>
       <r>    18.2106    -0.0179     6.6874 </r>
       <r>    18.3068     1.1898     6.8019 </r>
       <r>    18.4030     0.1364     6.8150 </r>
       <r>    18.4992    -0.0017     6.8148 </r>
       <r>    18.5955     0.0000     6.8148 </r>
       <r>    18.6917     0.0000     6.8148 </r>
       <r>    18.7879     0.0000     6.8148 </r>
       <r>    18.8841     0.0000     6.8148 </r>
       <r>    18.9803    -0.0431     6.8107 </r>
       <r>    19.0765     1.3587     6.9414 </r>
       <r>    19.1728     1.6949     7.1045 </r>
       <r>    19.2690     0.7455     7.1762 </r>
       <r>    19.3652     0.8896     7.2618 </r>
       <r>    19.4614    -0.0263     7.2593 </r>
       <r>    19.5576    -0.0001     7.2592 </r>
       <r>    19.6538    -0.0339     7.2560 </r>
       <r>    19.7501     1.1969     7.3711 </r>
       <r>    19.8463    -0.0124     7.3700 </r>
       <r>    19.9425     0.1767     7.3870 </r>
       <r>    20.0387     0.8669     7.4704 </r>
       <r>    20.1349     9.8579     8.4189 </r>
       <r>    20.2311    -0.2132     8.3983 </r>
       <r>    20.3274    -0.0344     8.3950 </r>
       <r>    20.4236     1.1583     8.5065 </r>
       <r>    20.5198     1.1235     8.6146 </r>
       <r>    20.6160     0.0612     8.6205 </r>
       <r>    20.7122    -0.0009     8.6204 </r>
       <r>    20.8084     0.0000     8.6204 </r>
       <r>    20.9047     0.0000     8.6204 </r>
       <r>    21.0009     0.0000     8.6204 </r>
       <r>    21.0971     0.0000     8.6204 </r>
       <r>    21.1933     0.0000     8.6204 </r>
       <r>    21.2895     0.0000     8.6204 </r>
       <r>    21.3857    -0.0015     8.6202 </r>
       <r>    21.4820     0.0941     8.6293 </r>
       <r>    21.5782     0.5251     8.6798 </r>
       <r>    21.6744     0.3580     8.7143 </r>
       <r>    21.7706    -0.0134     8.7130 </r>
       <r>    21.8668    -0.0282     8.7102 </r>
       <r>    21.9630     0.9285     8.7996 </r>
       <r>    22.0593     0.2579     8.8244 </r>
       <r>    22.1555    -0.0034     8.8241 </r>
       <r>    22.2517     0.0000     8.8241 </r>
       <r>    22.3479     0.0000     8.8241 </r>
       <r>    22.4441    -0.0409     8.8201 </r>
       <r>    22.5403     1.1357     8.9294 </r>
       <r>    22.6366     0.4272     8.9705 </r>
       <r>    22.7328     0.0181     8.9722 </r>
       <r>    22.8290    -0.0003     8.9722 </r>
       <r>    22.9252     0.0000     8.9722 </r>
       <r>    23.0214     0.0000     8.9722 </r>
       <r>    23.1176     0.0000     8.9722 </r>
       <r>    23.2139     0.0000     8.9722 </r>
       <r>    23.3101     0.0000     8.9722 </r>
       <r>    23.4063     0.0000     8.9722 </r>
       <r>    23.5025     0.0000     8.9722 </r>
       <r>    23.5987     0.0000     8.9722 </r>
       <r>    23.6949     0.0000     8.9722 </r>
       <r>    23.7911     0.0000     8.9722 </r>
       <r>    23.8874     0.0000     8.9722 </r>
       <r>    23.9836     0.0000     8.9722 </r>
       <r>    24.0798     0.0000     8.9722 </r>
       <r>    24.1760     0.0000     8.9722 </r>
       <r>    24.2722     0.0000     8.9722 </r>
       <r>    24.3684    -0.0002     8.9722 </r>
       <r>    24.4647     0.0118     8.9733 </r>
       <r>    24.5609     0.2873     9.0010 </r>
       <r>    24.6571    -0.0102     9.0000 </r>
       <r>    24.7533     0.0000     9.0000 </r>
       <r>    24.8495     0.0000     9.0000 </r>
       <r>    24.9457     0.0000     9.0000 </r>
       <r>    25.0420     0.0000     9.0000 </r>
       <r>    25.1382     0.0000     9.0000 </r>
       <r>    25.2344     0.0000     9.0000 </r>
       <r>    25.3306     0.0000     9.0000 </r>
       <r>    25.4268     0.0000     9.0000 </r>
       <r>    25.5230     0.0000     9.0000 </r>
       <r>    25.6193     0.0000     9.0000 </r>
       <r>    25.7155     0.0000     9.0000 </r>
       <r>    25.8117     0.0000     9.0000 </r>
      </set>
     </set>
    </array>
   </total>
   <partial>
    <array>
     <dimension dim="1">gridpoints</dimension>
     <dimension dim="2">spin</dimension>
     <dimension dim="3">ion</dimension>
     <field>energy</field>
     <field>  s</field>
     <field> py</field>
     <field> pz</field>
     <field> px</field>
     <field>dxy</field>
     <field>dyz</field>
     <field>dz2</field>
     <field>dxz</field>
     <field>dx2</field>
     <set>
      <set comment="ion 1">
       <set comment="spin 1">
        <r>    -3.0532     0.0000     0.0000     0.0000     0.0000     0.0000     0.0000     0.0000     0.0000     0.0000 </r>
        <r>    -2.9570     0.0000     0.0000     0.0000     0.0000     0.0000     0.0000     0.0000     0.0000     0.0000 </r>
        <r>    -2.8608     0.0000     0.0000     0.0000     0.0000     0.0000     0.0000     0.0000     0.0000     0.0000 </r>
        <r>    -2.7646     0.0000     0.0000     0.0000     0.0000     0.0000     0.0000     0.0000     0.0000     0.0000 </r>
        <r>    -2.6684     0.0000     0.0000     0.0000     0.0000     0.0000     0.0000     0.0000     0.0000     0.0000 </r>
        <r>    -2.5722     0.0000     0.0000     0.0000     0.0000     0.0000     0.0000     0.0000     0.0000     0.0000 </r>
        <r>    -2.4759     0.0000     0.0000     0.0000     0.0000     0.0000     0.0000     0.0000     0.0000     0.0000 </r>
        <r>    -2.3797     0.0000     0.0000     0.0000     0.0000     0.0000     0.0000     0.0000     0.0000     0.0000 </r>
        <r>    -2.2835     0.0000     0.0000     0.0000     0.0000     0.0000     0.0000     0.0000     0.0000     0.0000 </r>
        <r>    -2.1873     0.0000     0.0000     0.0000     0.0000     0.0000     0.0000     0.0000     0.0000     0.0000 </r>
        <r>    -2.0911     0.0000     0.0000     0.0000     0.0000     0.0000     0.0000     0.0000     0.0000     0.0000 </r>
        <r>    -1.9949     0.0000     0.0000     0.0000     0.0000     0.0000     0.0000     0.0000     0.0000     0.0000 </r>
        <r>    -1.8986     0.0000     0.0000     0.0000     0.0000     0.0000     0.0000     0.0000     0.0000     0.0000 </r>
        <r>    -1.8024    -0.0081     0.0000     0.0000    -0.0005     0.0000     0.0000     0.0000     0.0000     0.0000 </r>
        <r>    -1.7062     0.2285     0.0000     0.0000     0.0127     0.0000     0.0000     0.0001     0.0000     0.0004 </r>
        <r>    -1.6100     0.0094     0.0000     0.0000     0.0005     0.0000     0.0000     0.0000     0.0000     0.0000 </r>
        <r>    -1.5138    -0.0002     0.0000     0.0000     0.0000     0.0000     0.0000     0.0000     0.0000     0.0000 </r>
        <r>    -1.4176     0.0000     0.0000     0.0000     0.0000     0.0000     0.0000     0.0000     0.0000     0.0000 </r>
        <r>    -1.3213     0.0000     0.0000     0.0000     0.0000     0.0000     0.0000     0.0000     0.0000     0.0000 </r>
        <r>    -1.2251     0.0000     0.0000     0.0000     0.0000     0.0000     0.0000     0.0000     0.0000     0.0000 </r>
        <r>    -1.1289     0.0000     0.0000     0.0000     0.0000     0.0000     0.0000     0.0000     0.0000     0.0000 </r>
        <r>    -1.0327     0.0000     0.0000     0.0000     0.0000     0.0000     0.0000     0.0000     0.0000     0.0000 </r>
        <r>    -0.9365     0.0000     0.0000     0.0000     0.0000     0.0000     0.0000     0.0000     0.0000     0.0000 </r>
        <r>    -0.8403    -0.0001     0.0000     0.0000     0.0000     0.0000     0.0000     0.0000     0.0000     0.0000 </r>
        <r>    -0.7440    -0.0008     0.0000     0.0000     0.0000     0.0000     0.0000     0.0000     0.0000     0.0000 </r>
        <r>    -0.6478     0.2883     0.0148     0.0148     0.0148     0.0033     0.0033     0.0000     0.0033     0.0000 </r>
        <r>    -0.5516    -0.0086    -0.0004    -0.0004    -0.0004    -0.0001    -0.0001     0.0000    -0.0001     0.0000 </r>
        <r>    -0.4554     0.0000     0.0000     0.0000     0.0000     0.0000     0.0000     0.0000     0.0000     0.0000 </r>
        <r>    -0.3592     0.0000     0.0000     0.0000     0.0000     0.0000     0.0000     0.0000     0.0000     0.0000 </r>
        <r>    -0.2630     0.0000     0.0000     0.0000     0.0000     0.0000     0.0000     0.0000     0.0000     0.0000 </r>
        <r>    -0.1667     0.0000     0.0000     0.0000     0.0000     0.0000     0.0000     0.0000     0.0000     0.0000 </r>
        <r>    -0.0705     0.0000     0.0000     0.0000     0.0000     0.0000     0.0000     0.0000     0.0000     0.0000 </r>
        <r>     0.0257    -0.0002     0.0000     0.0000     0.0000     0.0000     0.0000     0.0000     0.0000     0.0000 </r>
        <r>     0.1219    -0.0100    -0.0004     0.0000    -0.0021    -0.0009     0.0000    -0.0003     0.0000    -0.0002 </r>
        <r>     0.2181     0.7630     0.0282     0.0000     0.1586     0.0700     0.0000     0.0247     0.0000     0.0123 </r>
        <r>     0.3143    -0.0190    -0.0007     0.0000    -0.0040    -0.0017     0.0000    -0.0006     0.0000    -0.0003 </r>
        <r>     0.4105    -0.0001     0.0000     0.0000     0.0000     0.0000     0.0000     0.0000     0.0000     0.0000 </r>
        <r>     0.5068     0.0000     0.0000     0.0000     0.0000     0.0000     0.0000     0.0000     0.0000     0.0000 </r>
        <r>     0.6030     0.0000     0.0000     0.0000     0.0000     0.0000     0.0000     0.0000     0.0000     0.0000 </r>
        <r>     0.6992     0.0000     0.0000     0.0000     0.0000     0.0000     0.0000     0.0000     0.0000     0.0000 </r>
        <r>     0.7954     0.0000     0.0000     0.0000     0.0000     0.0000     0.0000     0.0000     0.0000     0.0000 </r>
        <r>     0.8916     0.0000     0.0000     0.0000     0.0000     0.0000     0.0000     0.0000     0.0000     0.0000 </r>
        <r>     0.9878     0.0000     0.0000     0.0000     0.0000     0.0000     0.0000     0.0000     0.0000     0.0000 </r>
        <r>     1.0841     0.0000     0.0000     0.0000     0.0000     0.0000     0.0000     0.0000     0.0000     0.0000 </r>
        <r>     1.1803     0.0000     0.0000     0.0000     0.0000     0.0000     0.0000     0.0000     0.0000     0.0000 </r>
        <r>     1.2765    -0.0001     0.0000     0.0000     0.0000     0.0000     0.0000     0.0000     0.0000     0.0000 </r>
        <r>     1.3727    -0.0142    -0.0016    -0.0016    -0.0013    -0.0022    -0.0059    -0.0015    -0.0001    -0.0011 </r>
        <r>     1.4689     0.6831     0.0712     0.0710     0.0651     0.1430     0.2698     0.0937     0.0061     0.0513 </r>
        <r>     1.5651     0.2474    -0.0008    -0.0012     0.0382     0.3037    -0.0047     0.1705    -0.0001     0.0011 </r>
        <r>     1.6614    -0.0072     0.0000     0.0000    -0.0012    -0.0080    -0.0001    -0.0045     0.0000    -0.0001 </r>
        <r>     1.7576     0.0189     0.0000     0.0000     0.0128     0.0000    -0.0033     0.0017     0.0000     0.0050 </r>
        <r>     1.8538     0.1920     0.0000     0.0000     0.0854     0.0000     0.1552     0.0260     0.0000     0.0780 </r>
        <r>     1.9500     0.0620     0.0000     0.0000     0.0097    -0.0003     0.1271     0.0121    -0.0003     0.0364 </r>
        <r>     2.0462     0.0887     0.0026     0.0026     0.0386     0.0243    -0.0003     0.0065     0.0243     0.0194 </r>
        <r>     2.1424     0.3749     0.0109     0.0109     0.1618     0.1015     0.0087     0.0230     0.1015     0.0822 </r>
        <r>     2.2387    -0.0118    -0.0003    -0.0003    -0.0051    -0.0032    -0.0003     0.2022    -0.0032     0.0653 </r>
        <r>     2.3349     0.0017     0.0000     0.0000     0.0176     0.0000     0.0000     0.0596     0.0000     0.1864 </r>
        <r>     2.4311    -0.0001     0.0000     0.0000    -0.0005     0.0000     0.0000    -0.0020     0.0000    -0.0058 </r>
        <r>     2.5273     0.0000     0.0000     0.0000     0.0000     0.0000     0.0000     0.0000     0.0000     0.0000 </r>
        <r>     2.6235    -0.0062    -0.0008    -0.0010    -0.0009    -0.0126    -0.0009    -0.0096    -0.0009     0.0000 </r>
        <r>     2.7197     0.1848     0.0235     0.0303     0.0255     0.3738     0.0282     0.2851     0.0282     0.0007 </r>
        <r>     2.8160     0.1609     0.0090     0.0050     0.1527     0.1822     0.0047     0.6549     0.0047     0.0500 </r>
        <r>     2.9122    -0.0049     0.0036     0.0038    -0.0012    -0.0041     0.0005     0.0285     0.0005     0.0478 </r>
        <r>     3.0084     0.0068     0.0221     0.0203     0.0220     0.0076     0.0140     0.2607     0.0140     0.2595 </r>
        <r>     3.1046     0.2168     0.0601     0.0057     0.0601     0.1131     0.3192     0.0297     0.3192    -0.0085 </r>
        <r>     3.2008    -0.0076    -0.0021    -0.0002    -0.0021    -0.0040    -0.0112    -0.0013    -0.0112     0.0000 </r>
        <r>     3.2970     0.0000     0.0000     0.0000     0.0000     0.0000     0.0000     0.0000     0.0000     0.0000 </r>
        <r>     3.3933     0.0000     0.0000     0.0000     0.0000     0.0000     0.0000     0.0000     0.0000     0.0000 </r>
        <r>     3.4895    -0.0001    -0.0003     0.0000    -0.0005     0.0000     0.0000    -0.0008     0.0000    -0.0031 </r>
        <r>     3.5857     0.0068     0.0209     0.0000     0.0336     0.0012     0.0000     0.0509     0.0000     0.2055 </r>
        <r>     3.6819     0.0153     0.0469     0.0000     0.0753     0.0027     0.0000     0.1141     0.0000     0.4607 </r>
        <r>     3.7781    -0.0004    -0.0012     0.0000    -0.0020    -0.0001     0.0000    -0.0030     0.0000    -0.0122 </r>
        <r>     3.8743     0.0000     0.0000     0.0000     0.0000    -0.0010     0.0000     0.0000    -0.0010     0.0000 </r>
        <r>     3.9706     0.0000     0.0029     0.0029     0.0000     0.0721     0.0000     0.0000     0.0721     0.0000 </r>
        <r>     4.0668     0.0000     0.0084     0.0089    -0.0005     0.2203    -0.0012     0.0000     0.2191    -0.0007 </r>
        <r>     4.1630     0.0000     0.0342    -0.0009     0.0351    -0.0083     0.0890    -0.0041     0.0808     0.0471 </r>
        <r>     4.2592     0.0000     0.1276     0.0294     0.0973     0.0884     0.2473     0.2075     0.3376     0.2049 </r>
        <r>     4.3554     0.0000     0.0607     0.0635     0.0215     0.3797     0.0492     0.2203     0.3723     0.0696 </r>
        <r>     4.4516    -0.0009     0.0152     0.0139     0.0037     0.3434     0.0105     0.0021     0.3458     0.0027 </r>
        <r>     4.5479     0.0240     0.0145     0.0746     0.0148     0.0003     0.9486     0.1648     0.9947    -0.0001 </r>
        <r>     4.6441     0.0021     0.0013     0.0047     0.0013     0.0001     0.0159     0.0240     0.0140     0.0030 </r>
        <r>     4.7403     0.0042    -0.0004     0.0295    -0.0004     0.0540    -0.0011     0.1791    -0.0011     0.0513 </r>
        <r>     4.8365     0.0443     0.1612     0.3136     0.1655     0.5779     0.0188     0.0127     0.0283     0.3181 </r>
        <r>     4.9327     0.0461     0.2151     0.1256     0.0907     0.0808     0.3915     0.0423     0.1193     0.3204 </r>
        <r>     5.0289     0.0012     0.0021     0.0034    -0.0010     0.0025     0.0090     0.0011     0.0022     0.0001 </r>
        <r>     5.1252     0.0000    -0.0001    -0.0001     0.0000    -0.0001    -0.0002     0.0000    -0.0001    -0.0001 </r>
        <r>     5.2214     0.0000     0.0000    -0.0003     0.0000     0.0000    -0.0084     0.0000    -0.0125     0.0000 </r>
        <r>     5.3176    -0.0001    -0.0005     0.0099    -0.0017    -0.0103     0.3084    -0.0009     0.4700    -0.0010 </r>
        <r>     5.4138     0.0047     0.0212     0.0253     0.0779     0.3499     0.6692     0.0288     0.5731     0.0348 </r>
        <r>     5.5100     0.0175     0.0948     0.0131     0.1114     0.7036     0.2466     0.2856     0.0909     0.0611 </r>
        <r>     5.6062    -0.0005    -0.0029    -0.0003    -0.0028    -0.0219    -0.0048    -0.0094    -0.0018    -0.0019 </r>
        <r>     5.7025    -0.0009    -0.0052     0.0000    -0.0052    -0.0008     0.0000    -0.0024     0.0000    -0.0038 </r>
        <r>     5.7987     0.0358     0.1975     0.0000     0.1993     0.0308     0.0000     0.0899     0.0000     0.1443 </r>
        <r>     5.8949     0.0166     0.0914     0.0000     0.0922     0.0142     0.0000     0.0416     0.0000     0.0668 </r>
        <r>     5.9911    -0.0002    -0.0014     0.0000    -0.0014    -0.0002     0.0000    -0.0006     0.0000    -0.0010 </r>
        <r>     6.0873     0.0000     0.0000     0.0000     0.0000    -0.0002     0.0000     0.0000    -0.0002     0.0000 </r>
        <r>     6.1835    -0.0001     0.0000     0.0000     0.0000     0.0076    -0.0002     0.0000     0.0076     0.0000 </r>
        <r>     6.2798     0.0096     0.0022     0.0022     0.0023     0.3105     0.0155     0.0000     0.3105     0.0000 </r>
        <r>     6.3760     0.0467     0.2190     0.2190     0.0111     0.1217     0.0752     0.0000     0.1217     0.0000 </r>
        <r>     6.4722    -0.0015    -0.0043    -0.0043    -0.0004    -0.0035    -0.0067     0.0000    -0.0035     0.0000 </r>
        <r>     6.5684     0.0000     0.0000     0.0000     0.0000     0.0000     0.1847     0.0000     0.0000     0.0000 </r>
        <r>     6.6646     0.0000     0.0000    -0.0042     0.0000    -0.0002     0.1100     0.0000    -0.0216     0.0000 </r>
        <r>     6.7608     0.0000     0.0023     0.1184     0.0000     0.0169     0.3677     0.0000     0.6133     0.0000 </r>
        <r>     6.8571     0.0000     0.0318     0.0384     0.0000     0.2348     0.0210     0.0000     0.2687     0.0000 </r>
        <r>     6.9533     0.0000    -0.0011    -0.0012     0.0000    -0.0084    -0.0003     0.0000    -0.0089     0.0000 </r>
        <r>     7.0495     0.0000     0.0000     0.0000     0.0000     0.0000     0.0000     0.0000     0.0000     0.0000 </r>
        <r>     7.1457     0.0000     0.0000     0.0000     0.0000     0.0000     0.0000     0.0000     0.0000     0.0000 </r>
        <r>     7.2419     0.0000     0.0000     0.0000     0.0000    -0.0001     0.0000     0.0000     0.0000     0.0000 </r>
        <r>     7.3381    -0.0041    -0.0029     0.0000     0.0000    -0.0175     0.0000    -0.0063     0.0000    -0.0009 </r>
        <r>     7.4344     0.1400     0.0981     0.0000     0.0016     0.5978     0.0000     0.2143     0.0000     0.0302 </r>
        <r>     7.5306    -0.0005    -0.0004     0.0000     0.0000    -0.0023     0.0000    -0.0008     0.0000    -0.0001 </r>
        <r>     7.6268     0.0000     0.0000     0.0000     0.0000    -0.0002     0.0000    -0.0001     0.0000     0.0000 </r>
        <r>     7.7230     0.0000     0.0000     0.0000     0.0000     0.0000     0.0000     0.0000     0.0000     0.0000 </r>
        <r>     7.8192     0.0000     0.0000     0.0000     0.0000     0.0000     0.0000     0.0000     0.0000     0.0000 </r>
        <r>     7.9154     0.0000    -0.0003     0.0000    -0.0003    -0.0078     0.0000    -0.0095     0.0000    -0.0034 </r>
        <r>     8.0116     0.0001     0.0092    -0.0004     0.0095     0.2784     0.0000     0.3395    -0.0042     0.1210 </r>
        <r>     8.1079     0.0000     0.0195     0.0158     0.0037     0.2930     0.0000     0.3206     0.1825     0.1100 </r>
        <r>     8.2041     0.0000     0.0106     0.0106    -0.0001     0.1218     0.0000     0.1239     0.1234     0.0413 </r>
        <r>     8.3003     0.0000    -0.0005    -0.0005    -0.0003    -0.0062    -0.0041    -0.0022    -0.0062    -0.0007 </r>
        <r>     8.3965     0.0010     0.0088     0.0088     0.0088     0.1201     0.1201     0.0000     0.1201     0.0000 </r>
        <r>     8.4927     0.0000     0.0001     0.0001     0.0001     0.0019     0.0019    -0.0061     0.0019    -0.0020 </r>
        <r>     8.5889    -0.0026    -0.0003    -0.0007    -0.0003    -0.0101    -0.0045     0.1758    -0.0034     0.0640 </r>
        <r>     8.6852     0.0765     0.0085     0.0238     0.0085     0.3002     0.2032     0.4899     0.1227     0.0002 </r>
        <r>     8.7814     0.0079     0.0065     0.0493     0.0087     0.0671     0.8689     0.1189     0.3701     0.0000 </r>
        <r>     8.8776     0.0316     0.0291    -0.0018     0.0393     0.2896    -0.0300     0.5159    -0.0132     0.0000 </r>
        <r>     8.9738    -0.0010    -0.0009     0.0000    -0.0013    -0.0093     0.0000    -0.0166     0.0000     0.0000 </r>
        <r>     9.0700     0.0000     0.0000     0.0000     0.0000     0.0000     0.0000     0.0000     0.0000     0.0000 </r>
        <r>     9.1662     0.0000     0.0000     0.0000     0.0000    -0.0003    -0.0003    -0.0037    -0.0003    -0.0037 </r>
        <r>     9.2625     0.0000     0.0000     0.0000     0.0000     0.0121     0.0120     0.1755     0.0121     0.1755 </r>
        <r>     9.3587    -0.0002    -0.0001    -0.0001     0.0000     0.0091     0.0014     0.1388     0.0091     0.1249 </r>
        <r>     9.4549     0.0068     0.0031     0.0031     0.0016     0.0256     0.2399     0.1914     0.0256     0.5797 </r>
        <r>     9.5511    -0.0010     0.0002     0.0002     0.0001     0.0013     0.0084     0.0060     0.0013     0.0179 </r>
        <r>     9.6473     0.0362     0.0000     0.0000     0.0001     0.0000     0.0965     0.1019     0.0000     0.3058 </r>
        <r>     9.7435     0.0025     0.0000     0.0000     0.0000     0.0000     0.0066     0.0057     0.0000     0.0170 </r>
        <r>     9.8398     0.0003    -0.0001     0.0000     0.0002     0.0000    -0.0026     0.0489    -0.0025     0.1284 </r>
        <r>     9.9360     0.0001     0.0040     0.0000     0.0041    -0.0004     0.0886     0.0057     0.0882     0.6982 </r>
[...]
       </set>
       <set comment="band 6">
        <r>  0.3987  0.0498  0.0498  0.0498  0.1010  0.1010  0.0000  0.1010  0.0000 </r>
       </set>
       <set comment="band 7">
        <r>  0.0000  0.2873  0.0000  0.2873  0.0000  0.1653  0.0000  0.1653  0.0733 </r>
       </set>
       <set comment="band 8">
        <r>  0.0000  0.0958  0.3830  0.0958  0.2205  0.0551  0.0733  0.0551  0.0000 </r>
       </set>
       <set comment="band 9">
        <r> 43.8014  0.0003  0.0003  0.0003  0.0001  0.0001  0.0000  0.0001  0.0000 </r>
       </set>
      </set>
      <set comment="kpoint 14">
       <set comment="band 1">
        <r>  0.0000  0.0000  0.0000  0.0000  0.0000  0.0000  0.6759  0.0000  0.2253 </r>
       </set>
       <set comment="band 2">
        <r>  0.0057  0.0000  0.0000  0.0593  0.0000  0.0000  0.2099  0.0000  0.6297 </r>
       </set>
       <set comment="band 3">
        <r>  0.0000  0.1128  0.1128  0.0000  0.3469  0.0000  0.0000  0.3469  0.0000 </r>
       </set>
       <set comment="band 4">
        <r>  0.0000  0.1128  0.1128  0.0000  0.3469  0.0000  0.0000  0.3469  0.0000 </r>
       </set>
       <set comment="band 5">
        <r>  0.0000  0.0000  0.0000  0.0000  0.0000  0.9432  0.0000  0.0000  0.0000 </r>
       </set>
       <set comment="band 6">
        <r>  0.2479  0.0000  0.0000  0.5607  0.0000  0.0000  0.0158  0.0000  0.0475 </r>
       </set>
       <set comment="band 7">
        <r>  0.0000  0.3080  0.3080  0.0000  0.1567  0.0000  0.0000  0.1567  0.0000 </r>
       </set>
       <set comment="band 8">
        <r>  0.0000  0.3080  0.3080  0.0000  0.1567  0.0000  0.0000  0.1567  0.0000 </r>
       </set>
       <set comment="band 9">
        <r> 42.7504  0.0000  0.0000  0.0030  0.0000  0.0000  0.0001  0.0000  0.0003 </r>
       </set>
      </set>
     </set>
     <set comment="spin2">
      <set comment="kpoint 1">
       <set comment="band 1">
        <r>  0.7244  0.0373  0.0373  0.0373  0.0084  0.0084  0.0000  0.0084  0.0000 </r>
       </set>
       <set comment="band 2">
        <r>  0.0000  0.0064  0.0019  0.0137  0.0791  0.5720  0.0071  0.2673  0.0482 </r>
       </set>
       <set comment="band 3">
        <r>  0.0000  0.0082  0.0127  0.0010  0.5332  0.0403  0.0482  0.3449  0.0071 </r>
       </set>
       <set comment="band 4">
        <r>  0.0024  0.0225  0.0225  0.0225  0.3064  0.3064  0.0000  0.3064  0.0000 </r>
       </set>
       <set comment="band 5">
        <r>  0.0000  0.0001  0.0000  0.0002  0.0073  0.0531  0.1056  0.0248  0.7120 </r>
       </set>
       <set comment="band 6">
        <r>  0.0000  0.0001  0.0002  0.0000  0.0495  0.0037  0.7120  0.0320  0.1056 </r>
       </set>
       <set comment="band 7">
        <r> 43.7572  0.0001  0.0001  0.0001  0.0000  0.0000  0.0000  0.0000  0.0000 </r>
       </set>
       <set comment="band 8">
        <r>  0.0000  0.0000  0.0000  0.0000  0.0000  0.0000  0.0000  0.0000  0.0000 </r>
       </set>
       <set comment="band 9">
        <r>  0.0000  0.0287  0.0085  0.0615  0.0079  0.0570  0.0258  0.0266  0.1740 </r>
       </set>
      </set>
      <set comment="kpoint 2">
       <set comment="band 1">
        <r>  0.4715  0.0594  0.0594  0.0397  0.0051  0.2237  0.0141  0.0051  0.0422 </r>
       </set>
       <set comment="band 2">
        <r>  0.0000  0.0173  0.0173  0.0000  0.4769  0.0000  0.0176  0.4769  0.0059 </r>
       </set>
       <set comment="band 3">
        <r>  0.0409  0.1175  0.1175  0.0107  0.0867  0.3195  0.0372  0.0867  0.1117 </r>
       </set>
       <set comment="band 4">
        <r>  0.0060  0.0028  0.0028  0.0015  0.0227  0.2120  0.1700  0.0227  0.5100 </r>
       </set>
       <set comment="band 5">
        <r>  0.0000  0.0006  0.0006  0.0000  0.0192  0.0000  0.6731  0.0192  0.2244 </r>
       </set>
       <set comment="band 6">
        <r>  0.0019  0.0527  0.0527  0.0593  0.3364  0.1086  0.0002  0.3364  0.0005 </r>
       </set>
       <set comment="band 7">
        <r>  0.5152  0.1284  0.1284  0.0150  0.0073  0.2164  0.0114  0.0073  0.0341 </r>
       </set>
       <set comment="band 8">
        <r>  0.0000  0.1081  0.1081  0.0000  0.0300  0.0000  0.0635  0.0300  0.0212 </r>
       </set>
       <set comment="band 9">
        <r> 43.7311  0.0027  0.0027  0.0000  0.0001  0.0058  0.0005  0.0001  0.0014 </r>
       </set>
      </set>
      <set comment="kpoint 3">
       <set comment="band 1">
        <r>  0.2510  0.0000  0.0000  0.0471  0.0000  0.4782  0.0477  0.0000  0.1431 </r>
       </set>
       <set comment="band 2">
        <r>  0.0000  0.0200  0.0200  0.0000  0.4933  0.0000  0.0000  0.4933  0.0000 </r>
       </set>
       <set comment="band 3">
        <r>  0.0000  0.3467  0.3467  0.0000  0.0943  0.0000  0.0000  0.0943  0.0000 </r>
       </set>
       <set comment="band 4">
        <r>  0.0649  0.0000  0.0000  0.0003  0.0000  0.1740  0.1822  0.0000  0.5466 </r>
       </set>
       <set comment="band 5">
        <r>  0.0000  0.0000  0.0000  0.0000  0.0000  0.0000  0.7335  0.0000  0.2445 </r>
       </set>
       <set comment="band 6">
        <r>  0.0000  0.0634  0.0634  0.0000  0.4096  0.0000  0.0000  0.4096  0.0000 </r>
       </set>
       <set comment="band 7">
        <r>  0.4944  0.0000  0.0000  0.0530  0.0000  0.3477  0.0016  0.0000  0.0048 </r>
       </set>
       <set comment="band 8">
        <r>  0.0000  0.1157  0.1157  0.0000  0.0336  0.0000  0.0000  0.0336  0.0000 </r>
       </set>
       <set comment="band 9">
        <r> 44.0545  0.0000  0.0000  0.0000  0.0000  0.0005  0.0000  0.0000  0.0001 </r>
       </set>
      </set>
      <set comment="kpoint 4">
       <set comment="band 1">
        <r>  0.7952  0.0000  0.0000  0.0442  0.0000  0.0000  0.0004  0.0000  0.0013 </r>
       </set>
       <set comment="band 2">
        <r>  0.0000  0.0072  0.0072  0.0000  0.5080  0.0000  0.0000  0.5081  0.0000 </r>
       </set>
       <set comment="band 3">
        <r>  0.0000  0.0072  0.0072  0.0000  0.5081  0.0000  0.0000  0.5080  0.0000 </r>
       </set>
       <set comment="band 4">
        <r>  0.0000  0.0000  0.0000  0.0000  0.0000  1.0447  0.0000  0.0000  0.0000 </r>
       </set>
       <set comment="band 5">
        <r>  0.0000  0.0000  0.0000  0.0000  0.0000  0.0000  0.6468  0.0000  0.2156 </r>
       </set>
       <set comment="band 6">
        <r>  0.0013  0.0000  0.0000  0.0015  0.0000  0.0000  0.2294  0.0000  0.6882 </r>
       </set>
       <set comment="band 7">
        <r> 43.8092  0.0000  0.0000  0.0001  0.0000  0.0000  0.0000  0.0000  0.0000 </r>
       </set>
       <set comment="band 8">
        <r>  0.0000  0.0000  0.0000  0.0000  0.0000  0.0000  0.1071  0.0000  0.0357 </r>
       </set>
       <set comment="band 9">
        <r>  0.0000  0.0000  0.0000  0.0000  0.0085  0.0000  0.0000  0.0290  0.0000 </r>
       </set>
      </set>
      <set comment="kpoint 5">
       <set comment="band 1">
        <r>  0.1868  0.0528  0.0057  0.0528  0.0967  0.2751  0.0333  0.2751  0.0000 </r>
       </set>
       <set comment="band 2">
        <r>  0.0000  0.1126  0.0000  0.1126  0.0000  0.2850  0.0000  0.2850  0.1567 </r>
       </set>
       <set comment="band 3">
        <r>  0.0415  0.0286  0.2917  0.0286  0.5322  0.0015  0.0188  0.0015  0.0000 </r>
       </set>
       <set comment="band 4">
        <r>  0.0000  0.0047  0.0000  0.0047  0.0000  0.1024  0.0000  0.1024  0.7431 </r>
       </set>
       <set comment="band 5">
        <r>  0.0274  0.0001  0.0026  0.0001  0.0127  0.0190  0.8971  0.0190  0.0000 </r>
       </set>
       <set comment="band 6">
        <r>  0.5961  0.0542  0.0309  0.0542  0.0001  0.0738  0.0032  0.0738  0.0000 </r>
       </set>
       <set comment="band 7">
        <r>  0.0031  0.0579  0.1513  0.0579  0.3616  0.1332  0.0270  0.1332  0.0000 </r>
       </set>
       <set comment="band 8">
        <r>  0.0000  0.1713  0.0000  0.1713  0.0000  0.1651  0.0000  0.1651  0.1318 </r>
       </set>
       <set comment="band 9">
        <r> 43.8402  0.0002  0.0004  0.0002  0.0003  0.0005  0.0000  0.0005  0.0000 </r>
       </set>
      </set>
      <set comment="kpoint 6">
       <set comment="band 1">
        <r>  0.6351  0.0236  0.0000  0.1325  0.0580  0.0000  0.0207  0.0000  0.0103 </r>
       </set>
       <set comment="band 2">
        <r>  0.0000  0.0000  0.0131  0.0000  0.0000  0.4028  0.0000  0.6007  0.0000 </r>
       </set>
       <set comment="band 3">
        <r>  0.0113  0.0689  0.0000  0.0395  0.5118  0.0000  0.2414  0.0000  0.0424 </r>
       </set>
       <set comment="band 4">
        <r>  0.0001  0.0115  0.0000  0.0114  0.3361  0.0000  0.4012  0.0000  0.1438 </r>
       </set>
       <set comment="band 5">
        <r>  0.0000  0.0000  0.0449  0.0000  0.0000  0.5863  0.0000  0.3378  0.0000 </r>
       </set>
       <set comment="band 6">
        <r>  0.0176  0.0001  0.0000  0.0043  0.0131  0.0000  0.1973  0.0000  0.7138 </r>
       </set>
       <set comment="band 7">
        <r> 41.9894  0.0001  0.0000  0.0069  0.0023  0.0000  0.0001  0.0000  0.0005 </r>
       </set>
       <set comment="band 8">
        <r>  1.8406  0.0008  0.0000  0.1862  0.0620  0.0000  0.0006  0.0000  0.0385 </r>
       </set>
       <set comment="band 9">
        <r>  0.1682  0.1273  0.0000  0.0256  0.0660  0.0000  0.2103  0.0000  0.0862 </r>
       </set>
      </set>
      <set comment="kpoint 7">
       <set comment="band 1">
        <r>  0.3149  0.0006  0.0000  0.0481  0.3719  0.0000  0.2108  0.0000  0.0024 </r>
       </set>
       <set comment="band 2">
        <r>  0.0000  0.0000  0.0122  0.0000  0.0000  0.4821  0.0000  0.5282  0.0000 </r>
       </set>
       <set comment="band 3">
        <r>  0.0443  0.2445  0.0000  0.2469  0.0377  0.0000  0.1116  0.0000  0.1795 </r>
       </set>
       <set comment="band 4">
        <r>  0.0327  0.0300  0.0000  0.0402  0.2982  0.0000  0.5276  0.0000  0.0000 </r>
       </set>
       <set comment="band 5">
        <r>  0.0394  0.0455  0.0000  0.0743  0.0106  0.0000  0.0320  0.0000  0.7706 </r>
       </set>
       <set comment="band 6">
        <r>  0.0000  0.0000  0.0371  0.0000  0.0000  0.5064  0.0000  0.4124  0.0000 </r>
       </set>
       <set comment="band 7">
        <r>  0.2603  0.0151  0.0000  0.0821  0.3742  0.0000  0.0050  0.0000  0.0040 </r>
       </set>
       <set comment="band 8">
        <r>  0.0612  0.2044  0.0000  0.0384  0.0332  0.0000  0.1010  0.0000  0.0273 </r>
       </set>
       <set comment="band 9">
        <r> 44.0349  0.0008  0.0000  0.0000  0.0019  0.0000  0.0008  0.0000  0.0001 </r>
       </set>
      </set>
      <set comment="kpoint 8">
       <set comment="band 1">
        <r>  0.3909  0.0115  0.0115  0.1698  0.1053  0.0089  0.0294  0.1053  0.0883 </r>
       </set>
       <set comment="band 2">
        <r>  0.0000  0.0520  0.0520  0.0000  0.1603  0.0000  0.3580  0.1603  0.1193 </r>
       </set>
       <set comment="band 3">
        <r>  0.0071  0.0235  0.0235  0.1152  0.1649  0.4409  0.0069  0.1649  0.0206 </r>
       </set>
       <set comment="band 4">
        <r>  0.0000  0.0226  0.0226  0.0000  0.2606  0.0000  0.2631  0.2606  0.0877 </r>
       </set>
       <set comment="band 5">
        <r>  0.0845  0.0018  0.0018  0.0038  0.0363  0.1582  0.1590  0.0363  0.4769 </r>
       </set>
       <set comment="band 6">
        <r>  0.0325  0.0437  0.0437  0.0772  0.1087  0.3587  0.0449  0.1087  0.1347 </r>
       </set>
       <set comment="band 7">
        <r>  0.1831  0.0293  0.0293  0.1531  0.1102  0.0000  0.0048  0.1102  0.0143 </r>
       </set>
       <set comment="band 8">
        <r> 43.9510  0.0000  0.0000  0.0004  0.0005  0.0000  0.0000  0.0005  0.0000 </r>
       </set>
       <set comment="band 9">
        <r>  0.0000  0.1914  0.1919  0.0000  0.0976  0.0000  0.2343  0.0977  0.0781 </r>
       </set>
      </set>
      <set comment="kpoint 9">
       <set comment="band 1">
        <r>  0.1780  0.0231  0.0301  0.0231  0.3628  0.0268  0.2739  0.0268  0.0000 </r>
       </set>
       <set comment="band 2">
        <r>  0.0226  0.0134  0.0550  0.0134  0.0081  0.3533  0.1497  0.3533  0.0000 </r>
       </set>
       <set comment="band 3">
        <r>  0.0000  0.1813  0.0000  0.1813  0.0000  0.0405  0.0000  0.0405  0.4383 </r>
       </set>
       <set comment="band 4">
        <r>  0.0650  0.0074  0.0165  0.0074  0.2567  0.0749  0.4149  0.0749  0.0000 </r>
       </set>
       <set comment="band 5">
        <r>  0.0000  0.0831  0.0000  0.0831  0.0000  0.2004  0.0000  0.2004  0.3957 </r>
       </set>
       <set comment="band 6">
        <r>  0.0000  0.1615  0.0000  0.1615  0.0000  0.2582  0.0000  0.2582  0.1451 </r>
       </set>
       <set comment="band 7">
        <r>  0.4749  0.0056  0.0502  0.0056  0.3075  0.0148  0.0006  0.0148  0.0000 </r>
       </set>
       <set comment="band 8">
        <r>  0.0026  0.0729  0.3501  0.0729  0.1240  0.0517  0.1874  0.0517  0.0000 </r>
       </set>
       <set comment="band 9">
        <r> 43.9953  0.0001  0.0000  0.0001  0.0005  0.0000  0.0001  0.0000  0.0000 </r>
       </set>
      </set>
      <set comment="kpoint 10">
       <set comment="band 1">
        <r>  0.0000  0.1349  0.0033  0.1494  0.0077  0.3474  0.0000  0.3138  0.0000 </r>
       </set>
       <set comment="band 2">
        <r>  0.0000  0.0568  0.1884  0.0424  0.4383  0.0985  0.0000  0.1322  0.0000 </r>
       </set>
       <set comment="band 3">
        <r>  0.0000  0.0959  0.0959  0.0959  0.2230  0.2230  0.0000  0.2230  0.0000 </r>
       </set>
       <set comment="band 4">
        <r>  0.0000  0.0000  0.0000  0.0000  0.0000  0.0000  0.4235  0.0000  0.5454 </r>
       </set>
       <set comment="band 5">
        <r>  0.0000  0.0000  0.0000  0.0000  0.0000  0.0000  0.5454  0.0000  0.4235 </r>
       </set>
       <set comment="band 6">
        <r>  0.9311  0.0000  0.0000  0.0000  0.0000  0.0000  0.0000  0.0000  0.0000 </r>
       </set>
       <set comment="band 7">
        <r>  0.0000  0.1053  0.1053  0.1053  0.1606  0.1607  0.0000  0.1606  0.0000 </r>
       </set>
       <set comment="band 8">
        <r>  0.0000  0.1482  0.0037  0.1641  0.0056  0.2503  0.0000  0.2261  0.0000 </r>
       </set>
       <set comment="band 9">
        <r> 44.1362  0.0000  0.0000  0.0000  0.0000  0.0000  0.0000  0.0000  0.0000 </r>
       </set>
      </set>
      <set comment="kpoint 11">
       <set comment="band 1">
        <r>  0.4399  0.0000  0.0000  0.2802  0.0000  0.0000  0.0427  0.0000  0.1280 </r>
       </set>
       <set comment="band 2">
        <r>  0.0000  0.0000  0.0000  0.0000  0.0000  0.0000  0.6230  0.0000  0.2077 </r>
       </set>
       <set comment="band 3">
        <r>  0.0000  0.0570  0.0570  0.0000  0.4210  0.0000  0.0000  0.4209  0.0000 </r>
       </set>
       <set comment="band 4">
        <r>  0.0000  0.0570  0.0570  0.0000  0.4209  0.0000  0.0000  0.4210  0.0000 </r>
       </set>
       <set comment="band 5">
        <r>  0.0000  0.0000  0.0000  0.0000  0.0000  0.9519  0.0000  0.0000  0.0000 </r>
       </set>
       <set comment="band 6">
        <r>  0.1673  0.0000  0.0000  0.0266  0.0000  0.0000  0.1944  0.0000  0.5831 </r>
       </set>
       <set comment="band 7">
        <r> 11.8969  0.0000  0.0000  0.1632  0.0000  0.0000  0.0138  0.0000  0.0414 </r>
       </set>
       <set comment="band 8">
        <r> 32.0947  0.0000  0.0000  0.0677  0.0000  0.0000  0.0057  0.0000  0.0170 </r>
       </set>
       <set comment="band 9">
        <r>  0.0000  0.3012  0.1919  0.0000  0.3003  0.0000  0.0000  0.1913  0.0000 </r>
       </set>
      </set>
      <set comment="kpoint 12">
       <set comment="band 1">
        <r>  0.1100  0.0044  0.0000  0.1261  0.1013  0.0000  0.5192  0.0000  0.0429 </r>
       </set>
       <set comment="band 2">
        <r>  0.0187  0.0573  0.0000  0.0923  0.0033  0.0000  0.1391  0.0000  0.5643 </r>
       </set>
       <set comment="band 3">
        <r>  0.0000  0.0000  0.1026  0.0000  0.0000  0.3266  0.0000  0.5270  0.0000 </r>
       </set>
       <set comment="band 4">
        <r>  0.1176  0.0821  0.0000  0.0014  0.5018  0.0000  0.1782  0.0000  0.0251 </r>
       </set>
       <set comment="band 5">
        <r>  0.0000  0.0000  0.0326  0.0000  0.0000  0.6233  0.0000  0.2873  0.0000 </r>
       </set>
       <set comment="band 6">
        <r>  0.1860  0.1189  0.0000  0.2525  0.1005  0.0000  0.0275  0.0000  0.2617 </r>
       </set>
       <set comment="band 7">
        <r>  0.1687  0.2479  0.0000  0.0648  0.3421  0.0000  0.0005  0.0000  0.0609 </r>
       </set>
       <set comment="band 8">
        <r> 43.9159  0.0011  0.0000  0.0000  0.0014  0.0000  0.0001  0.0000  0.0001 </r>
       </set>
       <set comment="band 9">
        <r>  0.0000  0.0000  0.6684  0.0000  0.0000  0.0030  0.0000  0.2691  0.0000 </r>
       </set>
      </set>
      <set comment="kpoint 13">
       <set comment="band 1">
        <r>  0.0000  0.0151  0.0604  0.0151  0.0120  0.0030  0.7792  0.0030  0.0000 </r>
       </set>
       <set comment="band 2">
        <r>  0.0000  0.0453  0.0000  0.0453  0.0000  0.0090  0.0000  0.0090  0.7792 </r>
       </set>
       <set comment="band 3">
        <r>  0.1418  0.0338  0.0338  0.0338  0.2290  0.2290  0.0000  0.2290  0.0000 </r>
       </set>
       <set comment="band 4">
        <r>  0.0000  0.1041  0.0000  0.1041  0.0000  0.3257  0.0000  0.3257  0.0649 </r>
       </set>
       <set comment="band 5">
        <r>  0.0000  0.0347  0.1388  0.0347  0.4343  0.1086  0.0649  0.1086  0.0000 </r>
       </set>
       <set comment="band 6">
        <r>  0.4017  0.0500  0.0500  0.0500  0.1010  0.1009  0.0000  0.1009  0.0000 </r>
       </set>
       <set comment="band 7">
        <r>  0.0000  0.0962  0.3849  0.0962  0.2198  0.0550  0.0739  0.0550  0.0000 </r>
       </set>
       <set comment="band 8">
        <r>  0.0000  0.2886  0.0000  0.2886  0.0000  0.1649  0.0000  0.1649  0.0739 </r>
       </set>
       <set comment="band 9">
        <r> 43.8035  0.0003  0.0003  0.0003  0.0001  0.0001  0.0000  0.0001  0.0000 </r>
       </set>
      </set>
      <set comment="kpoint 14">
       <set comment="band 1">
        <r>  0.0000  0.0000  0.0000  0.0000  0.0000  0.0000  0.6758  0.0000  0.2253 </r>
       </set>
       <set comment="band 2">
        <r>  0.0057  0.0000  0.0000  0.0593  0.0000  0.0000  0.2099  0.0000  0.6297 </r>
       </set>
       <set comment="band 3">
        <r>  0.0000  0.1125  0.1125  0.0000  0.3476  0.0000  0.0000  0.3476  0.0000 </r>
       </set>
       <set comment="band 4">
        <r>  0.0000  0.1125  0.1125  0.0000  0.3476  0.0000  0.0000  0.3476  0.0000 </r>
       </set>
       <set comment="band 5">
        <r>  0.0000  0.0000  0.0000  0.0000  0.0000  0.9436  0.0000  0.0000  0.0000 </r>
       </set>
       <set comment="band 6">
        <r>  0.2486  0.0000  0.0000  0.5628  0.0000  0.0000  0.0159  0.0000  0.0476 </r>
       </set>
       <set comment="band 7">
        <r>  0.0000  0.3097  0.3097  0.0000  0.1561  0.0000  0.0000  0.1561  0.0000 </r>
       </set>
       <set comment="band 8">
        <r>  0.0000  0.3097  0.3097  0.0000  0.1561  0.0000  0.0000  0.1561  0.0000 </r>
       </set>
       <set comment="band 9">
        <r> 42.8237  0.0000  0.0000  0.0027  0.0000  0.0000  0.0001  0.0000  0.0002 </r>
       </set>
      </set>
     </set>
    </set>
   </array>
  </projected>
 </calculation>
 <structure name="finalpos" >
  <crystal>
   <varray name="basis" >
    <v>      -1.66500000       1.66500000       1.66500000 </v>
    <v>       1.66500000      -1.66500000       1.66500000 </v>
    <v>       1.66500000       1.66500000      -1.66500000 </v>
   </varray>
   <i name="volume">     18.46301850 </i>
   <varray name="rec_basis" >
    <v>       0.00000000       0.30030030       0.30030030 </v>
    <v>       0.30030030       0.00000000       0.30030030 </v>
    <v>       0.30030030       0.30030030       0.00000000 </v>
   </varray>
  </crystal>
  <varray name="positions" >
   <v>       0.00000000       0.00000000       0.00000000 </v>
  </varray>
 </structure>
</modeling>
