   1   1   1   0
  0.1813235E+02  0.2866544E-09  0.2866544E-09  0.2866544E-09  0.5000000E-15
  1.000000000000000E-004
  CAR 
 unknown system                          
     16.45994167     -2.84412926  301      5.67381164      1.00000000
     -2.844  0.0000E+00  0.0000E+00  0.0000E+00  0.0000E+00
     -2.780  0.0000E+00  0.0000E+00  0.0000E+00  0.0000E+00
     -2.715  0.0000E+00  0.0000E+00  0.0000E+00  0.0000E+00
     -2.651  0.0000E+00  0.0000E+00  0.0000E+00  0.0000E+00
     -2.587  0.0000E+00  0.0000E+00  0.0000E+00  0.0000E+00
     -2.522  0.0000E+00  0.0000E+00  0.0000E+00  0.0000E+00
     -2.458  0.0000E+00  0.0000E+00  0.0000E+00  0.0000E+00
     -2.394 -0.3071E-33 -0.4714E-32 -0.1976E-34 -0.3033E-33
     -2.329 -0.2652E-24 -0.2691E-23 -0.1706E-25 -0.1732E-24
     -2.265 -0.8091E-17 -0.5422E-16 -0.5206E-18 -0.3489E-17
     -2.201 -0.8236E-11 -0.3624E-10 -0.5300E-12 -0.2332E-11
     -2.136 -0.2855E-06 -0.8192E-06 -0.1837E-07 -0.5271E-07
     -2.072 -0.2883E-03 -0.5208E-03 -0.1857E-04 -0.3357E-04
     -2.008 -0.1832E-02  0.1012E-02 -0.1365E-03  0.3156E-04
     -1.943  0.7185E-01  0.7895E-01  0.4487E-02  0.5112E-02
     -1.879  0.2569E-01  0.1531E-01  0.6140E-02  0.6097E-02
     -1.815 -0.2154E-02 -0.1506E-02  0.6001E-02  0.6000E-02
     -1.750 -0.1656E-04 -0.6894E-05  0.6000E-02  0.6000E-02
     -1.686 -0.2489E-04 -0.5607E-04  0.5998E-02  0.5996E-02
     -1.622 -0.2999E-02 -0.3830E-02  0.5805E-02  0.5750E-02
     -1.557  0.3643E-01  0.5283E-01  0.8150E-02  0.9149E-02
     -1.493  0.9406E-01  0.7970E-01  0.1420E-01  0.1428E-01
     -1.428 -0.2786E-02 -0.4140E-02  0.1402E-01  0.1401E-01
     -1.364 -0.3517E-03 -0.1816E-03  0.1400E-01  0.1400E-01
     -1.300 -0.1511E-04 -0.3686E-04  0.1400E-01  0.1400E-01
     -1.235 -0.4522E-02 -0.6826E-02  0.1371E-01  0.1356E-01
     -1.171  0.3866E-01  0.7369E-01  0.1620E-01  0.1830E-01
     -1.107  0.3254E+00  0.3084E+00  0.3713E-01  0.3814E-01
     -1.042  0.1644E-01 -0.4812E-03  0.3819E-01  0.3811E-01
     -0.978 -0.2987E-02 -0.1733E-02  0.3800E-01  0.3800E-01
     -0.914 -0.6451E-05 -0.2345E-05  0.3800E-01  0.3800E-01
     -0.849 -0.3808E-09 -0.9035E-10  0.3800E-01  0.3800E-01
     -0.785 -0.7454E-15 -0.8282E-16  0.3800E-01  0.3800E-01
     -0.721 -0.1344E-15 -0.8315E-15  0.3800E-01  0.3800E-01
     -0.656 -0.9996E-10 -0.4177E-09  0.3800E-01  0.3800E-01
     -0.592 -0.2519E-05 -0.6881E-05  0.3800E-01  0.3800E-01
     -0.528 -0.1805E-02 -0.3094E-02  0.3788E-01  0.3780E-01
     -0.463 -0.4319E-03  0.1655E-01  0.3786E-01  0.3887E-01
     -0.399  0.3155E+00  0.3385E+00  0.5816E-01  0.6065E-01
     -0.335  0.1527E+00  0.1170E+00  0.6798E-01  0.6818E-01
     -0.270  0.1307E-02 -0.2089E-02  0.6807E-01  0.6804E-01
     -0.206 -0.1105E-02 -0.7574E-03  0.6800E-01  0.6799E-01
     -0.142 -0.8079E-02 -0.1068E-01  0.6748E-01  0.6730E-01
     -0.077  0.9375E-01  0.1405E+00  0.7351E-01  0.7635E-01
     -0.013  0.2943E+00  0.2555E+00  0.9245E-01  0.9279E-01
      0.051 -0.5990E-02 -0.1223E-01  0.9206E-01  0.9200E-01
      0.116 -0.1410E-01 -0.1230E-01  0.9115E-01  0.9121E-01
      0.180  0.2069E+00  0.2546E+00  0.1045E+00  0.1076E+00
      0.245  0.1921E+00  0.1415E+00  0.1168E+00  0.1167E+00
      0.309 -0.1258E-01 -0.1072E-01  0.1160E+00  0.1160E+00
      0.373 -0.2771E-03 -0.1289E-03  0.1160E+00  0.1160E+00
      0.438 -0.1076E-06 -0.3239E-07  0.1160E+00  0.1160E+00
      0.502 -0.1282E-11 -0.2545E-12  0.1160E+00  0.1160E+00
      0.566 -0.6012E-14 -0.3376E-13  0.1160E+00  0.1160E+00
      0.631 -0.1913E-08 -0.7104E-08  0.1160E+00  0.1160E+00
      0.695 -0.1968E-04 -0.4771E-04  0.1160E+00  0.1160E+00
      0.759 -0.5349E-02 -0.7977E-02  0.1157E+00  0.1155E+00
      0.824  0.2974E-01  0.6275E-01  0.1176E+00  0.1195E+00
      0.888  0.5534E+00  0.6274E+00  0.1532E+00  0.1599E+00
      0.952  0.5624E+00  0.4635E+00  0.1894E+00  0.1897E+00
      1.017 -0.1919E-01 -0.2561E-01  0.1881E+00  0.1881E+00
      1.081 -0.2230E-02 -0.1454E-02  0.1880E+00  0.1880E+00
      1.145 -0.1822E-01 -0.2353E-01  0.1868E+00  0.1865E+00
      1.210  0.2007E+00  0.3075E+00  0.1997E+00  0.2063E+00
      1.274  0.8963E+00  0.8358E+00  0.2574E+00  0.2600E+00
      1.338  0.4833E-01  0.3565E-02  0.2605E+00  0.2603E+00
      1.403 -0.2085E-01 -0.1319E-01  0.2592E+00  0.2594E+00
      1.467  0.2341E+00  0.2731E+00  0.2742E+00  0.2770E+00
      1.531  0.3253E+00  0.3290E+00  0.2952E+00  0.2982E+00
      1.596  0.3189E+00  0.2940E+00  0.3157E+00  0.3171E+00
      1.660  0.7357E-01  0.5066E-01  0.3204E+00  0.3203E+00
      1.725 -0.6425E-02 -0.5147E-02  0.3200E+00  0.3200E+00
      1.789 -0.2970E-02 -0.4994E-02  0.3198E+00  0.3197E+00
      1.853 -0.1728E-01  0.4883E-02  0.3187E+00  0.3200E+00
      1.918  0.6569E+00  0.7593E+00  0.3610E+00  0.3689E+00
      1.982  0.9093E+00  0.8755E+00  0.4195E+00  0.4252E+00
      2.046  0.8213E+00  0.8198E+00  0.4723E+00  0.4779E+00
      2.111  0.4761E+00  0.4102E+00  0.5030E+00  0.5043E+00
      2.175  0.2969E+00  0.3143E+00  0.5221E+00  0.5246E+00
      2.239  0.1768E+00  0.1610E+00  0.5335E+00  0.5349E+00
      2.304  0.5409E+00  0.6035E+00  0.5683E+00  0.5738E+00
      2.368  0.6261E+00  0.6096E+00  0.6085E+00  0.6130E+00
      2.432  0.2869E+00  0.2125E+00  0.6270E+00  0.6267E+00
      2.497  0.3860E-01  0.7474E-01  0.6295E+00  0.6315E+00
      2.561  0.3157E+00  0.2938E+00  0.6498E+00  0.6504E+00
      2.625 -0.7705E-02 -0.1477E-01  0.6493E+00  0.6494E+00
      2.690  0.2177E+00  0.2461E+00  0.6633E+00  0.6653E+00
      2.754  0.3519E+00  0.4360E+00  0.6860E+00  0.6933E+00
      2.818  0.1509E+01  0.1570E+01  0.7831E+00  0.7943E+00
      2.883  0.9882E+00  0.8636E+00  0.8467E+00  0.8499E+00
      2.947  0.6358E+00  0.6433E+00  0.8876E+00  0.8913E+00
      3.011  0.2056E+00  0.1504E+00  0.9008E+00  0.9009E+00
      3.076 -0.1694E-02  0.2054E-01  0.9007E+00  0.9023E+00
      3.140  0.8430E+00  0.9585E+00  0.9549E+00  0.9639E+00
      3.204  0.8344E+00  0.7414E+00  0.1009E+01  0.1012E+01
      3.269  0.3769E+00  0.3449E+00  0.1033E+01  0.1034E+01
      3.333  0.2131E-01  0.4919E-02  0.1034E+01  0.1034E+01
      3.398 -0.5068E-02 -0.4355E-02  0.1034E+01  0.1034E+01
      3.462  0.7260E-02  0.1660E-01  0.1034E+01  0.1035E+01
      3.526  0.1085E+00  0.1064E+00  0.1041E+01  0.1042E+01
      3.591 -0.2764E-02 -0.8789E-02  0.1041E+01  0.1041E+01
      3.655  0.2016E+00  0.2435E+00  0.1054E+01  0.1057E+01
      3.719  0.4550E+00  0.4886E+00  0.1083E+01  0.1088E+01
      3.784  0.7220E+00  0.6906E+00  0.1130E+01  0.1133E+01
      3.848  0.2566E+00  0.2477E+00  0.1146E+01  0.1149E+01
      3.912  0.2536E+00  0.2196E+00  0.1163E+01  0.1163E+01
      3.977 -0.1286E-01 -0.1600E-01  0.1162E+01  0.1162E+01
      4.041  0.1370E-01  0.2789E-01  0.1163E+01  0.1164E+01
      4.105  0.1402E+00  0.1521E+00  0.1172E+01  0.1173E+01
      4.170  0.8439E+00  0.1018E+01  0.1226E+01  0.1239E+01
      4.234  0.1247E+01  0.1062E+01  0.1306E+01  0.1307E+01
      4.298  0.3149E+00  0.4204E+00  0.1327E+01  0.1334E+01
      4.363  0.1382E+01  0.1497E+01  0.1416E+01  0.1431E+01
      4.427  0.2126E+01  0.2000E+01  0.1552E+01  0.1559E+01
      4.491  0.4349E+00  0.3815E+00  0.1580E+01  0.1584E+01
      4.556  0.6175E+00  0.6512E+00  0.1620E+01  0.1626E+01
      4.620  0.9549E+00  0.9699E+00  0.1681E+01  0.1688E+01
      4.684  0.6212E+00  0.5499E+00  0.1721E+01  0.1724E+01
      4.749  0.2247E+00  0.2559E+00  0.1736E+01  0.1740E+01
      4.813  0.7107E+00  0.7155E+00  0.1782E+01  0.1786E+01
      4.877  0.6834E+00  0.7253E+00  0.1826E+01  0.1833E+01
      4.942  0.1278E+01  0.1342E+01  0.1908E+01  0.1919E+01
      5.006  0.1469E+01  0.1400E+01  0.2002E+01  0.2009E+01
      5.071  0.3306E+00  0.2210E+00  0.2024E+01  0.2023E+01
      5.135 -0.5042E-01 -0.5249E-01  0.2020E+01  0.2020E+01
      5.199  0.2403E+00  0.3613E+00  0.2036E+01  0.2043E+01
      5.264  0.1518E+01  0.1591E+01  0.2134E+01  0.2146E+01
      5.328  0.1338E+01  0.1282E+01  0.2220E+01  0.2228E+01
      5.392  0.1054E+01  0.9914E+00  0.2288E+01  0.2292E+01
      5.457  0.3324E+00  0.2870E+00  0.2309E+01  0.2310E+01
      5.521  0.4971E+00  0.5351E+00  0.2341E+01  0.2345E+01
      5.585  0.6278E+00  0.7431E+00  0.2381E+01  0.2393E+01
      5.650  0.1601E+01  0.1500E+01  0.2484E+01  0.2489E+01
      5.714  0.7005E+00  0.7449E+00  0.2529E+01  0.2537E+01
      5.778  0.8545E+00  0.7647E+00  0.2584E+01  0.2586E+01
      5.843  0.2643E-01 -0.1137E-01  0.2586E+01  0.2586E+01
      5.907  0.1386E-01  0.7261E-01  0.2587E+01  0.2590E+01
      5.971  0.9443E+00  0.9925E+00  0.2648E+01  0.2654E+01
      6.036  0.4731E+00  0.3953E+00  0.2678E+01  0.2680E+01
      6.100  0.5558E+00  0.6562E+00  0.2714E+01  0.2722E+01
      6.164  0.9022E+00  0.8478E+00  0.2772E+01  0.2776E+01
      6.229  0.3540E+00  0.2904E+00  0.2795E+01  0.2795E+01
      6.293 -0.1520E-01 -0.2186E-01  0.2794E+01  0.2794E+01
      6.357  0.6092E-01  0.8928E-01  0.2798E+01  0.2799E+01
      6.422  0.2656E+00  0.2597E+00  0.2815E+01  0.2816E+01
      6.486  0.4874E-01  0.2527E-01  0.2818E+01  0.2818E+01
      6.551  0.7588E-01  0.1171E+00  0.2823E+01  0.2825E+01
      6.615  0.3657E+00  0.3429E+00  0.2846E+01  0.2847E+01
      6.679  0.9952E-01  0.1202E+00  0.2853E+01  0.2855E+01
      6.744  0.2997E+00  0.2689E+00  0.2872E+01  0.2872E+01
      6.808 -0.5018E-02  0.1380E-01  0.2872E+01  0.2873E+01
      6.872  0.5854E+00  0.6251E+00  0.2909E+01  0.2913E+01
      6.937  0.2014E+00  0.1535E+00  0.2922E+01  0.2923E+01
      7.001  0.3721E+00  0.4203E+00  0.2946E+01  0.2950E+01
      7.065  0.3505E+00  0.2895E+00  0.2969E+01  0.2969E+01
      7.130 -0.1580E-01 -0.1827E-01  0.2968E+01  0.2968E+01
      7.194  0.1153E+00  0.1479E+00  0.2975E+01  0.2977E+01
      7.258  0.4119E+00  0.4064E+00  0.3002E+01  0.3003E+01
      7.323  0.8282E-01  0.7688E-01  0.3007E+01  0.3008E+01
      7.387  0.3905E+00  0.3988E+00  0.3032E+01  0.3034E+01
      7.451  0.5626E-01  0.3900E-01  0.3036E+01  0.3037E+01
      7.516  0.4773E+00  0.5334E+00  0.3066E+01  0.3071E+01
      7.580  0.3263E+00  0.2840E+00  0.3087E+01  0.3089E+01
      7.644  0.3064E+00  0.2939E+00  0.3107E+01  0.3108E+01
      7.709  0.1538E-01  0.2497E-03  0.3108E+01  0.3108E+01
      7.773 -0.2946E-02 -0.1810E-02  0.3108E+01  0.3108E+01
      7.837 -0.7187E-05 -0.4729E-05  0.3108E+01  0.3108E+01
      7.902 -0.1099E-02 -0.1847E-02  0.3108E+01  0.3108E+01
      7.966 -0.2102E-01 -0.1670E-01  0.3107E+01  0.3107E+01
      8.030  0.4077E+00  0.4910E+00  0.3133E+01  0.3138E+01
      8.095  0.6613E+00  0.6067E+00  0.3175E+01  0.3177E+01
      8.159  0.7639E+00  0.8491E+00  0.3225E+01  0.3232E+01
      8.224  0.4615E+00  0.3374E+00  0.3254E+01  0.3254E+01
      8.288 -0.4752E-01 -0.4545E-01  0.3251E+01  0.3251E+01
      8.352  0.1438E+00  0.2123E+00  0.3260E+01  0.3265E+01
      8.417  0.6055E+00  0.5567E+00  0.3299E+01  0.3300E+01
      8.481  0.1982E+00  0.2240E+00  0.3312E+01  0.3315E+01
      8.545  0.3073E+00  0.3048E+00  0.3332E+01  0.3334E+01
      8.610  0.3960E+00  0.4196E+00  0.3357E+01  0.3361E+01
      8.674  0.8649E+00  0.8806E+00  0.3413E+01  0.3418E+01
      8.738  0.5689E+00  0.5251E+00  0.3450E+01  0.3452E+01
      8.803  0.1109E+00  0.9598E-01  0.3457E+01  0.3458E+01
      8.867  0.5332E+00  0.5998E+00  0.3491E+01  0.3497E+01
      8.931  0.9018E+00  0.8860E+00  0.3549E+01  0.3554E+01
      8.996  0.4850E+00  0.4475E+00  0.3580E+01  0.3582E+01
      9.060  0.2494E+00  0.2799E+00  0.3596E+01  0.3600E+01
      9.124  0.8722E+00  0.9211E+00  0.3652E+01  0.3660E+01
      9.189  0.1187E+01  0.1162E+01  0.3729E+01  0.3734E+01
      9.253  0.4628E+00  0.3722E+00  0.3759E+01  0.3758E+01
      9.317  0.1208E+00  0.1972E+00  0.3766E+01  0.3771E+01
      9.382  0.1025E+01  0.1018E+01  0.3832E+01  0.3837E+01
      9.446  0.5031E+00  0.4777E+00  0.3865E+01  0.3867E+01
      9.510  0.6096E+00  0.6372E+00  0.3904E+01  0.3908E+01
      9.575  0.3282E+00  0.2535E+00  0.3925E+01  0.3925E+01
      9.639  0.4462E-01  0.8449E-01  0.3928E+01  0.3930E+01
      9.704  0.5725E+00  0.5936E+00  0.3965E+01  0.3968E+01
      9.768  0.7894E+00  0.8079E+00  0.4016E+01  0.4020E+01
      9.832  0.6154E+00  0.5739E+00  0.4055E+01  0.4057E+01
      9.897  0.1072E+00  0.6897E-01  0.4062E+01  0.4062E+01
      9.961  0.7386E-01  0.1276E+00  0.4067E+01  0.4070E+01
     10.025  0.7617E+00  0.7932E+00  0.4116E+01  0.4121E+01
     10.090  0.1112E+01  0.1111E+01  0.4187E+01  0.4192E+01
     10.154  0.4464E+00  0.3858E+00  0.4216E+01  0.4217E+01
     10.218  0.4704E+00  0.4949E+00  0.4246E+01  0.4249E+01
     10.283  0.4533E+00  0.4835E+00  0.4276E+01  0.4280E+01
     10.347  0.6702E+00  0.6213E+00  0.4319E+01  0.4320E+01
     10.411  0.9913E+00  0.1146E+01  0.4382E+01  0.4394E+01
     10.476  0.1596E+01  0.1466E+01  0.4485E+01  0.4488E+01
     10.540  0.1200E+01  0.1343E+01  0.4562E+01  0.4575E+01
     10.604  0.1686E+01  0.1602E+01  0.4671E+01  0.4678E+01
     10.669  0.1730E+01  0.1811E+01  0.4782E+01  0.4794E+01
     10.733  0.2219E+01  0.2193E+01  0.4925E+01  0.4935E+01
     10.797  0.1276E+01  0.1218E+01  0.5007E+01  0.5014E+01
     10.862  0.1108E+01  0.1089E+01  0.5078E+01  0.5084E+01
     10.926  0.5740E+00  0.5314E+00  0.5115E+01  0.5118E+01
     10.990  0.4064E+00  0.3765E+00  0.5141E+01  0.5142E+01
     11.055 -0.5827E-04 -0.8828E-02  0.5141E+01  0.5142E+01
     11.119  0.2561E+00  0.2891E+00  0.5158E+01  0.5160E+01
     11.183  0.1257E+00  0.9218E-01  0.5166E+01  0.5166E+01
     11.248  0.2639E+00  0.2901E+00  0.5183E+01  0.5185E+01
     11.312  0.1300E+00  0.1107E+00  0.5191E+01  0.5192E+01
     11.377  0.1456E+00  0.1443E+00  0.5201E+01  0.5201E+01
     11.441  0.1486E+00  0.1671E+00  0.5210E+01  0.5212E+01
     11.505  0.1284E+00  0.1003E+00  0.5219E+01  0.5218E+01
     11.570 -0.1302E-01 -0.1395E-01  0.5218E+01  0.5218E+01
     11.634  0.3899E-01  0.6721E-01  0.5220E+01  0.5222E+01
     11.698  0.3123E+00  0.3006E+00  0.5240E+01  0.5241E+01
     11.763  0.2364E+00  0.2595E+00  0.5256E+01  0.5258E+01
     11.827  0.1750E+00  0.1357E+00  0.5267E+01  0.5267E+01
     11.891 -0.1522E-01 -0.1491E-01  0.5266E+01  0.5266E+01
     11.956  0.1656E-01  0.3638E-01  0.5267E+01  0.5268E+01
     12.020  0.3255E+00  0.3259E+00  0.5288E+01  0.5289E+01
     12.084  0.3818E-01  0.1802E-01  0.5290E+01  0.5290E+01
     12.149 -0.6203E-02 -0.5750E-02  0.5290E+01  0.5290E+01
     12.213 -0.5612E-02  0.6071E-02  0.5290E+01  0.5290E+01
     12.277  0.3643E+00  0.3900E+00  0.5313E+01  0.5315E+01
     12.342  0.1195E+00  0.8059E-01  0.5321E+01  0.5321E+01
     12.406 -0.1032E-01 -0.8007E-02  0.5320E+01  0.5320E+01
     12.470 -0.1090E-01 -0.1238E-01  0.5319E+01  0.5319E+01
     12.535  0.1430E+00  0.1816E+00  0.5328E+01  0.5331E+01
     12.599  0.2149E+00  0.1715E+00  0.5342E+01  0.5342E+01
     12.663  0.4562E+00  0.6182E+00  0.5372E+01  0.5382E+01
     12.728  0.1417E+01  0.1317E+01  0.5463E+01  0.5466E+01
     12.792  0.4578E+00  0.4577E+00  0.5492E+01  0.5496E+01
     12.857  0.6121E+00  0.6160E+00  0.5532E+01  0.5536E+01
     12.921  0.8487E+00  0.8984E+00  0.5586E+01  0.5593E+01
     12.985  0.5091E+00  0.3927E+00  0.5619E+01  0.5619E+01
     13.050  0.1808E+00  0.2599E+00  0.5631E+01  0.5635E+01
     13.114  0.5563E+00  0.4958E+00  0.5667E+01  0.5667E+01
     13.178 -0.5282E-02 -0.1800E-01  0.5666E+01  0.5666E+01
     13.243 -0.2853E-02 -0.1651E-02  0.5666E+01  0.5666E+01
     13.307 -0.4302E-05 -0.1611E-05  0.5666E+01  0.5666E+01
     13.371 -0.1048E-06 -0.3200E-06  0.5666E+01  0.5666E+01
     13.436 -0.1596E-03 -0.3078E-03  0.5666E+01  0.5666E+01
     13.500 -0.2984E-02 -0.1637E-02  0.5666E+01  0.5666E+01
     13.564  0.5941E-01  0.6779E-01  0.5670E+01  0.5670E+01
     13.629  0.5439E-01  0.7011E-01  0.5673E+01  0.5675E+01
     13.693  0.3226E+00  0.3203E+00  0.5694E+01  0.5695E+01
     13.757  0.3235E-01  0.1045E-01  0.5696E+01  0.5696E+01
     13.822  0.1342E+00  0.1482E+00  0.5705E+01  0.5706E+01
     13.886  0.4436E-01  0.2899E-01  0.5707E+01  0.5707E+01
     13.950  0.2107E+00  0.2471E+00  0.5721E+01  0.5723E+01
     14.015  0.1834E+00  0.1458E+00  0.5733E+01  0.5733E+01
     14.079 -0.1237E-01 -0.1093E-01  0.5732E+01  0.5732E+01
     14.143 -0.2443E-03 -0.1381E-03  0.5732E+01  0.5732E+01
     14.208 -0.4523E-05 -0.1173E-04  0.5732E+01  0.5732E+01
     14.272 -0.2646E-02 -0.4446E-02  0.5732E+01  0.5732E+01
     14.336  0.9796E-03  0.2500E-01  0.5732E+01  0.5733E+01
     14.401  0.4482E+00  0.4755E+00  0.5761E+01  0.5764E+01
     14.465  0.9551E-01  0.4079E-01  0.5767E+01  0.5767E+01
     14.530  0.3865E+00  0.4848E+00  0.5792E+01  0.5798E+01
     14.594  0.7330E+00  0.6573E+00  0.5839E+01  0.5840E+01
     14.658  0.4880E-01  0.4347E-01  0.5842E+01  0.5843E+01
     14.723  0.9423E-01  0.8414E-01  0.5848E+01  0.5848E+01
     14.787 -0.1359E-02 -0.3620E-02  0.5848E+01  0.5848E+01
     14.851 -0.2584E-02 -0.3618E-02  0.5848E+01  0.5848E+01
     14.916 -0.1571E-01 -0.1620E-02  0.5847E+01  0.5848E+01
     14.980  0.5298E+00  0.5779E+00  0.5881E+01  0.5885E+01
     15.044  0.4615E+00  0.4661E+00  0.5911E+01  0.5915E+01
     15.109  0.5385E+00  0.4785E+00  0.5945E+01  0.5946E+01
     15.173 -0.2100E-01 -0.2866E-01  0.5944E+01  0.5944E+01
     15.237  0.1265E-01  0.3492E-01  0.5945E+01  0.5946E+01
     15.302  0.3130E+00  0.3132E+00  0.5965E+01  0.5966E+01
     15.366  0.2060E+00  0.2245E+00  0.5978E+01  0.5981E+01
     15.430  0.2283E+00  0.1894E+00  0.5993E+01  0.5993E+01
     15.495 -0.1463E-01 -0.1540E-01  0.5992E+01  0.5992E+01
     15.559  0.1992E-01  0.3281E-01  0.5993E+01  0.5994E+01
     15.623  0.1053E+00  0.9670E-01  0.6000E+01  0.6000E+01
     15.688  0.1349E-02 -0.2239E-02  0.6000E+01  0.6000E+01
     15.752 -0.6944E-03 -0.4032E-03  0.6000E+01  0.6000E+01
     15.816 -0.1092E-05 -0.4136E-06  0.6000E+01  0.6000E+01
     15.881 -0.4832E-10 -0.1233E-10  0.6000E+01  0.6000E+01
     15.945 -0.8282E-16  0.0000E+00  0.6000E+01  0.6000E+01
     16.010  0.0000E+00  0.0000E+00  0.6000E+01  0.6000E+01
     16.074  0.0000E+00  0.0000E+00  0.6000E+01  0.6000E+01
     16.138  0.0000E+00  0.0000E+00  0.6000E+01  0.6000E+01
     16.203  0.0000E+00  0.0000E+00  0.6000E+01  0.6000E+01
     16.267  0.0000E+00  0.0000E+00  0.6000E+01  0.6000E+01
     16.331  0.0000E+00  0.0000E+00  0.6000E+01  0.6000E+01
     16.396  0.0000E+00  0.0000E+00  0.6000E+01  0.6000E+01
     16.460  0.0000E+00  0.0000E+00  0.6000E+01  0.6000E+01
     16.45994167     -2.84412926  301      5.67381164      1.00000000
     -2.844  0.0000E+00  0.0000E+00  0.0000E+00  0.0000E+00  0.0000E+00  0.0000E+00  0.0000E+00  0.0000E+00  0.0000E+00  0.0000E+00  0.0000E+00  0.0000E+00  0.0000E+00  0.0000E+00  0.0000E+00  0.0000E+00  0.0000E+00  0.0000E+00
     -2.780  0.0000E+00  0.0000E+00  0.0000E+00  0.0000E+00  0.0000E+00  0.0000E+00  0.0000E+00  0.0000E+00  0.0000E+00  0.0000E+00  0.0000E+00  0.0000E+00  0.0000E+00  0.0000E+00  0.0000E+00  0.0000E+00  0.0000E+00  0.0000E+00
     -2.715  0.0000E+00  0.0000E+00  0.0000E+00  0.0000E+00  0.0000E+00  0.0000E+00  0.0000E+00  0.0000E+00  0.0000E+00  0.0000E+00  0.0000E+00  0.0000E+00  0.0000E+00  0.0000E+00  0.0000E+00  0.0000E+00  0.0000E+00  0.0000E+00
     -2.651  0.0000E+00  0.0000E+00  0.0000E+00  0.0000E+00  0.0000E+00  0.0000E+00  0.0000E+00  0.0000E+00  0.0000E+00  0.0000E+00  0.0000E+00  0.0000E+00  0.0000E+00  0.0000E+00  0.0000E+00  0.0000E+00  0.0000E+00  0.0000E+00
     -2.587  0.0000E+00  0.0000E+00  0.0000E+00  0.0000E+00  0.0000E+00  0.0000E+00  0.0000E+00  0.0000E+00  0.0000E+00  0.0000E+00  0.0000E+00  0.0000E+00  0.0000E+00  0.0000E+00  0.0000E+00  0.0000E+00  0.0000E+00  0.0000E+00
     -2.522  0.0000E+00  0.0000E+00  0.0000E+00  0.0000E+00  0.0000E+00  0.0000E+00  0.0000E+00  0.0000E+00  0.0000E+00  0.0000E+00  0.0000E+00  0.0000E+00  0.0000E+00  0.0000E+00  0.0000E+00  0.0000E+00  0.0000E+00  0.0000E+00
     -2.458  0.0000E+00  0.0000E+00  0.0000E+00  0.0000E+00  0.0000E+00  0.0000E+00  0.0000E+00  0.0000E+00  0.0000E+00  0.0000E+00  0.0000E+00  0.0000E+00  0.0000E+00  0.0000E+00  0.0000E+00  0.0000E+00  0.0000E+00  0.0000E+00
     -2.394 -0.2584E-33 -0.3969E-32 -0.8606E-36 -0.1321E-34 -0.2582E-35 -0.3963E-34 -0.1721E-35 -0.2642E-34 -0.1188E-37 -0.1824E-36 -0.1782E-37 -0.2735E-36 -0.4456E-38 -0.6838E-37 -0.3565E-37 -0.5471E-36 -0.1485E-38 -0.2280E-37
     -2.329 -0.2232E-24 -0.2266E-23 -0.7432E-27 -0.7543E-26 -0.2230E-26 -0.2263E-25 -0.1486E-26 -0.1509E-25 -0.1026E-28 -0.1041E-27 -0.1539E-28 -0.1562E-27 -0.3848E-29 -0.3904E-28 -0.3079E-28 -0.3124E-27 -0.1283E-29 -0.1302E-28
     -2.265 -0.6809E-17 -0.4565E-16 -0.2268E-19 -0.1520E-18 -0.6803E-19 -0.4559E-18 -0.4535E-19 -0.3039E-18 -0.3131E-21 -0.2098E-20 -0.4696E-21 -0.3146E-20 -0.1174E-21 -0.7866E-21 -0.9393E-21 -0.6293E-20 -0.3914E-22 -0.2622E-21
     -2.201 -0.6932E-11 -0.3052E-10 -0.2308E-13 -0.1016E-12 -0.6925E-13 -0.3047E-12 -0.4617E-13 -0.2031E-12 -0.3187E-15 -0.1402E-14 -0.4781E-15 -0.2103E-14 -0.1195E-15 -0.5258E-15 -0.9562E-15 -0.4207E-14 -0.3984E-16 -0.1753E-15
     -2.136 -0.2403E-06 -0.6898E-06 -0.8002E-09 -0.2296E-08 -0.2401E-08 -0.6888E-08 -0.1600E-08 -0.4592E-08 -0.1105E-10 -0.3169E-10 -0.1657E-10 -0.4754E-10 -0.4143E-11 -0.1188E-10 -0.3315E-10 -0.9508E-10 -0.1381E-11 -0.3962E-11
     -2.072 -0.2427E-03 -0.4385E-03 -0.8081E-06 -0.1460E-05 -0.2424E-05 -0.4379E-05 -0.1616E-05 -0.2919E-05 -0.1116E-07 -0.2015E-07 -0.1674E-07 -0.3022E-07 -0.4184E-08 -0.7555E-08 -0.3347E-07 -0.6045E-07 -0.1395E-08 -0.2519E-08
     -2.008 -0.1542E-02  0.8522E-03 -0.5134E-05  0.2836E-05 -0.1540E-04  0.8509E-05 -0.1027E-04  0.5673E-05 -0.7090E-07  0.3915E-07 -0.1063E-06  0.5873E-07 -0.2658E-07  0.1468E-07 -0.2127E-06  0.1175E-06 -0.8862E-08  0.4894E-08
     -1.943  0.6047E-01  0.6648E-01  0.2014E-03  0.2213E-03  0.6041E-03  0.6638E-03  0.4027E-03  0.4426E-03  0.2780E-05  0.3055E-05  0.4170E-05  0.4582E-05  0.1043E-05  0.1145E-05  0.8341E-05  0.9164E-05  0.3475E-06  0.3818E-06
     -1.879  0.2162E-01  0.1289E-01  0.7199E-04  0.4291E-04  0.2160E-03  0.1287E-03  0.1440E-03  0.8583E-04  0.9940E-06  0.5924E-06  0.1491E-05  0.8886E-06  0.3727E-06  0.2221E-06  0.2982E-05  0.1777E-05  0.1242E-06  0.7405E-07
     -1.815 -0.1813E-02 -0.1268E-02 -0.6036E-05 -0.4220E-05 -0.1811E-04 -0.1266E-04 -0.1207E-04 -0.8441E-05 -0.8335E-07 -0.5826E-07 -0.1250E-06 -0.8738E-07 -0.3125E-07 -0.2184E-07 -0.2500E-06 -0.1748E-06 -0.1042E-07 -0.7282E-08
     -1.750 -0.1394E-04 -0.5804E-05 -0.4644E-07 -0.1945E-07 -0.1393E-06 -0.5834E-07 -0.9281E-07 -0.3864E-07 -0.6420E-09 -0.2709E-09 -0.9692E-09 -0.4281E-09 -0.2449E-09 -0.1161E-09 -0.1926E-08 -0.8128E-09 -0.8025E-10 -0.3387E-10
     -1.686 -0.2030E-04 -0.4574E-04 -0.2615E-06 -0.5890E-06 -0.7844E-06 -0.1767E-05 -0.1307E-06 -0.2945E-06 -0.7372E-08 -0.1661E-07 -0.4423E-07 -0.9965E-07 -0.2488E-07 -0.5605E-07 -0.2212E-07 -0.4983E-07 -0.9215E-09 -0.2076E-08
     -1.622 -0.2445E-02 -0.3125E-02 -0.3150E-04 -0.4024E-04 -0.9451E-04 -0.1207E-03 -0.1575E-04 -0.2012E-04 -0.8883E-06 -0.1135E-05 -0.5330E-05 -0.6808E-05 -0.2998E-05 -0.3829E-05 -0.2665E-05 -0.3404E-05 -0.1110E-06 -0.1418E-06
     -1.557  0.2970E-01  0.4310E-01  0.3827E-03  0.5549E-03  0.1148E-02  0.1665E-02  0.1913E-03  0.2775E-03  0.1079E-04  0.1565E-04  0.6474E-04  0.9390E-04  0.3642E-04  0.5282E-04  0.3237E-04  0.4695E-04  0.1349E-05  0.1956E-05
     -1.493  0.7668E-01  0.6502E-01  0.9880E-03  0.8372E-03  0.2964E-02  0.2512E-02  0.4940E-03  0.4186E-03  0.2786E-04  0.2361E-04  0.1671E-03  0.1417E-03  0.9402E-04  0.7968E-04  0.8357E-04  0.7083E-04  0.3482E-05  0.2951E-05
     -1.428 -0.2271E-02 -0.3377E-02 -0.2926E-04 -0.4348E-04 -0.8779E-04 -0.1304E-03 -0.1463E-04 -0.2174E-04 -0.8251E-06 -0.1226E-05 -0.4951E-05 -0.7357E-05 -0.2785E-05 -0.4138E-05 -0.2475E-05 -0.3679E-05 -0.1031E-06 -0.1533E-06
     -1.364 -0.2867E-03 -0.1482E-03 -0.3694E-05 -0.1908E-05 -0.1108E-04 -0.5724E-05 -0.1847E-05 -0.9542E-06 -0.1042E-06 -0.5383E-07 -0.6250E-06 -0.3228E-06 -0.3515E-06 -0.1816E-06 -0.3125E-06 -0.1614E-06 -0.1302E-07 -0.6729E-08
     -1.300 -0.1191E-04 -0.2904E-04 -0.3395E-06 -0.8366E-06 -0.1347E-06 -0.3128E-06 -0.6738E-06 -0.1672E-05 -0.7942E-07 -0.1972E-06 -0.8273E-08 -0.1931E-07 -0.3589E-07 -0.8857E-07 -0.1568E-07 -0.3834E-07 -0.9928E-08 -0.2466E-07
     -1.235 -0.3561E-02 -0.5376E-02 -0.1028E-03 -0.1552E-03 -0.3806E-04 -0.5745E-04 -0.2056E-03 -0.3103E-03 -0.2427E-04 -0.3662E-04 -0.2353E-05 -0.3551E-05 -0.1088E-04 -0.1643E-04 -0.4707E-05 -0.7102E-05 -0.3033E-05 -0.4578E-05
     -1.171  0.3044E-01  0.5804E-01  0.8787E-03  0.1675E-02  0.3254E-03  0.6202E-03  0.1757E-02  0.3350E-02  0.2074E-03  0.3953E-03  0.2012E-04  0.3833E-04  0.9301E-04  0.1773E-03  0.4023E-04  0.7667E-04  0.2593E-04  0.4942E-04
     -1.107  0.2563E+00  0.2429E+00  0.7397E-02  0.7010E-02  0.2739E-02  0.2596E-02  0.1479E-01  0.1402E-01  0.1746E-02  0.1655E-02  0.1693E-03  0.1604E-03  0.7830E-03  0.7422E-03  0.3387E-03  0.3208E-03  0.2183E-03  0.2068E-03
     -1.042  0.1295E-01 -0.3790E-03  0.3738E-03 -0.1094E-04  0.1384E-03 -0.4050E-05  0.7475E-03 -0.2188E-04  0.8823E-04 -0.2582E-05  0.8556E-05 -0.2503E-06  0.3956E-04 -0.1158E-05  0.1711E-04 -0.5007E-06  0.1103E-04 -0.3227E-06
     -0.978 -0.2352E-02 -0.1365E-02 -0.6790E-04 -0.3940E-04 -0.2514E-04 -0.1459E-04 -0.1358E-03 -0.7880E-04 -0.1603E-04 -0.9299E-05 -0.1554E-05 -0.9017E-06 -0.7187E-05 -0.4171E-05 -0.3109E-05 -0.1803E-05 -0.2004E-05 -0.1162E-05
     -0.914 -0.5080E-05 -0.1847E-05 -0.1466E-06 -0.5331E-07 -0.5430E-07 -0.1974E-07 -0.2933E-06 -0.1066E-06 -0.3462E-07 -0.1258E-07 -0.3357E-08 -0.1220E-08 -0.1552E-07 -0.5644E-08 -0.6715E-08 -0.2440E-08 -0.4327E-08 -0.1573E-08
     -0.849 -0.2999E-09 -0.7117E-10 -0.8656E-11 -0.2054E-11 -0.3205E-11 -0.7605E-12 -0.1731E-10 -0.4108E-11 -0.2043E-11 -0.4848E-12 -0.1982E-12 -0.4700E-13 -0.9162E-12 -0.2175E-12 -0.3963E-12 -0.9401E-13 -0.2554E-12 -0.6060E-13
     -0.785 -0.5870E-15 -0.6523E-16 -0.1694E-16 -0.1883E-17 -0.6274E-17 -0.6971E-18 -0.3389E-16 -0.3765E-17 -0.4000E-17 -0.4443E-18 -0.3879E-18 -0.4308E-19 -0.1793E-17 -0.1993E-18 -0.7758E-18 -0.8617E-19 -0.5000E-18 -0.5554E-19
     -0.721 -0.9848E-16 -0.6098E-15 -0.2716E-17 -0.1681E-16 -0.8148E-17 -0.5043E-16 -0.5267E-17 -0.3260E-16 -0.7747E-18 -0.4794E-17 -0.1242E-17 -0.7691E-17 -0.1737E-18 -0.1075E-17 -0.2324E-17 -0.1438E-16 -0.3194E-18 -0.1977E-17
     -0.656 -0.7326E-10 -0.3063E-09 -0.2020E-11 -0.8443E-11 -0.6061E-11 -0.2533E-10 -0.3919E-11 -0.1638E-10 -0.5763E-12 -0.2408E-11 -0.9243E-12 -0.3863E-11 -0.1292E-12 -0.5401E-12 -0.1729E-11 -0.7225E-11 -0.2376E-12 -0.9932E-12
     -0.592 -0.1847E-05 -0.5046E-05 -0.5093E-07 -0.1391E-06 -0.1528E-06 -0.4173E-06 -0.9877E-07 -0.2698E-06 -0.1453E-07 -0.3967E-07 -0.2330E-07 -0.6364E-07 -0.3257E-08 -0.8899E-08 -0.4358E-07 -0.1190E-06 -0.5990E-08 -0.1636E-07
     -0.528 -0.1323E-02 -0.2269E-02 -0.3650E-04 -0.6255E-04 -0.1095E-03 -0.1877E-03 -0.7079E-04 -0.1213E-03 -0.1040E-04 -0.1782E-04 -0.1669E-04 -0.2859E-04 -0.2334E-05 -0.4000E-05 -0.3121E-04 -0.5347E-04 -0.4288E-05 -0.7346E-05
     -0.463 -0.3123E-03  0.1214E-01 -0.1100E-04  0.3309E-03 -0.3300E-04  0.9927E-03 -0.2250E-04  0.6399E-03 -0.3854E-06  0.9872E-04 -0.3334E-06  0.1588E-03 -0.5001E-06  0.2149E-04 -0.1156E-05  0.2962E-03  0.6295E-06  0.4196E-04
     -0.399  0.2313E+00  0.2482E+00  0.6393E-02  0.6877E-02  0.1918E-01  0.2063E-01  0.1241E-01  0.1335E-01  0.1806E-02  0.1920E-02  0.2894E-02  0.3076E-02  0.4076E-03  0.4369E-03  0.5417E-02  0.5760E-02  0.7395E-03  0.7801E-03
     -0.335  0.1115E+00  0.8540E-01  0.3306E-02  0.2582E-02  0.9919E-02  0.7746E-02  0.6526E-02  0.5119E-02  0.6757E-03  0.4736E-03  0.1056E-02  0.7324E-03  0.1917E-03  0.1457E-03  0.2027E-02  0.1421E-02  0.2020E-03  0.1200E-03
     -0.270  0.9177E-03 -0.1543E-02  0.4789E-04 -0.3602E-04  0.1437E-03 -0.1080E-03  0.1039E-03 -0.6666E-04 -0.1239E-04 -0.1781E-04 -0.2256E-04 -0.2934E-04  0.1138E-05 -0.2863E-05 -0.3716E-04 -0.5342E-04 -0.1257E-04 -0.9501E-05
     -0.206 -0.8028E-03 -0.5482E-03 -0.2817E-04 -0.2403E-04 -0.7350E-04 -0.4703E-04 -0.5015E-04 -0.3405E-04 -0.4623E-05 -0.4626E-05 -0.6205E-05 -0.5239E-05 -0.1576E-05 -0.1433E-05 -0.1065E-04 -0.6557E-05 -0.6306E-06 -0.5911E-06
     -0.142 -0.5659E-02 -0.7482E-02 -0.6120E-03 -0.8089E-03 -0.2424E-03 -0.3203E-03 -0.3342E-03 -0.4416E-03 -0.1612E-03 -0.2131E-03 -0.1332E-03 -0.1761E-03 -0.4206E-04 -0.5561E-04 -0.1808E-04 -0.2386E-04 -0.1950E-04 -0.2578E-04
     -0.077  0.6567E-01  0.9849E-01  0.7103E-02  0.1065E-01  0.2812E-02  0.4215E-02  0.3877E-02  0.5813E-02  0.1872E-02  0.2806E-02  0.1546E-02  0.2318E-02  0.4882E-03  0.7321E-03  0.2096E-03  0.3140E-03  0.2264E-03  0.3394E-03
     -0.013  0.2062E+00  0.1790E+00  0.2230E-01  0.1936E-01  0.8827E-02  0.7662E-02  0.1217E-01  0.1057E-01  0.5876E-02  0.5100E-02  0.4855E-02  0.4214E-02  0.1533E-02  0.1331E-02  0.6580E-03  0.5707E-03  0.7106E-03  0.6170E-03
      0.051 -0.4183E-02 -0.8546E-02 -0.4433E-03 -0.9057E-03 -0.1722E-03 -0.3521E-03 -0.2644E-03 -0.5392E-03 -0.1332E-03 -0.2713E-03 -0.9356E-04 -0.1913E-03 -0.3800E-04 -0.7730E-04 -0.1345E-04 -0.2745E-04 -0.1619E-04 -0.3299E-04
      0.116 -0.9426E-02 -0.8209E-02 -0.6755E-03 -0.5756E-03 -0.1469E-03 -0.1185E-03 -0.1207E-02 -0.1075E-02 -0.7893E-03 -0.7061E-03 -0.3702E-04 -0.2548E-04 -0.3275E-03 -0.2946E-03 -0.3390E-04 -0.2964E-04 -0.9856E-04 -0.8820E-04
      0.180  0.1376E+00  0.1694E+00  0.9320E-02  0.1147E-01  0.1742E-02  0.2144E-02  0.1864E-01  0.2295E-01  0.1234E-01  0.1518E-01  0.2503E-03  0.3080E-03  0.5184E-02  0.6382E-02  0.5007E-03  0.6161E-03  0.1542E-02  0.1898E-02
      0.245  0.1278E+00  0.9415E-01  0.8655E-02  0.6377E-02  0.1617E-02  0.1191E-02  0.1731E-01  0.1275E-01  0.1146E-01  0.8439E-02  0.2325E-03  0.1712E-03  0.4814E-02  0.3547E-02  0.4650E-03  0.3424E-03  0.1432E-02  0.1055E-02
      0.309 -0.8365E-02 -0.7134E-02 -0.5667E-03 -0.4832E-03 -0.1059E-03 -0.9028E-04 -0.1133E-02 -0.9663E-03 -0.7501E-03 -0.6394E-03 -0.1522E-04 -0.1297E-04 -0.3152E-03 -0.2688E-03 -0.3044E-04 -0.2595E-04 -0.9377E-04 -0.7993E-04
      0.373 -0.1843E-03 -0.8579E-04 -0.1248E-04 -0.5810E-05 -0.2333E-05 -0.1086E-05 -0.2497E-04 -0.1162E-04 -0.1653E-04 -0.7690E-05 -0.3353E-06 -0.1560E-06 -0.6943E-05 -0.3232E-05 -0.6707E-06 -0.3120E-06 -0.2066E-05 -0.9612E-06