 vasp.5.2.12 11Nov11 complex                                                    
  
 executed on             LinuxIFC date 2012.10.17  10:12:41
 running on    1 nodes
 distr:  one band on    1 nodes,    1 groups


--------------------------------------------------------------------------------------------------------


 INCAR:
 POTCAR:    PAW_PBE Ta 17Jan2003                  
 POTCAR:    PAW_PBE Ta 17Jan2003                  
   VRHFIN =Ta:  6s5d                                                            
   LEXCH  = PE                                                                  
   EATOM  =   130.6506 eV,    9.6025 Ry                                         
                                                                                
   TITEL  = PAW_PBE Ta 17Jan2003                                                
   LULTRA =        F    use ultrasoft PP ?                                      
   IUNSCR =        1    unscreen: 0-lin 1-nonlin 2-no                           
   RPACOR =    2.330    partial core radius                                     
   POMASS =  180.948; ZVAL   =    5.000    mass and valenz                      
   RCORE  =    2.900    outmost cutoff radius                                   
   RWIGS  =    2.840; RWIGS  =    1.503    wigner-seitz radius (au A)           
   ENMAX  =  223.667; ENMIN  =  167.750 eV                                      
   RCLOC  =    2.205    cutoff for local pot                                    
   LCOR   =        T    correct aug charges                                     
   LPAW   =        T    paw PP                                                  
   EAUG   =  332.075                                                            
   DEXC   =    -.049                                                            
   RMAX   =    3.083    core radius for proj-oper                               
   RAUG   =    1.300    factor for augmentation sphere                          
   RDEP   =    3.060    radius for radial grids                                 
   QCUT   =   -4.055; QGAM   =    8.109    optimization parameters              
                                                                                
   Description                                                                  
     l     E      TYP  RCUT    TYP  RCUT                                        
     2   .000     23  2.500                                                     
     2   .000     23  2.500                                                     
     0   .000     23  2.500                                                     
     0   .000     23  2.500                                                     
     1   .000     23  2.900                                                     
     1  2.000     23  2.900                                                     
     3   .000      7   .000                                                     
  local pseudopotential read in
  partial core-charges read in
  atomic valenz-charges read in
  non local Contribution for L=           2  read in
    real space projection operators read in
  non local Contribution for L=           2  read in
    real space projection operators read in
  non local Contribution for L=           0  read in
    real space projection operators read in
  non local Contribution for L=           0  read in
    real space projection operators read in
  non local Contribution for L=           1  read in
    real space projection operators read in
  non local Contribution for L=           1  read in
    real space projection operators read in
    PAW grid and wavefunctions read in
 
   number of l-projection  operators is LMAX  =           6
   number of lm-projection operators is LMMAX =          18
 
  PAW_PBE Ta 17Jan2003                  :
 energy of atom  1       EATOM= -130.6506
 kinetic energy error for atom=    0.0044 (will be added to EATOM!!)
 
 
 POSCAR: Ta                                      
  positions in cartesian coordinates
  No initial velocities read in
 exchange correlation table for  LEXCH =        8
   RHO(1)=    0.500       N(1)  =     2000
   RHO(2)=  100.500       N(2)  =     4000
 


--------------------------------------------------------------------------------------------------------


 ion  position               nearest neighbor table
   1  0.000  0.000  0.000-
 
  LATTYP: Found a body centered cubic cell.
 ALAT       =     3.3100000000
  
  Lattice vectors:
  
 A1 = (   2.8665440865,   0.0000000000,   0.0000000000)
 A2 = (  -0.9555146955,   2.7026036829,   0.0000000000)
 A3 = (  -0.9555146955,  -1.3513018414,   2.3405234457)
 Subroutine PRICEL returns:
 Original cell was already a primitive cell.
 

Analysis of symmetry for initial positions (statically):

 Routine SETGRP: Setting up the symmetry group for a 
 body centered cubic supercell.


 Subroutine GETGRP returns: Found 48 space group operations
 (whereof 48 operations were pure point group operations)
 out of a pool of 48 trial point group operations.


The static configuration has the point symmetry O_h .

Analysis of symmetry for dynamics (positions and initial velocities):

 Subroutine DYNSYM returns: Found 48 space group operations
 (whereof 48 operations were pure point group operations)
 out of a pool of 48 trial space group operations
 (whereof 48 operations were pure point group operations)
 and found also     1 'primitive' translations


The dynamic configuration has the point symmetry O_h .

Analysis of magnetic symmetry:

 Subroutine MAGSYM returns: Found 48 space group operations
 (whereof 48 operations were pure point group operations)
 out of a pool of 48 trial space group operations
 (whereof 48 operations were pure point group operations)
 and found also     1 'primitive' translations


The magnetic configuration has the point symmetry O_h .
 
 
 KPOINTS: KPOINTS created by Atomic Simulation Env

Automatic generation of k-mesh.
 
 Subroutine IBZKPT returns following result:
 ===========================================
 
 Found     44 irreducible k-points:
 
 Following reciprocal coordinates:
            Coordinates               Weight
  0.050000  0.050000  0.050000      8.000000
  0.150000  0.050000  0.050000     24.000000
  0.250000  0.050000  0.050000     24.000000
  0.350000  0.050000  0.050000     24.000000
  0.450000  0.050000  0.050000     12.000000
 -0.050000  0.050000  0.050000      6.000000
  0.150000  0.150000  0.050000     24.000000
  0.250000  0.150000  0.050000     48.000000
  0.350000  0.150000  0.050000     48.000000
 -0.150000  0.150000  0.050000     24.000000
  0.250000  0.250000  0.050000     24.000000
  0.350000  0.250000  0.050000     24.000000
 -0.250000  0.250000  0.050000     24.000000
 -0.150000  0.250000  0.050000     24.000000
 -0.350000  0.350000  0.050000     24.000000
 -0.250000  0.350000  0.050000     48.000000
 -0.450000  0.450000  0.050000     24.000000
 -0.350000  0.450000  0.050000     48.000000
 -0.250000  0.450000  0.050000     24.000000
 -0.450000 -0.450000  0.050000     24.000000
 -0.350000 -0.450000  0.050000     48.000000
 -0.350000 -0.350000  0.050000      8.000000
  0.150000  0.150000  0.150000      8.000000
  0.250000  0.150000  0.150000     24.000000
  0.350000  0.150000  0.150000     12.000000
 -0.150000  0.150000  0.150000      6.000000
  0.250000  0.250000  0.150000     24.000000
 -0.250000  0.250000  0.150000     24.000000
 -0.350000  0.350000  0.150000     24.000000
 -0.250000  0.350000  0.150000     24.000000
 -0.450000  0.450000  0.150000     24.000000
 -0.350000  0.450000  0.150000     48.000000
 -0.450000 -0.450000  0.150000     24.000000
 -0.350000 -0.450000  0.150000     24.000000
  0.250000  0.250000  0.250000      2.000000
 -0.250000  0.250000  0.250000      6.000000
 -0.350000  0.350000  0.250000     24.000000
 -0.450000  0.450000  0.250000     24.000000
 -0.350000  0.450000  0.250000     24.000000
 -0.450000 -0.450000  0.250000     24.000000
 -0.350000  0.350000  0.350000      6.000000
 -0.450000  0.450000  0.350000     24.000000
 -0.450000 -0.450000  0.350000      8.000000
 -0.450000  0.450000  0.450000      6.000000
 
 Following cartesian coordinates:
            Coordinates               Weight
  0.017443  0.024668  0.042725      8.000000
  0.052328  0.037001  0.064088     24.000000
  0.087213  0.049335  0.085451     24.000000
  0.122098  0.061669  0.106814     24.000000
  0.156983  0.074003  0.128176     12.000000
 -0.017443  0.012334  0.021363      6.000000
  0.052328  0.074003  0.085451     24.000000
  0.087213  0.086336  0.106814     48.000000
  0.122098  0.098670  0.128176     48.000000
 -0.052328  0.037001  0.021363     24.000000
  0.087213  0.123338  0.128176     24.000000
  0.122098  0.135672  0.149539     24.000000
 -0.087213  0.061669  0.021363     24.000000
 -0.052328  0.074003  0.042725     24.000000
 -0.122098  0.086336  0.021363     24.000000
 -0.087213  0.098670  0.042725     48.000000
 -0.156983  0.111004  0.021363     24.000000
 -0.122098  0.123338  0.042725     48.000000
 -0.087213  0.135672  0.064088     24.000000
 -0.156983 -0.222008 -0.170902     24.000000
 -0.122098 -0.209674 -0.149539     48.000000
 -0.122098 -0.172673 -0.128176      8.000000
  0.052328  0.074003  0.128176      8.000000
  0.087213  0.086336  0.149539     24.000000
  0.122098  0.098670  0.170902     12.000000
 -0.052328  0.037001  0.064088      6.000000
  0.087213  0.123338  0.170902     24.000000
 -0.087213  0.061669  0.064088     24.000000
 -0.122098  0.086336  0.064088     24.000000
 -0.087213  0.098670  0.085451     24.000000
 -0.156983  0.111004  0.064088     24.000000
 -0.122098  0.123338  0.085451     48.000000
 -0.156983 -0.222008 -0.128176     24.000000
 -0.122098 -0.209674 -0.106814     24.000000
  0.087213  0.123338  0.213627      2.000000
 -0.087213  0.061669  0.106814      6.000000
 -0.122098  0.086336  0.106814     24.000000
 -0.156983  0.111004  0.106814     24.000000
 -0.122098  0.123338  0.128176     24.000000
 -0.156983 -0.222008 -0.085451     24.000000
 -0.122098  0.086336  0.149539      6.000000
 -0.156983  0.111004  0.149539     24.000000
 -0.156983 -0.222008 -0.042725      8.000000
 -0.156983  0.111004  0.192265      6.000000
 


--------------------------------------------------------------------------------------------------------




 Dimension of arrays:
   k-points           NKPTS =     44   k-points in BZ     NKDIM =     44   number of bands    NBANDS=      6
   number of dos      NEDOS =    301   number of ions     NIONS =      1
   non local maximal  LDIM  =      6   non local SUM 2l+1 LMDIM =     18
   total plane-waves  NPLWV =   5832
   max r-space proj   IRMAX =      1   max aug-charges    IRDMAX=  22091
   dimension x,y,z NGX =    18 NGY =   18 NGZ =   18
   dimension x,y,z NGXF=    36 NGYF=   36 NGZF=   36
   support grid    NGXF=    36 NGYF=   36 NGZF=   36
   ions per type =               1
 NGX,Y,Z   is equivalent  to a cutoff of  10.44, 10.44, 10.44 a.u.
 NGXF,Y,Z  is equivalent  to a cutoff of  20.88, 20.88, 20.88 a.u.


 I would recommend the setting:
   dimension x,y,z NGX =    17 NGY =   17 NGZ =   17
 SYSTEM =  unknown system                          
 POSCAR =  Ta                                      

 Startparameter for this run:
   NWRITE =      2    write-flag & timer
   PREC   = accura    normal or accurate (medium, high low for compatibility)
   ISTART =      0    job   : 0-new  1-cont  2-samecut
   ICHARG =      2    charge: 1-file 2-atom 10-const
   ISPIN  =      2    spin polarized calculation?
   LNONCOLLINEAR =      F non collinear calculations
   LSORBIT =      F    spin-orbit coupling
   INIWAV =      1    electr: 0-lowe 1-rand  2-diag
   LASPH  =      F    aspherical Exc in radial PAW
   METAGGA=      F    non-selfconsistent MetaGGA calc.

 Electronic Relaxation 1
   ENCUT  =  350.0 eV  25.72 Ry    5.07 a.u.   4.37  4.37  4.37*2*pi/ulx,y,z
   ENINI  =  350.0     initial cutoff
   ENAUG  =  332.1 eV  augmentation charge cutoff
   NELM   =     60;   NELMIN=  2; NELMDL= -5     # of ELM steps 
   EDIFF  = 0.1E-03   stopping-criterion for ELM
   LREAL  =      F    real-space projection
   NLSPLINE    = F    spline interpolate recip. space projectors
   LCOMPAT=      F    compatible to vasp.4.4
   GGA_COMPAT  = T    GGA compatible to vasp.4.4-vasp.4.6
   LMAXPAW     = -100 max onsite density
   LMAXMIX     =    2 max onsite mixed and CHGCAR
   VOSKOWN=      0    Vosko Wilk Nusair interpolation
   ROPT   =    0.00000
 Ionic relaxation
   EDIFFG = 0.1E-02   stopping-criterion for IOM
   NSW    =      0    number of steps for IOM
   NBLOCK =      1;   KBLOCK =      1    inner block; outer block 
   IBRION =     -1    ionic relax: 0-MD 1-quasi-New 2-CG
   NFREE  =      0    steps in history (QN), initial steepest desc. (CG)
   ISIF   =      2    stress and relaxation
   IWAVPR =     10    prediction:  0-non 1-charg 2-wave 3-comb
   ISYM   =      2    0-nonsym 1-usesym 2-fastsym
   LCORR  =      T    Harris-Foulkes like correction to forces

   POTIM  = 0.5000    time-step for ionic-motion
   TEIN   =    0.0    initial temperature
   TEBEG  =    0.0;   TEEND  =   0.0 temperature during run
   SMASS  =  -3.00    Nose mass-parameter (am)
   estimated Nose-frequenzy (Omega)   =  0.10E-29 period in steps =****** mass=  -0.188E-27a.u.
   SCALEE = 1.0000    scale energy and forces
   NPACO  =    256;   APACO  = 16.0  distance and # of slots for P.C.
   PSTRESS=    0.0 pullay stress

  Mass of Ions in am
   POMASS = 180.95
  Ionic Valenz
   ZVAL   =   5.00
  Atomic Wigner-Seitz radii
   RWIGS  =  -1.00
  virtual crystal weights 
   VCA    =   1.00
   NELECT =       5.0000    total number of electrons
   NUPDOWN=      -1.0000    fix difference up-down

 DOS related values:
   EMIN   =  10.00;   EMAX   =-10.00  energy-range for DOS
   EFERMI =   0.00
   ISMEAR =     1;   SIGMA  =   0.05  broadening in eV -4-tet -1-fermi 0-gaus

 Electronic relaxation 2 (details)
   IALGO  =     38    algorithm
   LDIAG  =      T    sub-space diagonalisation (order eigenvalues)
   LSUBROT=      T    optimize rotation matrix (better conditioning)
   TURBO    =      0    0=normal 1=particle mesh
   IRESTART =      0    0=no restart 2=restart with 2 vectors
   NREBOOT  =      0    no. of reboots
   NMIN     =      0    reboot dimension
   EREF     =   0.00    reference energy to select bands
   IMIX   =      4    mixing-type and parameters
     AMIX     =   0.40;   BMIX     =  1.00
     AMIX_MAG =   1.60;   BMIX_MAG =  1.00
     AMIN     =   0.10
     WC   =   100.;   INIMIX=   1;  MIXPRE=   1

 Intra band minimization:
   WEIMIN = 0.0000     energy-eigenvalue tresh-hold
   EBREAK =  0.42E-05  absolut break condition
   DEPER  =   0.30     relativ break condition  

   TIME   =   0.40     timestep for ELM

  volume/ion in A,a.u.               =      18.13       122.36
  Fermi-wavevector in a.u.,A,eV,Ry     =   1.065566  2.013627 15.448462  1.135430
  Thomas-Fermi vector in A             =   2.201121
 
 Write flags
   LWAVE  =      T    write WAVECAR
   LCHARG =      T    write CHGCAR
   LVTOT  =      F    write LOCPOT, total local potential
   LVHAR  =      F    write LOCPOT, Hartree potential only
   LELF   =      F    write electronic localiz. function (ELF)
   LORBIT =     11    0 simple, 1 ext, 2 COOP (PROOUT)


 Dipole corrections
   LMONO  =      F    monopole corrections only (constant potential shift)
   LDIPOL =      F    correct potential (dipole corrections)
   IDIPOL =      0    1-x, 2-y, 3-z, 4-all directions 
   EPSILON=  1.0000000 bulk dielectric constant

 Exchange correlation treatment:
   GGA     =    --    GGA type
   LEXCH   =     8    internal setting for exchange type
   VOSKOWN=      0    Vosko Wilk Nusair interpolation
   LHFCALC =     F    Hartree Fock is set to
   LHFONE  =     F    Hartree Fock one center treatment
   AEXX    =    0.0000 exact exchange contribution

 Linear response parameters
   LEPSILON=     F    determine dielectric tensor
   LRPA    =     F    only Hartree local field effects (RPA)
   LNABLA  =     F    use nabla operator in PAW spheres
   LVEL    =     F    velocity operator in full k-point grid
   LINTERFAST=   F  fast interpolation
   KINTER  =     0    interpolate to denser k-point grid
   CSHIFT  =0.1000    complex shift for real part using Kramers Kronig
   OMEGAMAX=  -1.0    maximum frequency
   RTIME   =    0.100 relaxation time in fs

 Orbital magnetization related:
   ORBITALMAG=     F  switch on orbital magnetization
   LCHIMAG   =     F  perturbation theory with respect to B field
   DQ        =  0.001000  dq finite difference perturbation B field



--------------------------------------------------------------------------------------------------------


 Static calculation
 charge density and potential will be updated during run
 spin polarized calculation
 Variant of blocked Davidson
 Davidson routine will perform the subspace rotation
 perform sub-space diagonalisation
    after iterative eigenvector-optimisation
 modified Broyden-mixing scheme, WC =      100.0
 initial mixing is a Kerker type mixing with AMIX =  0.4000 and BMIX =      1.0000
 Hartree-type preconditioning will be used
 using additional bands            3
 reciprocal scheme for non local part
 use partial core corrections
 calculate Harris-corrections to forces 
   (improved forces if not selfconsistent)
 use gradient corrections 
 use of overlap-Matrix (Vanderbilt PP)
 Methfessel and Paxton  Order N= 1 SIGMA  =   0.05


--------------------------------------------------------------------------------------------------------


  energy-cutoff  :      350.00
  volume of cell :       18.13
      direct lattice vectors                 reciprocal lattice vectors
     2.866544087  0.000000000  0.000000000     0.348852126  0.123337852  0.213627426
    -0.955514696  2.702603683  0.000000000     0.000000000  0.370013556  0.213627426
    -0.955514696 -1.351301841  2.340523446     0.000000000  0.000000000  0.427254853

  length of vectors
     2.866544087  2.866544087  2.866544087     0.427254853  0.427254853  0.427254853


 
 k-points in units of 2pi/SCALE and weight: KPOINTS created by Atomic Simulation Env
   0.01744261  0.02466757  0.04272549       0.008
   0.05232782  0.03700136  0.06408823       0.024
   0.08721303  0.04933514  0.08545097       0.024
   0.12209824  0.06166893  0.10681371       0.024
   0.15698346  0.07400271  0.12817646       0.012
  -0.01744261  0.01233379  0.02136274       0.006
   0.05232782  0.07400271  0.08545097       0.024
   0.08721303  0.08633650  0.10681371       0.048
   0.12209824  0.09867028  0.12817646       0.048
  -0.05232782  0.03700136  0.02136274       0.024
   0.08721303  0.12333785  0.12817646       0.024
   0.12209824  0.13567164  0.14953920       0.024
  -0.08721303  0.06166893  0.02136274       0.024
  -0.05232782  0.07400271  0.04272549       0.024
  -0.12209824  0.08633650  0.02136274       0.024
  -0.08721303  0.09867028  0.04272549       0.048
  -0.15698346  0.11100407  0.02136274       0.024
  -0.12209824  0.12333785  0.04272549       0.048
  -0.08721303  0.13567164  0.06408823       0.024
  -0.15698346 -0.22200813 -0.17090194       0.024
  -0.12209824 -0.20967435 -0.14953920       0.048
  -0.12209824 -0.17267299 -0.12817646       0.008
   0.05232782  0.07400271  0.12817646       0.008
   0.08721303  0.08633650  0.14953920       0.024
   0.12209824  0.09867028  0.17090194       0.012
  -0.05232782  0.03700136  0.06408823       0.006
   0.08721303  0.12333785  0.17090194       0.024
  -0.08721303  0.06166893  0.06408823       0.024
  -0.12209824  0.08633650  0.06408823       0.024
  -0.08721303  0.09867028  0.08545097       0.024
  -0.15698346  0.11100407  0.06408823       0.024
  -0.12209824  0.12333785  0.08545097       0.048
  -0.15698346 -0.22200813 -0.12817646       0.024
  -0.12209824 -0.20967435 -0.10681371       0.024
   0.08721303  0.12333785  0.21362743       0.002
  -0.08721303  0.06166893  0.10681371       0.006
  -0.12209824  0.08633650  0.10681371       0.024
  -0.15698346  0.11100407  0.10681371       0.024
  -0.12209824  0.12333785  0.12817646       0.024
  -0.15698346 -0.22200813 -0.08545097       0.024
  -0.12209824  0.08633650  0.14953920       0.006
  -0.15698346  0.11100407  0.14953920       0.024
  -0.15698346 -0.22200813 -0.04272549       0.008
  -0.15698346  0.11100407  0.19226468       0.006
 
 k-points in reciprocal lattice and weights: KPOINTS created by Atomic Simulation Env
   0.05000000  0.05000000  0.05000000       0.008
   0.15000000  0.05000000  0.05000000       0.024
   0.25000000  0.05000000  0.05000000       0.024
   0.35000000  0.05000000  0.05000000       0.024
   0.45000000  0.05000000  0.05000000       0.012
  -0.05000000  0.05000000  0.05000000       0.006
   0.15000000  0.15000000  0.05000000       0.024
   0.25000000  0.15000000  0.05000000       0.048
   0.35000000  0.15000000  0.05000000       0.048
  -0.15000000  0.15000000  0.05000000       0.024
   0.25000000  0.25000000  0.05000000       0.024
   0.35000000  0.25000000  0.05000000       0.024
  -0.25000000  0.25000000  0.05000000       0.024
  -0.15000000  0.25000000  0.05000000       0.024
  -0.35000000  0.35000000  0.05000000       0.024
  -0.25000000  0.35000000  0.05000000       0.048
  -0.45000000  0.45000000  0.05000000       0.024
  -0.35000000  0.45000000  0.05000000       0.048
  -0.25000000  0.45000000  0.05000000       0.024
  -0.45000000 -0.45000000  0.05000000       0.024
  -0.35000000 -0.45000000  0.05000000       0.048
  -0.35000000 -0.35000000  0.05000000       0.008
   0.15000000  0.15000000  0.15000000       0.008
   0.25000000  0.15000000  0.15000000       0.024
   0.35000000  0.15000000  0.15000000       0.012
  -0.15000000  0.15000000  0.15000000       0.006
   0.25000000  0.25000000  0.15000000       0.024
  -0.25000000  0.25000000  0.15000000       0.024
  -0.35000000  0.35000000  0.15000000       0.024
  -0.25000000  0.35000000  0.15000000       0.024
  -0.45000000  0.45000000  0.15000000       0.024
  -0.35000000  0.45000000  0.15000000       0.048
  -0.45000000 -0.45000000  0.15000000       0.024
  -0.35000000 -0.45000000  0.15000000       0.024
   0.25000000  0.25000000  0.25000000       0.002
  -0.25000000  0.25000000  0.25000000       0.006
  -0.35000000  0.35000000  0.25000000       0.024
  -0.45000000  0.45000000  0.25000000       0.024
  -0.35000000  0.45000000  0.25000000       0.024
  -0.45000000 -0.45000000  0.25000000       0.024
  -0.35000000  0.35000000  0.35000000       0.006
  -0.45000000  0.45000000  0.35000000       0.024
  -0.45000000 -0.45000000  0.35000000       0.008
  -0.45000000  0.45000000  0.45000000       0.006
 
 position of ions in fractional coordinates (direct lattice) 
   0.00000000  0.00000000  0.00000000
 
 position of ions in cartesian coordinates  (Angst):
   0.00000000  0.00000000  0.00000000
 


--------------------------------------------------------------------------------------------------------


 k-point  1 :  0.05000.05000.0500  plane waves:     270
 k-point  2 :  0.15000.05000.0500  plane waves:     276
 k-point  3 :  0.25000.05000.0500  plane waves:     268
 k-point  4 :  0.35000.05000.0500  plane waves:     269
 k-point  5 :  0.45000.05000.0500  plane waves:     272
 k-point  6 :  -.05000.05000.0500  plane waves:     269
 k-point  7 :  0.15000.15000.0500  plane waves:     269
 k-point  8 :  0.25000.15000.0500  plane waves:     272
 k-point  9 :  0.35000.15000.0500  plane waves:     271
 k-point 10 :  -.15000.15000.0500  plane waves:     271
 k-point 11 :  0.25000.25000.0500  plane waves:     272
 k-point 12 :  0.35000.25000.0500  plane waves:     272
 k-point 13 :  -.25000.25000.0500  plane waves:     269
 k-point 14 :  -.15000.25000.0500  plane waves:     273
 k-point 15 :  -.35000.35000.0500  plane waves:     269
 k-point 16 :  -.25000.35000.0500  plane waves:     270
 k-point 17 :  -.45000.45000.0500  plane waves:     272
 k-point 18 :  -.35000.45000.0500  plane waves:     268
 k-point 19 :  -.25000.45000.0500  plane waves:     272
 k-point 20 :  -.4500-.45000.0500  plane waves:     270
 k-point 21 :  -.3500-.45000.0500  plane waves:     276
 k-point 22 :  -.3500-.35000.0500  plane waves:     279
 k-point 23 :  0.15000.15000.1500  plane waves:     273
 k-point 24 :  0.25000.15000.1500  plane waves:     272
 k-point 25 :  0.35000.15000.1500  plane waves:     272
 k-point 26 :  -.15000.15000.1500  plane waves:     277
 k-point 27 :  0.25000.25000.1500  plane waves:     271
 k-point 28 :  -.25000.25000.1500  plane waves:     270
 k-point 29 :  -.35000.35000.1500  plane waves:     271
 k-point 30 :  -.25000.35000.1500  plane waves:     275
 k-point 31 :  -.45000.45000.1500  plane waves:     273
 k-point 32 :  -.35000.45000.1500  plane waves:     269
 k-point 33 :  -.4500-.45000.1500  plane waves:     272
 k-point 34 :  -.3500-.45000.1500  plane waves:     274
 k-point 35 :  0.25000.25000.2500  plane waves:     276
 k-point 36 :  -.25000.25000.2500  plane waves:     277
 k-point 37 :  -.35000.35000.2500  plane waves:     267
 k-point 38 :  -.45000.45000.2500  plane waves:     262
 k-point 39 :  -.35000.45000.2500  plane waves:     262
 k-point 40 :  -.4500-.45000.2500  plane waves:     264
 k-point 41 :  -.35000.35000.3500  plane waves:     265
 k-point 42 :  -.45000.45000.3500  plane waves:     259
 k-point 43 :  -.4500-.45000.3500  plane waves:     258
 k-point 44 :  -.45000.45000.4500  plane waves:     257

 maximum and minimum number of plane-waves per node :       279      257

 maximum number of plane-waves:       279
 maximum index in each direction: 
   IXMAX=    4   IYMAX=    4   IZMAX=    4
   IXMIN=   -4   IYMIN=   -4   IZMIN=   -4

 NGX is ok and might be reduce to  18
 NGY is ok and might be reduce to  18
 NGZ is ok and might be reduce to  18

 serial   3D FFT for wavefunctions
 parallel 3D FFT for charge:
    minimum data exchange during FFTs selected (reduces bandwidth)


 total amount of memory used by VASP on root node    39969. kBytes
========================================================================

   base      :      30000. kBytes
   nonl-proj :       1772. kBytes
   fftplans  :       1676. kBytes
   grid      :       3981. kBytes
   one-center:         31. kBytes
   wavefun   :       2509. kBytes
 
 Broyden mixing: mesh for mixing (old mesh)
   NGX =  9   NGY =  9   NGZ =  9
  (NGX  = 36   NGY  = 36   NGZ  = 36)
  gives a total of    729 points

 initial charge density was supplied:
 charge density of overlapping atoms calculated
 number of electron       5.0000000 magnetization       6.0000000
 keeping initial charge density in first step


--------------------------------------------------------------------------------------------------------


 Maximum index for augmentation-charges        21187 (set IRDMAX)


--------------------------------------------------------------------------------------------------------


 First call to EWALD:  gamma=   0.675
 Maximum number of real-space cells 3x 3x 3
 Maximum number of reciprocal cells 3x 3x 3

    FEWALD:  cpu time    0.00: real time    0.01


----------------------------------------- Iteration    1(   1)  ---------------------------------------


    POTLOK:  cpu time    0.14: real time    0.14
    SETDIJ:  cpu time    0.03: real time    0.03
     EDDAV:  cpu time    1.00: real time    1.00
       DOS:  cpu time    0.00: real time    0.00
    --------------------------------------------
      LOOP:  cpu time    1.18: real time    1.18

 eigenvalue-minimisations  :  1092
 total energy-change (2. order) : 0.1177026E+02  (-0.1980802E+03)
 number of electron       5.0000000 magnetization       6.0000000
 augmentation part        5.0000000 magnetization       6.0000000

 Free energy of the ion-electron system (eV)
  ---------------------------------------------------
  alpha Z        PSCENC =        30.58334069
  Ewald energy   TEWEN  =      -197.90100875
  -1/2 Hartree   DENC   =        -2.50452612
  -exchange  EXHF       =         0.00000000
  -V(xc)+E(xc)   XCENC  =       -60.69825643
  PAW double counting   =       143.51874798      -69.33493833
  entropy T*S    EENTRO =        -0.00034105
  eigenvalues    EBANDS =        37.46102367
  atomic energy  EATOM  =       130.64621481
  ---------------------------------------------------
  free energy    TOTEN  =        11.77025647 eV

  energy without entropy =       11.77059752  energy(sigma->0) =       11.77037015


--------------------------------------------------------------------------------------------------------




----------------------------------------- Iteration    1(   2)  ---------------------------------------


     EDDAV:  cpu time    1.57: real time    1.57
       DOS:  cpu time    0.00: real time    0.00
    --------------------------------------------
      LOOP:  cpu time    1.57: real time    1.58

 eigenvalue-minimisations  :  1908
 total energy-change (2. order) :-0.1298215E+02  (-0.1109024E+02)
 number of electron       5.0000000 magnetization       6.0000000
 augmentation part        5.0000000 magnetization       6.0000000

 Free energy of the ion-electron system (eV)
  ---------------------------------------------------
  alpha Z        PSCENC =        30.58334069
  Ewald energy   TEWEN  =      -197.90100875
  -1/2 Hartree   DENC   =        -2.50452612
  -exchange  EXHF       =         0.00000000
  -V(xc)+E(xc)   XCENC  =       -60.69825643
  PAW double counting   =       143.51874798      -69.33493833
  entropy T*S    EENTRO =         0.00003006
  eigenvalues    EBANDS =        24.47850095
  atomic energy  EATOM  =       130.64621481
  ---------------------------------------------------
  free energy    TOTEN  =        -1.21189515 eV

  energy without entropy =       -1.21192521  energy(sigma->0) =       -1.21190517


--------------------------------------------------------------------------------------------------------




----------------------------------------- Iteration    1(   3)  ---------------------------------------


     EDDAV:  cpu time    0.99: real time    0.99
       DOS:  cpu time    0.00: real time    0.00
    --------------------------------------------
      LOOP:  cpu time    0.99: real time    1.07

 eigenvalue-minimisations  :  1074
 total energy-change (2. order) :-0.9866086E-01  (-0.9645691E-01)
 number of electron       5.0000000 magnetization       6.0000000
 augmentation part        5.0000000 magnetization       6.0000000

 Free energy of the ion-electron system (eV)
  ---------------------------------------------------
  alpha Z        PSCENC =        30.58334069
  Ewald energy   TEWEN  =      -197.90100875
  -1/2 Hartree   DENC   =        -2.50452612
  -exchange  EXHF       =         0.00000000
  -V(xc)+E(xc)   XCENC  =       -60.69825643
  PAW double counting   =       143.51874798      -69.33493833
  entropy T*S    EENTRO =         0.00011590
  eigenvalues    EBANDS =        24.37975425
  atomic energy  EATOM  =       130.64621481
  ---------------------------------------------------
  free energy    TOTEN  =        -1.31055601 eV

  energy without entropy =       -1.31067191  energy(sigma->0) =       -1.31059464


--------------------------------------------------------------------------------------------------------




----------------------------------------- Iteration    1(   4)  ---------------------------------------


     EDDAV:  cpu time    1.23: real time    1.23
       DOS:  cpu time    0.00: real time    0.00
    --------------------------------------------
      LOOP:  cpu time    1.23: real time    1.25

 eigenvalue-minimisations  :  1428
 total energy-change (2. order) :-0.1460837E-02  (-0.1467096E-02)
 number of electron       5.0000000 magnetization       6.0000000
 augmentation part        5.0000000 magnetization       6.0000000

 Free energy of the ion-electron system (eV)
  ---------------------------------------------------
  alpha Z        PSCENC =        30.58334069
  Ewald energy   TEWEN  =      -197.90100875
  -1/2 Hartree   DENC   =        -2.50452612
  -exchange  EXHF       =         0.00000000
  -V(xc)+E(xc)   XCENC  =       -60.69825643
  PAW double counting   =       143.51874798      -69.33493833
  entropy T*S    EENTRO =         0.00008261
  eigenvalues    EBANDS =        24.37832670
  atomic energy  EATOM  =       130.64621481
  ---------------------------------------------------
  free energy    TOTEN  =        -1.31201685 eV

  energy without entropy =       -1.31209945  energy(sigma->0) =       -1.31204438


--------------------------------------------------------------------------------------------------------




----------------------------------------- Iteration    1(   5)  ---------------------------------------


     EDDAV:  cpu time    0.90: real time    0.90
       DOS:  cpu time    0.00: real time    0.00
    CHARGE:  cpu time    0.12: real time    0.12
    MIXING:  cpu time    0.00: real time    0.00
    --------------------------------------------
      LOOP:  cpu time    1.03: real time    1.04

 eigenvalue-minimisations  :   930
 total energy-change (2. order) :-0.7305487E-05  (-0.7305271E-05)
 number of electron       5.0000001 magnetization       1.9589069
 augmentation part        0.4534892 magnetization      -0.8458150

 Broyden mixing:
  rms(total) = 0.76829E+00    rms(broyden)= 0.76828E+00
  rms(prec ) = 0.98277E+00
  weight for this iteration     100.00

 Free energy of the ion-electron system (eV)
  ---------------------------------------------------
  alpha Z        PSCENC =        30.58334069
  Ewald energy   TEWEN  =      -197.90100875
  -1/2 Hartree   DENC   =        -2.50452612
  -exchange  EXHF       =         0.00000000
  -V(xc)+E(xc)   XCENC  =       -60.69825643
  PAW double counting   =       143.51874798      -69.33493833
  entropy T*S    EENTRO =         0.00008259
  eigenvalues    EBANDS =        24.37831941
  atomic energy  EATOM  =       130.64621481
  ---------------------------------------------------
  free energy    TOTEN  =        -1.31202415 eV

  energy without entropy =       -1.31210674  energy(sigma->0) =       -1.31205168


--------------------------------------------------------------------------------------------------------




----------------------------------------- Iteration    1(   6)  ---------------------------------------


    POTLOK:  cpu time    0.14: real time    0.14
    SETDIJ:  cpu time    0.03: real time    0.04
     EDDAV:  cpu time    1.01: real time    1.02
       DOS:  cpu time    0.00: real time    0.00
    CHARGE:  cpu time    0.11: real time    0.11
    MIXING:  cpu time    0.00: real time    0.00
    --------------------------------------------
      LOOP:  cpu time    1.30: real time    1.32

 eigenvalue-minimisations  :  1104
 total energy-change (2. order) :-0.1039095E+02  (-0.3435518E+00)
 number of electron       5.0000001 magnetization       1.7171550
 augmentation part        0.3681487 magnetization       1.0228034

 Broyden mixing:
  rms(total) = 0.38856E+00    rms(broyden)= 0.38855E+00
  rms(prec ) = 0.11399E+01
  weight for this iteration     100.00

 eigenvalues of (default mixing * dielectric matrix)
  average eigenvalue GAMMA=   1.4902
  1.4902

 Free energy of the ion-electron system (eV)
  ---------------------------------------------------
  alpha Z        PSCENC =        30.58334069
  Ewald energy   TEWEN  =      -197.90100875
  -1/2 Hartree   DENC   =        -1.98983945
  -exchange  EXHF       =         0.00000000
  -V(xc)+E(xc)   XCENC  =       -66.16602981
  PAW double counting   =       163.82919819      -89.88566208
  entropy T*S    EENTRO =         0.00016309
  eigenvalues    EBANDS =        19.18064517
  atomic energy  EATOM  =       130.64621481
  ---------------------------------------------------
  free energy    TOTEN  =       -11.70297815 eV

  energy without entropy =      -11.70314123  energy(sigma->0) =      -11.70303251


--------------------------------------------------------------------------------------------------------




----------------------------------------- Iteration    1(   7)  ---------------------------------------


    POTLOK:  cpu time    0.15: real time    0.15
    SETDIJ:  cpu time    0.04: real time    0.04
     EDDAV:  cpu time    1.10: real time    1.10
       DOS:  cpu time    0.00: real time    0.00
    CHARGE:  cpu time    0.11: real time    0.11
    MIXING:  cpu time    0.00: real time    0.00
    --------------------------------------------
      LOOP:  cpu time    1.40: real time    1.50

 eigenvalue-minimisations  :  1230
 total energy-change (2. order) :-0.7776713E-01  (-0.2690537E-02)
 number of electron       5.0000001 magnetization       1.4570174
 augmentation part        0.3685149 magnetization       0.8188433

 Broyden mixing:
  rms(total) = 0.34540E+00    rms(broyden)= 0.34540E+00
  rms(prec ) = 0.10688E+01
  weight for this iteration     100.00

 eigenvalues of (default mixing * dielectric matrix)
  average eigenvalue GAMMA=   1.0801
  1.0801  1.0801

 Free energy of the ion-electron system (eV)
  ---------------------------------------------------
  alpha Z        PSCENC =        30.58334069
  Ewald energy   TEWEN  =      -197.90100875
  -1/2 Hartree   DENC   =        -1.86879281
  -exchange  EXHF       =         0.00000000
  -V(xc)+E(xc)   XCENC  =       -66.22677943
  PAW double counting   =       165.93594283      -92.02843150
  entropy T*S    EENTRO =        -0.00011096
  eigenvalues    EBANDS =        19.07887982
  atomic energy  EATOM  =       130.64621481
  ---------------------------------------------------
  free energy    TOTEN  =       -11.78074528 eV

  energy without entropy =      -11.78063433  energy(sigma->0) =      -11.78070830


--------------------------------------------------------------------------------------------------------




----------------------------------------- Iteration    1(   8)  ---------------------------------------


    POTLOK:  cpu time    0.14: real time    0.14
    SETDIJ:  cpu time    0.04: real time    0.04
     EDDAV:  cpu time    1.04: real time    1.04
       DOS:  cpu time    0.00: real time    0.00
    CHARGE:  cpu time    0.11: real time    0.11
    MIXING:  cpu time    0.00: real time    0.00
    --------------------------------------------
      LOOP:  cpu time    1.34: real time    1.35

 eigenvalue-minimisations  :  1152
 total energy-change (2. order) : 0.4940978E-01  (-0.4117346E-01)
 number of electron       5.0000001 magnetization       0.4615674
 augmentation part        0.3919217 magnetization      -0.0369445

 Broyden mixing:
  rms(total) = 0.25400E+00    rms(broyden)= 0.25400E+00
  rms(prec ) = 0.41056E+00
  weight for this iteration     100.00

 eigenvalues of (default mixing * dielectric matrix)
  average eigenvalue GAMMA=   1.1264
  1.3598  1.3598  0.6596

 Free energy of the ion-electron system (eV)
  ---------------------------------------------------
  alpha Z        PSCENC =        30.58334069
  Ewald energy   TEWEN  =      -197.90100875
  -1/2 Hartree   DENC   =        -0.89781243
  -exchange  EXHF       =         0.00000000
  -V(xc)+E(xc)   XCENC  =       -65.97568731
  PAW double counting   =       175.99349735     -102.39547454
  entropy T*S    EENTRO =        -0.00013596
  eigenvalues    EBANDS =        18.21573063
  atomic energy  EATOM  =       130.64621481
  ---------------------------------------------------
  free energy    TOTEN  =       -11.73133550 eV

  energy without entropy =      -11.73119954  energy(sigma->0) =      -11.73129018


--------------------------------------------------------------------------------------------------------




----------------------------------------- Iteration    1(   9)  ---------------------------------------


    POTLOK:  cpu time    0.14: real time    0.14
    SETDIJ:  cpu time    0.04: real time    0.05
     EDDAV:  cpu time    1.09: real time    1.09
       DOS:  cpu time    0.00: real time    0.00
    CHARGE:  cpu time    0.11: real time    0.11
    MIXING:  cpu time    0.00: real time    0.00
    --------------------------------------------
      LOOP:  cpu time    1.38: real time    1.40

 eigenvalue-minimisations  :  1218
 total energy-change (2. order) :-0.1140746E+00  (-0.1093396E-01)
 number of electron       5.0000001 magnetization       0.1367208
 augmentation part        0.4029291 magnetization      -0.0286982

 Broyden mixing:
  rms(total) = 0.72105E-01    rms(broyden)= 0.72102E-01
  rms(prec ) = 0.82658E-01
  weight for this iteration     100.00

 eigenvalues of (default mixing * dielectric matrix)
  average eigenvalue GAMMA=   1.1522
  2.1298  0.9100  0.9100  0.6592

 Free energy of the ion-electron system (eV)
  ---------------------------------------------------
  alpha Z        PSCENC =        30.58334069
  Ewald energy   TEWEN  =      -197.90100875
  -1/2 Hartree   DENC   =        -0.57501852
  -exchange  EXHF       =         0.00000000
  -V(xc)+E(xc)   XCENC  =       -65.98381549
  PAW double counting   =       186.25010229     -112.78898974
  entropy T*S    EENTRO =        -0.00070021
  eigenvalues    EBANDS =        17.92446483
  atomic energy  EATOM  =       130.64621481
  ---------------------------------------------------
  free energy    TOTEN  =       -11.84541008 eV

  energy without entropy =      -11.84470987  energy(sigma->0) =      -11.84517668


--------------------------------------------------------------------------------------------------------




----------------------------------------- Iteration    1(  10)  ---------------------------------------


    POTLOK:  cpu time    0.14: real time    0.14
    SETDIJ:  cpu time    0.04: real time    0.04
     EDDAV:  cpu time    1.08: real time    1.08
       DOS:  cpu time    0.00: real time    0.00
    CHARGE:  cpu time    0.10: real time    0.10
    MIXING:  cpu time    0.00: real time    0.00
    --------------------------------------------
      LOOP:  cpu time    1.37: real time    1.38

 eigenvalue-minimisations  :  1212
 total energy-change (2. order) :-0.1636221E-01  (-0.2530033E-03)
 number of electron       5.0000001 magnetization       0.0780308
 augmentation part        0.4033287 magnetization       0.0136844

 Broyden mixing:
  rms(total) = 0.21350E-01    rms(broyden)= 0.21349E-01
  rms(prec ) = 0.48081E-01
  weight for this iteration     100.00

 eigenvalues of (default mixing * dielectric matrix)
  average eigenvalue GAMMA=   1.1121
  1.7365  1.2091  0.9858  0.9858  0.6432

 Free energy of the ion-electron system (eV)
  ---------------------------------------------------
  alpha Z        PSCENC =        30.58334069
  Ewald energy   TEWEN  =      -197.90100875
  -1/2 Hartree   DENC   =        -0.55431314
  -exchange  EXHF       =         0.00000000
  -V(xc)+E(xc)   XCENC  =       -65.98553100
  PAW double counting   =       188.86918883     -115.42917102
  entropy T*S    EENTRO =        -0.00049346
  eigenvalues    EBANDS =        17.91000075
  atomic energy  EATOM  =       130.64621481
  ---------------------------------------------------
  free energy    TOTEN  =       -11.86177229 eV

  energy without entropy =      -11.86127883  energy(sigma->0) =      -11.86160780


--------------------------------------------------------------------------------------------------------




----------------------------------------- Iteration    1(  11)  ---------------------------------------


    POTLOK:  cpu time    0.14: real time    0.14
    SETDIJ:  cpu time    0.03: real time    0.04
     EDDAV:  cpu time    1.05: real time    1.05
       DOS:  cpu time    0.00: real time    0.00
    CHARGE:  cpu time    0.10: real time    0.10
    MIXING:  cpu time    0.00: real time    0.00
    --------------------------------------------
      LOOP:  cpu time    1.33: real time    1.34

 eigenvalue-minimisations  :  1164
 total energy-change (2. order) :-0.1314392E-02  (-0.5940618E-03)
 number of electron       5.0000001 magnetization      -0.0003520
 augmentation part        0.4000108 magnetization      -0.0331379

 Broyden mixing:
  rms(total) = 0.16776E-01    rms(broyden)= 0.16775E-01
  rms(prec ) = 0.57488E-01
  weight for this iteration     100.00

 eigenvalues of (default mixing * dielectric matrix)
  average eigenvalue GAMMA=   1.2310
  1.9894  1.9894  1.0057  1.0057  0.7625  0.6332

 Free energy of the ion-electron system (eV)
  ---------------------------------------------------
  alpha Z        PSCENC =        30.58334069
  Ewald energy   TEWEN  =      -197.90100875
  -1/2 Hartree   DENC   =        -0.63700360
  -exchange  EXHF       =         0.00000000
  -V(xc)+E(xc)   XCENC  =       -66.03110638
  PAW double counting   =       191.33359591     -117.88490851
  entropy T*S    EENTRO =         0.00020325
  eigenvalues    EBANDS =        18.02758589
  atomic energy  EATOM  =       130.64621481
  ---------------------------------------------------
  free energy    TOTEN  =       -11.86308668 eV

  energy without entropy =      -11.86328993  energy(sigma->0) =      -11.86315443


--------------------------------------------------------------------------------------------------------




----------------------------------------- Iteration    1(  12)  ---------------------------------------


    POTLOK:  cpu time    0.14: real time    0.14
    SETDIJ:  cpu time    0.03: real time    0.04
     EDDAV:  cpu time    1.03: real time    1.03
       DOS:  cpu time    0.00: real time    0.00
    CHARGE:  cpu time    0.10: real time    0.10
    MIXING:  cpu time    0.00: real time    0.00
    --------------------------------------------
      LOOP:  cpu time    1.31: real time    1.33

 eigenvalue-minimisations  :  1134
 total energy-change (2. order) : 0.5282350E-04  (-0.1366884E-03)
 number of electron       5.0000001 magnetization      -0.0110287
 augmentation part        0.4016810 magnetization      -0.0105842

 Broyden mixing:
  rms(total) = 0.30646E-02    rms(broyden)= 0.30637E-02
  rms(prec ) = 0.12668E-01
  weight for this iteration     100.00

 eigenvalues of (default mixing * dielectric matrix)
  average eigenvalue GAMMA=   1.1960
  2.2171  1.7187  1.1017  0.9918  0.9918  0.6336  0.7174

 Free energy of the ion-electron system (eV)
  ---------------------------------------------------
  alpha Z        PSCENC =        30.58334069
  Ewald energy   TEWEN  =      -197.90100875
  -1/2 Hartree   DENC   =        -0.60002821
  -exchange  EXHF       =         0.00000000
  -V(xc)+E(xc)   XCENC  =       -66.00855238
  PAW double counting   =       193.13576679     -119.70701360
  entropy T*S    EENTRO =         0.00060124
  eigenvalues    EBANDS =        17.98764555
  atomic energy  EATOM  =       130.64621481
  ---------------------------------------------------
  free energy    TOTEN  =       -11.86303386 eV

  energy without entropy =      -11.86363510  energy(sigma->0) =      -11.86323427


--------------------------------------------------------------------------------------------------------




----------------------------------------- Iteration    1(  13)  ---------------------------------------


    POTLOK:  cpu time    0.14: real time    0.14
    SETDIJ:  cpu time    0.03: real time    0.04
     EDDAV:  cpu time    0.70: real time    0.70
       DOS:  cpu time    0.00: real time    0.00
    --------------------------------------------
      LOOP:  cpu time    0.87: real time    0.89

 eigenvalue-minimisations  :   612
 total energy-change (2. order) : 0.4592967E-04  (-0.1027657E-04)
 number of electron       5.0000001 magnetization      -0.0110287
 augmentation part        0.4016810 magnetization      -0.0105842

 Free energy of the ion-electron system (eV)
  ---------------------------------------------------
  alpha Z        PSCENC =        30.58334069
  Ewald energy   TEWEN  =      -197.90100875
  -1/2 Hartree   DENC   =        -0.58996739
  -exchange  EXHF       =         0.00000000
  -V(xc)+E(xc)   XCENC  =       -66.00218052
  PAW double counting   =       193.56217439     -120.13778600
  entropy T*S    EENTRO =         0.00061545
  eigenvalues    EBANDS =        17.97560940
  atomic energy  EATOM  =       130.64621481
  ---------------------------------------------------
  free energy    TOTEN  =       -11.86298793 eV

  energy without entropy =      -11.86360338  energy(sigma->0) =      -11.86319308


--------------------------------------------------------------------------------------------------------




 average (electrostatic) potential at core
  the test charge radii are     1.2538
  (the norm of the test charge is              1.0000)
       1 -35.0277
 
 
 
 E-fermi :   5.6738     XC(G=0): -12.3695     alpha+bet :-13.5035


 spin component 1

 k-point   1 :       0.0500    0.0500    0.0500
  band No.  band energies     occupation 
      1      -1.5429      1.00000
      2       6.0915      0.00000
      3       6.0915      0.00000
      4       7.2066      0.00000
      5       9.4467      0.00000
      6       9.4467      0.00000

 k-point   2 :       0.1500    0.0500    0.0500
  band No.  band energies     occupation 
      1      -0.4203      1.00000
      2       5.4182      1.00000
      3       5.6017      1.03015
      4       8.5552      0.00000
      5       9.1305      0.00000
      6       9.7144      0.00000

 k-point   3 :       0.2500    0.0500    0.0500
  band No.  band energies     occupation 
      1       0.9055      1.00000
      2       4.7613      1.00000
      3       5.3003      1.00000
      4       9.3493      0.00000
      5      10.0420      0.00000
      6      10.5278      0.00000

 k-point   4 :       0.3500    0.0500    0.0500
  band No.  band energies     occupation 
      1       1.5343      1.00000
      2       4.3117      1.00000
      3       6.1119      0.00000
      4       9.6718      0.00000
      5      10.4054      0.00000
      6      12.6629      0.00000

 k-point   5 :       0.4500    0.0500    0.0500
  band No.  band energies     occupation 
      1       1.5917      1.00000
      2       4.1535      1.00000
      3       6.9877      0.00000
      4       9.6532      0.00000
      5      10.5897      0.00000
      6      13.8083      0.00000

 k-point   6 :      -0.0500    0.0500    0.0500
  band No.  band energies     occupation 
      1      -1.9587      1.00000
      2       6.4098      0.00000
      3       6.4098      0.00000
      4       6.5478      0.00000
      5       9.3109      0.00000
      6       9.8074      0.00000

 k-point   7 :       0.1500    0.1500    0.0500
  band No.  band energies     occupation 
      1       0.8500      1.00000
      2       4.8726      1.00000
      3       4.9450      1.00000
      4       9.2058      0.00000
      5      10.0876      0.00000
      6      10.4523      0.00000

 k-point   8 :       0.2500    0.1500    0.0500
  band No.  band energies     occupation 
      1       2.0162      1.00000
      2       4.4010      1.00000
      3       4.9779      1.00000
      4       9.5066      0.00000
      5      10.4298      0.00000
      6      12.6777      0.00000

 k-point   9 :       0.3500    0.1500    0.0500
  band No.  band energies     occupation 
      1       2.2943      1.00000
      2       4.1866      1.00000
      3       5.9429      0.00000
      4       9.7588      0.00000
      5      10.6310      0.00000
      6      14.5306      0.00000

 k-point  10 :      -0.1500    0.1500    0.0500
  band No.  band energies     occupation 
      1      -1.1424      1.00000
      2       5.9562      0.00000
      3       6.1847      0.00000
      4       7.3601      0.00000
      5       8.6290      0.00000
      6       9.9897      0.00000

 k-point  11 :       0.2500    0.2500    0.0500
  band No.  band energies     occupation 
      1       2.9354      1.00000
      2       4.2957      1.00000
      3       5.0139      1.00000
      4       9.8208      0.00000
      5      10.5280      0.00000
      6      14.9612      0.00000

 k-point  12 :       0.3500    0.2500    0.0500
  band No.  band energies     occupation 
      1       3.1164      1.00000
      2       4.3798      1.00000
      3       5.2547      1.00000
      4      10.0602      0.00000
      5      10.5726      0.00000
      6      14.3857      0.00000

 k-point  13 :      -0.2500    0.2500    0.0500
  band No.  band energies     occupation 
      1       0.1790      1.00000
      2       5.2678      1.00000
      3       5.6133      1.03542
      4       8.6541      0.00000
      5       8.9732      0.00000
      6      10.1858      0.00000

 k-point  14 :      -0.1500    0.2500    0.0500
  band No.  band energies     occupation 
      1      -0.0602      1.00000
      2       5.6310      1.00309
      3       5.7020      0.09702
      4       8.0713      0.00000
      5       8.4795      0.00000
      6      10.3888      0.00000

 k-point  15 :      -0.3500    0.3500    0.0500
  band No.  band energies     occupation 
      1       1.2166      1.00000
      2       4.6731      1.00000
      3       5.6967      0.15384
      4       9.1870      0.00000
      5      10.4133      0.00000
      6      11.1091      0.00000

 k-point  16 :      -0.2500    0.3500    0.0500
  band No.  band energies     occupation 
      1       1.2431      1.00000
      2       4.9209      1.00000
      3       5.3529      1.00000
      4       8.3733      0.00000
      5      10.3075      0.00000
      6      10.6919      0.00000

 k-point  17 :      -0.4500    0.4500    0.0500
  band No.  band energies     occupation 
      1       1.4595      1.00000
      2       4.3410      1.00000
      3       6.6995      0.00000
      4       9.3460      0.00000
      5      10.7826      0.00000
      6      13.0557      0.00000

 k-point  18 :      -0.3500    0.4500    0.0500
  band No.  band energies     occupation 
      1       1.8994      1.00000
      2       4.6191      1.00000
      3       5.6000      1.02867
      4       8.9126      0.00000
      5      10.7265      0.00000
      6      12.6964      0.00000

 k-point  19 :      -0.2500    0.4500    0.0500
  band No.  band energies     occupation 
      1       2.3660      1.00000
      2       4.3257      1.00000
      3       5.3590      1.00000
      4       8.6799      0.00000
      5      10.4322      0.00000
      6      12.7679      0.00000

 k-point  20 :      -0.4500   -0.4500    0.0500
  band No.  band energies     occupation 
      1       1.9552      1.00000
      2       4.5176      1.00000
      3       6.0938      0.00000
      4       8.8663      0.00000
      5      11.2348      0.00000
      6      13.9479      0.00000

 k-point  21 :      -0.3500   -0.4500    0.0500
  band No.  band energies     occupation 
      1       2.8359      1.00000
      2       4.3837      1.00000
      3       5.2236      1.00000
      4       9.1487      0.00000
      5      10.6530      0.00000
      6      15.0579      0.00000

 k-point  22 :      -0.3500   -0.3500    0.0500
  band No.  band energies     occupation 
      1       3.4956      1.00000
      2       4.4814      1.00000
      3       4.4814      1.00000
      4      10.1112      0.00000
      5      10.1112      0.00000
      6      14.6766      0.00000

 k-point  23 :       0.1500    0.1500    0.1500
  band No.  band energies     occupation 
      1       2.2364      1.00000
      2       4.3883      1.00000
      3       4.3883      1.00000
      4      10.0545      0.00000
      5      10.0545      0.00000
      6      12.7854      0.00000

 k-point  24 :       0.2500    0.1500    0.1500
  band No.  band energies     occupation 
      1       3.1438      1.00000
      2       4.1426      1.00000
      3       4.7865      1.00000
      4      10.2212      0.00000
      5      10.5317      0.00000
      6      14.9723      0.00000

 k-point  25 :       0.3500    0.1500    0.1500
  band No.  band energies     occupation 
      1       3.1515      1.00000
      2       4.0704      1.00000
      3       5.6089      1.03470
      4      10.2811      0.00000
      5      10.6834      0.00000
      6      14.3718      0.00000

 k-point  26 :      -0.1500    0.1500    0.1500
  band No.  band energies     occupation 
      1      -0.3652      1.00000
      2       6.3675      0.00000
      3       6.3675      0.00000
      4       7.1718      0.00000
      5       7.3663      0.00000
      6      10.5850      0.00000

 k-point  27 :       0.2500    0.2500    0.1500
  band No.  band energies     occupation 
      1       3.7453      1.00000
      2       4.4057      1.00000
      3       4.8345      1.00000
      4      10.5347      0.00000
      5      10.6642      0.00000
      6      13.6638      0.00000

 k-point  28 :      -0.2500    0.2500    0.1500
  band No.  band energies     occupation 
      1       0.8972      1.00000
      2       5.5161      1.00004
      3       6.0100      0.00000
      4       7.2380      0.00000
      5       8.7270      0.00000
      6      10.7892      0.00000

 k-point  29 :      -0.3500    0.3500    0.1500
  band No.  band energies     occupation 
      1       1.9416      1.00000
      2       4.8910      1.00000
      3       5.5023      1.00001
      4       8.0419      0.00000
      5      10.8540      0.00000
      6      10.8930      0.00000

 k-point  30 :      -0.2500    0.3500    0.1500
  band No.  band energies     occupation 
      1       2.0664      1.00000
      2       4.5722      1.00000
      3       6.1442      0.00000
      4       7.5198      0.00000
      5       9.9842      0.00000
      6      10.9541      0.00000

 k-point  31 :      -0.4500    0.4500    0.1500
  band No.  band energies     occupation 
      1       2.1646      1.00000
      2       5.2038      1.00000
      3       5.2617      1.00000
      4       8.0169      0.00000
      5      11.9911      0.00000
      6      12.8532      0.00000

 k-point  32 :      -0.3500    0.4500    0.1500
  band No.  band energies     occupation 
      1       2.7714      1.00000
      2       4.1876      1.00000
      3       5.7459     -0.03018
      4       8.1543      0.00000
      5      10.7233      0.00000
      6      12.9121      0.00000

 k-point  33 :      -0.4500   -0.4500    0.1500
  band No.  band energies     occupation 
      1       2.7833      1.00000
      2       4.5660      1.00000
      3       5.2989      1.00000
      4       8.1488      0.00000
      5      11.7593      0.00000
      6      14.5669      0.00000

 k-point  34 :      -0.3500   -0.4500    0.1500
  band No.  band energies     occupation 
      1       3.6515      1.00000
      2       3.7129      1.00000
      3       4.9751      1.00000
      4       9.4170      0.00000
      5      10.5857      0.00000
      6      15.3714      0.00000

 k-point  35 :       0.2500    0.2500    0.2500
  band No.  band energies     occupation 
      1       4.4754      1.00000
      2       4.4754      1.00000
      3       4.4754      1.00000
      4      10.7426      0.00000
      5      10.7426      0.00000
      6      12.7486      0.00000

 k-point  36 :      -0.2500    0.2500    0.2500
  band No.  band energies     occupation 
      1       1.9737      1.00000
      2       4.7887      1.00000
      3       6.9574      0.00000
      4       6.9574      0.00000
      5       8.8854      0.00000
      6      10.6877      0.00000

 k-point  37 :      -0.3500    0.3500    0.2500
  band No.  band energies     occupation 
      1       2.7964      1.00000
      2       3.8591      1.00000
      3       7.0178      0.00000
      4       7.6086      0.00000
      5      10.5482      0.00000
      6      10.8382      0.00000

 k-point  38 :      -0.4500    0.4500    0.2500
  band No.  band energies     occupation 
      1       2.8314      1.00000
      2       3.7729      1.00000
      3       6.8478      0.00000
      4       7.4923      0.00000
      5      12.5435      0.00000
      6      12.8268      0.00000

 k-point  39 :      -0.3500    0.4500    0.2500
  band No.  band energies     occupation 
      1       3.1226      1.00000
      2       3.1852      1.00000
      3       6.8599      0.00000
      4       8.8360      0.00000
      5      10.8185      0.00000
      6      12.9303      0.00000

 k-point  40 :      -0.4500   -0.4500    0.2500
  band No.  band energies     occupation 
      1       2.9135      1.00000
      2       3.2375      1.00000
      3       6.5826      0.00000
      4       9.3517      0.00000
      5      11.6624      0.00000
      6      15.2736      0.00000

 k-point  41 :      -0.3500    0.3500    0.3500
  band No.  band energies     occupation 
      1       2.9000      1.00000
      2       2.9996      1.00000
      3       8.6151      0.00000
      4       8.6151      0.00000
      5      10.7696      0.00000
      6      10.9478      0.00000

 k-point  42 :      -0.4500    0.4500    0.3500
  band No.  band energies     occupation 
      1       2.5204      1.00000
      2       2.6828      1.00000
      3       9.0799      0.00000
      4       9.0866      0.00000
      5      12.2627      0.00000
      6      13.0745      0.00000

 k-point  43 :      -0.4500   -0.4500    0.3500
  band No.  band energies     occupation 
      1       2.3667      1.00000
      2       2.3667      1.00000
      3       9.0120      0.00000
      4      11.4402      0.00000
      5      11.4402      0.00000
      6      15.5825      0.00000

 k-point  44 :      -0.4500    0.4500    0.4500
  band No.  band energies     occupation 
      1       2.0646      1.00000
      2       2.1116      1.00000
      3      11.3441      0.00000
      4      11.3441      0.00000
      5      12.2513      0.00000
      6      13.5561      0.00000

 spin component 2

 k-point   1 :       0.0500    0.0500    0.0500
  band No.  band energies     occupation 
      1      -1.5509      1.00000
      2       6.0841      0.00000
      3       6.0841      0.00000
      4       7.1992      0.00000
      5       9.4414      0.00000
      6       9.4414      0.00000

 k-point   2 :       0.1500    0.0500    0.0500
  band No.  band energies     occupation 
      1      -0.4282      1.00000
      2       5.4107      1.00000
      3       5.5944      1.02361
      4       8.5480      0.00000
      5       9.1248      0.00000
      6       9.7090      0.00000

 k-point   3 :       0.2500    0.0500    0.0500
  band No.  band energies     occupation 
      1       0.8976      1.00000
      2       4.7538      1.00000
      3       5.2931      1.00000
      4       9.3435      0.00000
      5      10.0367      0.00000
      6      10.5210      0.00000

 k-point   4 :       0.3500    0.0500    0.0500
  band No.  band energies     occupation 
      1       1.5266      1.00000
      2       4.3042      1.00000
      3       6.1046      0.00000
      4       9.6660      0.00000
      5      10.4003      0.00000
      6      12.6566      0.00000

 k-point   5 :       0.4500    0.0500    0.0500
  band No.  band energies     occupation 
      1       1.5842      1.00000
      2       4.1459      1.00000
      3       6.9803      0.00000
      4       9.6474      0.00000
      5      10.5847      0.00000
      6      13.8025      0.00000

 k-point   6 :      -0.0500    0.0500    0.0500
  band No.  band energies     occupation 
      1      -1.9667      1.00000
      2       6.4023      0.00000
      3       6.4023      0.00000
      4       6.5404      0.00000
      5       9.3055      0.00000
      6       9.8022      0.00000

 k-point   7 :       0.1500    0.1500    0.0500
  band No.  band energies     occupation 
      1       0.8421      1.00000
      2       4.8653      1.00000
      3       4.9375      1.00000
      4       9.2000      0.00000
      5      10.0824      0.00000
      6      10.4454      0.00000

 k-point   8 :       0.2500    0.1500    0.0500
  band No.  band energies     occupation 
      1       2.0085      1.00000
      2       4.3936      1.00000
      3       4.9705      1.00000
      4       9.5008      0.00000
      5      10.4246      0.00000
      6      12.6712      0.00000

 k-point   9 :       0.3500    0.1500    0.0500
  band No.  band energies     occupation 
      1       2.2868      1.00000
      2       4.1790      1.00000
      3       5.9357      0.00000
      4       9.7531      0.00000
      5      10.6259      0.00000
      6      14.5245      0.00000

 k-point  10 :      -0.1500    0.1500    0.0500
  band No.  band energies     occupation 
      1      -1.1503      1.00000
      2       5.9487      0.00000
      3       6.1773      0.00000
      4       7.3528      0.00000
      5       8.6233      0.00000
      6       9.9845      0.00000

 k-point  11 :       0.2500    0.2500    0.0500
  band No.  band energies     occupation 
      1       2.9277      1.00000
      2       4.2885      1.00000
      3       5.0065      1.00000
      4       9.8150      0.00000
      5      10.5227      0.00000
      6      14.9550      0.00000

 k-point  12 :       0.3500    0.2500    0.0500
  band No.  band energies     occupation 
      1       3.1088      1.00000
      2       4.3725      1.00000
      3       5.2475      1.00000
      4      10.0546      0.00000
      5      10.5672      0.00000
      6      14.3779      0.00000

 k-point  13 :      -0.2500    0.2500    0.0500
  band No.  band energies     occupation 
      1       0.1712      1.00000
      2       5.2602      1.00000
      3       5.6062      1.03337
      4       8.6481      0.00000
      5       8.9661      0.00000
      6      10.1806      0.00000

 k-point  14 :      -0.1500    0.2500    0.0500
  band No.  band energies     occupation 
      1      -0.0681      1.00000
      2       5.6238      1.02513
      3       5.6945      0.18092
      4       8.0652      0.00000
      5       8.4723      0.00000
      6      10.3837      0.00000

 k-point  15 :      -0.3500    0.3500    0.0500
  band No.  band energies     occupation 
      1       1.2089      1.00000
      2       4.6655      1.00000
      3       5.6896      0.24646
      4       9.1808      0.00000
      5      10.4081      0.00000
      6      11.1025      0.00000

 k-point  16 :      -0.2500    0.3500    0.0500
  band No.  band energies     occupation 
      1       1.2353      1.00000
      2       4.9138      1.00000
      3       5.3455      1.00000
      4       8.3670      0.00000
      5      10.3010      0.00000
      6      10.6864      0.00000

 k-point  17 :      -0.4500    0.4500    0.0500
  band No.  band energies     occupation 
      1       1.4519      1.00000
      2       4.3334      1.00000
      3       6.6923      0.00000
      4       9.3400      0.00000
      5      10.7774      0.00000
      6      13.0497      0.00000

 k-point  18 :      -0.3500    0.4500    0.0500
  band No.  band energies     occupation 
      1       1.8919      1.00000
      2       4.6117      1.00000
      3       5.5929      1.02223
      4       8.9063      0.00000
      5      10.7210      0.00000
      6      12.6902      0.00000

 k-point  19 :      -0.2500    0.4500    0.0500
  band No.  band energies     occupation 
      1       2.3583      1.00000
      2       4.3187      1.00000
      3       5.3516      1.00000
      4       8.6735      0.00000
      5      10.4266      0.00000
      6      12.7616      0.00000

 k-point  20 :      -0.4500   -0.4500    0.0500
  band No.  band energies     occupation 
      1       1.9478      1.00000
      2       4.5101      1.00000
      3       6.0868      0.00000
      4       8.8601      0.00000
      5      11.2291      0.00000
      6      13.9421      0.00000

 k-point  21 :      -0.3500   -0.4500    0.0500
  band No.  band energies     occupation 
      1       2.8284      1.00000
      2       4.3766      1.00000
      3       5.2166      1.00000
      4       9.1424      0.00000
      5      10.6471      0.00000
      6      15.0519      0.00000

 k-point  22 :      -0.3500   -0.3500    0.0500
  band No.  band energies     occupation 
      1       3.4878      1.00000
      2       4.4745      1.00000
      3       4.4745      1.00000
      4      10.1051      0.00000
      5      10.1051      0.00000
      6      14.6689      0.00000

 k-point  23 :       0.1500    0.1500    0.1500
  band No.  band energies     occupation 
      1       2.2286      1.00000
      2       4.3809      1.00000
      3       4.3809      1.00000
      4      10.0492      0.00000
      5      10.0492      0.00000
      6      12.7789      0.00000

 k-point  24 :       0.2500    0.1500    0.1500
  band No.  band energies     occupation 
      1       3.1362      1.00000
      2       4.1350      1.00000
      3       4.7791      1.00000
      4      10.2158      0.00000
      5      10.5266      0.00000
      6      14.9660      0.00000

 k-point  25 :       0.3500    0.1500    0.1500
  band No.  band energies     occupation 
      1       3.1440      1.00000
      2       4.0629      1.00000
      3       5.6015      1.02998
      4      10.2757      0.00000
      5      10.6784      0.00000
      6      14.3639      0.00000

 k-point  26 :      -0.1500    0.1500    0.1500
  band No.  band energies     occupation 
      1      -0.3731      1.00000
      2       6.3600      0.00000
      3       6.3600      0.00000
      4       7.1659      0.00000
      5       7.3590      0.00000
      6      10.5800      0.00000

 k-point  27 :       0.2500    0.2500    0.1500
  band No.  band energies     occupation 
      1       3.7377      1.00000
      2       4.3984      1.00000
      3       4.8271      1.00000
      4      10.5296      0.00000
      5      10.6592      0.00000
      6      13.6557      0.00000

 k-point  28 :      -0.2500    0.2500    0.1500
  band No.  band energies     occupation 
      1       0.8895      1.00000
      2       5.5094      1.00002
      3       6.0025      0.00000
      4       7.2312      0.00000
      5       8.7199      0.00000
      6      10.7840      0.00000

 k-point  29 :      -0.3500    0.3500    0.1500
  band No.  band energies     occupation 
      1       1.9341      1.00000
      2       4.8843      1.00000
      3       5.4949      1.00000
      4       8.0352      0.00000
      5      10.8473      0.00000
      6      10.8874      0.00000

 k-point  30 :      -0.2500    0.3500    0.1500
  band No.  band energies     occupation 
      1       2.0589      1.00000
      2       4.5656      1.00000
      3       6.1368      0.00000
      4       7.5129      0.00000
      5       9.9776      0.00000
      6      10.9483      0.00000

 k-point  31 :      -0.4500    0.4500    0.1500
  band No.  band energies     occupation 
      1       2.1572      1.00000
      2       5.1963      1.00000
      3       5.2550      1.00000
      4       8.0104      0.00000
      5      11.9850      0.00000
      6      12.8472      0.00000

 k-point  32 :      -0.3500    0.4500    0.1500
  band No.  band energies     occupation 
      1       2.7641      1.00000
      2       4.1809      1.00000
      3       5.7386     -0.03477
      4       8.1475      0.00000
      5      10.7170      0.00000
      6      12.9058      0.00000

 k-point  33 :      -0.4500   -0.4500    0.1500
  band No.  band energies     occupation 
      1       2.7762      1.00000
      2       4.5594      1.00000
      3       5.2915      1.00000
      4       8.1420      0.00000
      5      11.7530      0.00000
      6      14.5607      0.00000

 k-point  34 :      -0.3500   -0.4500    0.1500
  band No.  band energies     occupation 
      1       3.6445      1.00000
      2       3.7063      1.00000
      3       4.9678      1.00000
      4       9.4103      0.00000
      5      10.5791      0.00000
      6      15.3650      0.00000

 k-point  35 :       0.2500    0.2500    0.2500
  band No.  band energies     occupation 
      1       4.4679      1.00000
      2       4.4679      1.00000
      3       4.4679      1.00000
      4      10.7377      0.00000
      5      10.7377      0.00000
      6      12.7402      0.00000

 k-point  36 :      -0.2500    0.2500    0.2500
  band No.  band energies     occupation 
      1       1.9662      1.00000
      2       4.7824      1.00000
      3       6.9501      0.00000
      4       6.9501      0.00000
      5       8.8783      0.00000
      6      10.6821      0.00000

 k-point  37 :      -0.3500    0.3500    0.2500
  band No.  band energies     occupation 
      1       2.7893      1.00000
      2       3.8526      1.00000
      3       7.0105      0.00000
      4       7.6015      0.00000
      5      10.5415      0.00000
      6      10.8317      0.00000

 k-point  38 :      -0.4500    0.4500    0.2500
  band No.  band energies     occupation 
      1       2.8246      1.00000
      2       3.7663      1.00000
      3       6.8405      0.00000
      4       7.4852      0.00000
      5      12.5374      0.00000
      6      12.8198      0.00000

 k-point  39 :      -0.3500    0.4500    0.2500
  band No.  band energies     occupation 
      1       3.1158      1.00000
      2       3.1787      1.00000
      3       6.8526      0.00000
      4       8.8290      0.00000
      5      10.8116      0.00000
      6      12.9237      0.00000

 k-point  40 :      -0.4500   -0.4500    0.2500
  band No.  band energies     occupation 
      1       2.9069      1.00000
      2       3.2310      1.00000
      3       6.5751      0.00000
      4       9.3447      0.00000
      5      11.6559      0.00000
      6      15.2667      0.00000

 k-point  41 :      -0.3500    0.3500    0.3500
  band No.  band energies     occupation 
      1       2.8933      1.00000
      2       2.9932      1.00000
      3       8.6080      0.00000
      4       8.6080      0.00000
      5      10.7630      0.00000
      6      10.9405      0.00000

 k-point  42 :      -0.4500    0.4500    0.3500
  band No.  band energies     occupation 
      1       2.5139      1.00000
      2       2.6763      1.00000
      3       9.0727      0.00000
      4       9.0795      0.00000
      5      12.2566      0.00000
      6      13.0669      0.00000

 k-point  43 :      -0.4500   -0.4500    0.3500
  band No.  band energies     occupation 
      1       2.3601      1.00000
      2       2.3601      1.00000
      3       9.0048      0.00000
      4      11.4336      0.00000
      5      11.4336      0.00000
      6      15.5751      0.00000

 k-point  44 :      -0.4500    0.4500    0.4500
  band No.  band energies     occupation 
      1       2.0581      1.00000
      2       2.1050      1.00000
      3      11.3374      0.00000
      4      11.3374      0.00000
      5      12.2453      0.00000
      6      13.5481      0.00000


--------------------------------------------------------------------------------------------------------


 soft charge-density along one line, spin component           1
         0         1         2         3         4         5         6         7         8         9
 total charge-density along one line
 
 soft charge-density along one line, spin component           2
         0         1         2         3         4         5         6         7         8         9
 total charge-density along one line
 
 pseudopotential strength for first ion, spin component:           1
 -6.575   0.000   0.003   0.000   0.002   0.090   0.000   0.000
  0.000  -6.573   0.000   0.003   0.000   0.000   0.089   0.000
  0.003   0.000  -6.572   0.000  -0.001   0.000   0.000   0.089
  0.000   0.003   0.000  -6.575   0.000   0.000   0.000   0.000
  0.002   0.000  -0.001   0.000  -6.571   0.000   0.000   0.000
  0.090   0.000   0.000   0.000   0.000   0.071   0.000   0.000
  0.000   0.089   0.000   0.000   0.000   0.000   0.071   0.000
  0.000   0.000   0.089   0.000   0.000   0.000   0.000   0.071
  0.000   0.000   0.000   0.090   0.000   0.000   0.000   0.000
  0.000   0.000   0.000   0.000   0.089   0.000   0.000   0.000
  0.000   0.000   0.000   0.000   0.000   0.000   0.000   0.000
  0.000   0.000   0.000   0.000   0.000   0.000   0.000   0.000
  0.000   0.000   0.000   0.000   0.000   0.000   0.000   0.000
  0.000   0.000   0.000   0.000   0.000   0.000   0.000   0.000
  0.000   0.000   0.000   0.000   0.000   0.000   0.000   0.000
  0.000   0.000   0.000   0.000   0.000   0.000   0.000   0.000
  0.000   0.000   0.000   0.000   0.000   0.000   0.000   0.000
  0.000   0.000   0.000   0.000   0.000   0.000   0.000   0.000
 pseudopotential strength for first ion, spin component:           2
 -6.575   0.000   0.003   0.000   0.001   0.089   0.000   0.000
  0.000  -6.573   0.000   0.003   0.000   0.000   0.089   0.000
  0.003   0.000  -6.572   0.000  -0.001   0.000   0.000   0.089
  0.000   0.003   0.000  -6.575   0.000   0.000   0.000   0.000
  0.001   0.000  -0.001   0.000  -6.571   0.000   0.000   0.000
  0.089   0.000   0.000   0.000   0.000   0.071   0.000   0.000
  0.000   0.089   0.000   0.000   0.000   0.000   0.071   0.000
  0.000   0.000   0.089   0.000   0.000   0.000   0.000   0.071
  0.000   0.000   0.000   0.089   0.000   0.000   0.000   0.000
  0.000   0.000   0.000   0.000   0.089   0.000   0.000   0.000
  0.000   0.000   0.000   0.000   0.000   0.000   0.000   0.000
  0.000   0.000   0.000   0.000   0.000   0.000   0.000   0.000
  0.000   0.000   0.000   0.000   0.000   0.000   0.000   0.000
  0.000   0.000   0.000   0.000   0.000   0.000   0.000   0.000
  0.000   0.000   0.000   0.000   0.000   0.000   0.000   0.000
  0.000   0.000   0.000   0.000   0.000   0.000   0.000   0.000
  0.000   0.000   0.000   0.000   0.000   0.000   0.000   0.000
  0.000   0.000   0.000   0.000   0.000   0.000   0.000   0.000
 total augmentation occupancy for first ion, spin component:           1
  0.641   0.000   0.079   0.000   0.046  -0.520   0.000  -0.020   0.000  -0.012   0.000   0.000   0.000   0.000   0.000   0.000
  0.000   0.706   0.000   0.091   0.000   0.000  -0.537   0.000  -0.023   0.000   0.000   0.000   0.000   0.000   0.000   0.000
  0.079   0.000   0.722   0.000  -0.028  -0.020   0.000  -0.541   0.000   0.007   0.000   0.000   0.000   0.000   0.000   0.000
  0.000   0.091   0.000   0.641   0.000   0.000  -0.023   0.000  -0.520   0.000   0.000   0.000   0.000   0.000   0.000   0.000
  0.046   0.000  -0.028   0.000   0.754  -0.012   0.000   0.007   0.000  -0.549   0.000   0.000   0.000   0.000   0.000   0.000
 -0.520   0.000  -0.020   0.000  -0.012   0.467   0.000  -0.014   0.000  -0.008   0.000   0.000   0.000   0.000   0.000   0.000
  0.000  -0.537   0.000  -0.023   0.000   0.000   0.455   0.000  -0.017   0.000   0.000   0.000   0.000   0.000   0.000   0.000
 -0.020   0.000  -0.541   0.000   0.007  -0.014   0.000   0.452   0.000   0.005   0.000   0.000   0.000   0.000   0.000   0.000
  0.000  -0.023   0.000  -0.520   0.000   0.000  -0.017   0.000   0.467   0.000   0.000   0.000   0.000   0.000   0.000   0.000
 -0.012   0.000   0.007   0.000  -0.549  -0.008   0.000   0.005   0.000   0.446   0.000   0.000   0.000   0.000   0.000   0.000
  0.000   0.000   0.000   0.000   0.000   0.000   0.000   0.000   0.000   0.000   1.402  -0.278   0.000   0.000   0.000   0.000
  0.000   0.000   0.000   0.000   0.000   0.000   0.000   0.000   0.000   0.000  -0.278   0.059   0.000   0.000   0.000   0.000
  0.000   0.000   0.000   0.000   0.000   0.000   0.000   0.000   0.000   0.000   0.000   0.000   0.300   0.000   0.000   0.012
  0.000   0.000   0.000   0.000   0.000   0.000   0.000   0.000   0.000   0.000   0.000   0.000   0.000   0.300   0.000   0.000
  0.000   0.000   0.000   0.000   0.000   0.000   0.000   0.000   0.000   0.000   0.000   0.000   0.000   0.000   0.300   0.000
  0.000   0.000   0.000   0.000   0.000   0.000   0.000   0.000   0.000   0.000   0.000   0.000   0.012   0.000   0.000   0.000
  0.000   0.000   0.000   0.000   0.000   0.000   0.000   0.000   0.000   0.000   0.000   0.000   0.000   0.012   0.000   0.000
  0.000   0.000   0.000   0.000   0.000   0.000   0.000   0.000   0.000   0.000   0.000   0.000   0.000   0.000   0.012   0.000
 total augmentation occupancy for first ion, spin component:           2
  0.000   0.000   0.000   0.000   0.000   0.000   0.000   0.000   0.000   0.000   0.000   0.000   0.000   0.000   0.000   0.000
  0.000   0.000   0.000   0.000   0.000   0.000   0.000   0.000   0.000   0.000   0.000   0.000   0.000   0.000   0.000   0.000
  0.000   0.000   0.000   0.000   0.000   0.000   0.000   0.000   0.000   0.000   0.000   0.000   0.000   0.000   0.000   0.000
  0.000   0.000   0.000   0.000   0.000   0.000   0.000   0.000   0.000   0.000   0.000   0.000   0.000   0.000   0.000   0.000
  0.000   0.000   0.000   0.000   0.000   0.000   0.000   0.000   0.000   0.000   0.000   0.000   0.000   0.000   0.000   0.000
  0.000   0.000   0.000   0.000   0.000   0.000   0.000   0.000   0.000   0.000   0.000   0.000   0.000   0.000   0.000   0.000
  0.000   0.000   0.000   0.000   0.000   0.000   0.000   0.000   0.000   0.000   0.000   0.000   0.000   0.000   0.000   0.000
  0.000   0.000   0.000   0.000   0.000   0.000   0.000   0.000   0.000   0.000   0.000   0.000   0.000   0.000   0.000   0.000
  0.000   0.000   0.000   0.000   0.000   0.000   0.000   0.000   0.000   0.000   0.000   0.000   0.000   0.000   0.000   0.000
  0.000   0.000   0.000   0.000   0.000   0.000   0.000   0.000   0.000   0.000   0.000   0.000   0.000   0.000   0.000   0.000
  0.000   0.000   0.000   0.000   0.000   0.000   0.000   0.000   0.000   0.000   0.000   0.000   0.000   0.000   0.000   0.000
  0.000   0.000   0.000   0.000   0.000   0.000   0.000   0.000   0.000   0.000   0.000   0.000   0.000   0.000   0.000   0.000
  0.000   0.000   0.000   0.000   0.000   0.000   0.000   0.000   0.000   0.000   0.000   0.000   0.000   0.000   0.000   0.000
  0.000   0.000   0.000   0.000   0.000   0.000   0.000   0.000   0.000   0.000   0.000   0.000   0.000   0.000   0.000   0.000
  0.000   0.000   0.000   0.000   0.000   0.000   0.000   0.000   0.000   0.000   0.000   0.000   0.000   0.000   0.000   0.000
  0.000   0.000   0.000   0.000   0.000   0.000   0.000   0.000   0.000   0.000   0.000   0.000   0.000   0.000   0.000   0.000
  0.000   0.000   0.000   0.000   0.000   0.000   0.000   0.000   0.000   0.000   0.000   0.000   0.000   0.000   0.000   0.000
  0.000   0.000   0.000   0.000   0.000   0.000   0.000   0.000   0.000   0.000   0.000   0.000   0.000   0.000   0.000   0.000


------------------------ aborting loop because EDIFF is reached ----------------------------------------


 


 total charge     
 
# of ion     s       p       d       tot
----------------------------------------
  1        0.708   0.694   3.357   4.759
 


 magnetization (x)
 
# of ion     s       p       d       tot
----------------------------------------
  1        0.000  -0.001  -0.003  -0.004
 
    CHARGE:  cpu time    0.10: real time    0.10
    FORLOC:  cpu time    0.00: real time    0.00
    FORNL :  cpu time    0.20: real time    0.20
    STRESS:  cpu time    0.39: real time    0.39
    FORCOR:  cpu time    0.14: real time    0.14
    FORHAR:  cpu time    0.02: real time    0.02
    MIXING:  cpu time    0.00: real time    0.00

  FORCE on cell =-STRESS in cart. coord.  units (eV):
  Direction    XX          YY          ZZ          XY          YZ          ZX
  --------------------------------------------------------------------------------------
  Alpha Z    30.58334    30.58334    30.58334
  Ewald     -65.96700   -65.96700   -65.96700     0.00000     0.00000     0.00000
  Hartree     0.19640     0.19640     0.19640     0.00000     0.00000     0.00000
  E(xc)     -22.45911   -22.45911   -22.45911     0.00000     0.00000     0.00000
  Local       3.85971     3.85971     3.85971     0.00000     0.00000     0.00000
  n-local    -8.10329    -8.71321    -5.50461     1.73133    -2.23789    -1.69660
  augment     2.91670     2.91670     2.91670     0.00000     0.00000     0.00000
  Kinetic    59.83258    60.02835    54.68529    -0.48566     2.91792     1.80009
  Fock        0.00000     0.00000     0.00000     0.00000     0.00000     0.00000
  -------------------------------------------------------------------------------------
  Total      -0.12826    -0.12826    -0.12826     0.00000     0.00000     0.00000
  in kB     -11.33268   -11.33268   -11.33268     0.00000     0.00000     0.00000
  external pressure =      -11.33 kB  Pullay stress =        0.00 kB


 VOLUME and BASIS-vectors are now :
 -----------------------------------------------------------------------------
  energy-cutoff  :      350.00
  volume of cell :       18.13
      direct lattice vectors                 reciprocal lattice vectors
     2.866544087  0.000000000  0.000000000     0.348852126  0.123337852  0.213627426
    -0.955514696  2.702603683  0.000000000     0.000000000  0.370013556  0.213627426
    -0.955514696 -1.351301841  2.340523446     0.000000000  0.000000000  0.427254853

  length of vectors
     2.866544087  2.866544087  2.866544087     0.427254853  0.427254853  0.427254853


 FORCES acting on ions
    electron-ion (+dipol)            ewald-force                    non-local-force                 convergence-correction
 -----------------------------------------------------------------------------------------------
   0.189E-14 0.673E-15 0.356E-14   -.279E-15 -.214E-15 0.640E-15   0.186E-23 -.414E-24 0.000E+00   -.171E-15 -.176E-15 0.848E-16
 -----------------------------------------------------------------------------------------------
   0.189E-14 0.673E-15 0.356E-14   -.279E-15 -.214E-15 0.640E-15   0.186E-23 -.414E-24 0.000E+00   -.171E-15 -.176E-15 0.848E-16
 
 
 POSITION                                       TOTAL-FORCE (eV/Angst)
 -----------------------------------------------------------------------------------
      0.00000      0.00000      0.00000         0.000000      0.000000      0.000000
 -----------------------------------------------------------------------------------
    total drift:                                0.000000      0.000000      0.000000


--------------------------------------------------------------------------------------------------------



  FREE ENERGIE OF THE ION-ELECTRON SYSTEM (eV)
  ---------------------------------------------------
  free  energy   TOTEN  =       -11.862988 eV

  energy  without entropy=      -11.863603  energy(sigma->0) =      -11.863193
 


--------------------------------------------------------------------------------------------------------


    POTLOK:  cpu time    0.17: real time    0.17


--------------------------------------------------------------------------------------------------------


 writing wavefunctions
     LOOP+:  cpu time   17.57: real time   17.96
    4ORBIT:  cpu time    0.00: real time    0.00
 


 total charge     
 
# of ion     s       p       d       tot
----------------------------------------
  1        0.708   0.694   3.357   4.759
 


 magnetization (x)
 
# of ion     s       p       d       tot
----------------------------------------
  1        0.000  -0.001  -0.003  -0.004
 

 total amount of memory used by VASP on root node    39969. kBytes
========================================================================

   base      :      30000. kBytes
   nonl-proj :       1772. kBytes
   fftplans  :       1676. kBytes
   grid      :       3981. kBytes
   one-center:         31. kBytes
   wavefun   :       2509. kBytes
 
  
  
 General timing and accounting informations for this job:
 ========================================================
  
                  Total CPU time used (sec):       18.144
                            User time (sec):       18.004
                          System time (sec):        0.140
                         Elapsed time (sec):       18.659
  
                   Maximum memory used (kb):           0.
                   Average memory used (kb):           0.
  
                          Minor page faults:         8645
                          Major page faults:            0
                 Voluntary context switches:         3450
