PROCAR lm decomposed
# of k-points:   44         # of bands:   6         # of ions:   1

 k-point    1 :    0.05000000 0.05000000 0.05000000     weight = 0.00800000

band   1 # energy   -1.54289870 # occ.  1.00000000
 
ion      s     py     pz     px    dxy    dyz    dz2    dxz    dx2    tot
  1  0.815  0.011  0.032  0.005  0.000  0.002  0.001  0.001  0.000  0.867
 
band   2 # energy    6.09153199 # occ.  0.00000000
 
ion      s     py     pz     px    dxy    dyz    dz2    dxz    dx2    tot
  1  0.000  0.004  0.002  0.001  0.121  0.230  0.576  0.096  0.007  1.037
 
band   3 # energy    6.09153199 # occ.  0.00000000
 
ion      s     py     pz     px    dxy    dyz    dz2    dxz    dx2    tot
  1  0.000  0.001  0.000  0.005  0.075  0.000  0.022  0.026  0.906  1.037
 
band   4 # energy    7.20660720 # occ.  0.00000000
 
ion      s     py     pz     px    dxy    dyz    dz2    dxz    dx2    tot
  1  0.000  0.005  0.015  0.003  0.075  0.449  0.253  0.224  0.009  1.034
 
band   5 # energy    9.44674213 # occ.  0.00000000
 
ion      s     py     pz     px    dxy    dyz    dz2    dxz    dx2    tot
  1  0.000  0.000  0.000  0.000  0.687  0.002  0.132  0.009  0.081  0.911
 
band   6 # energy    9.44674213 # occ.  0.00000000
 
ion      s     py     pz     px    dxy    dyz    dz2    dxz    dx2    tot
  1  0.000  0.000  0.000  0.000  0.000  0.299  0.000  0.585  0.025  0.911
 

 k-point    2 :    0.15000000 0.05000000 0.05000000     weight = 0.02400000

band   1 # energy   -0.42031817 # occ.  1.00000000
 
ion      s     py     pz     px    dxy    dyz    dz2    dxz    dx2    tot
  1  0.733  0.020  0.061  0.039  0.006  0.009  0.001  0.017  0.002  0.889
 
band   2 # energy    5.41816678 # occ.  1.00000000
 
ion      s     py     pz     px    dxy    dyz    dz2    dxz    dx2    tot
  1  0.000  0.007  0.002  0.000  0.157  0.202  0.455  0.052  0.152  1.026
 
band   3 # energy    5.60172221 # occ.  1.03014991
 
ion      s     py     pz     px    dxy    dyz    dz2    dxz    dx2    tot
  1  0.003  0.001  0.002  0.049  0.071  0.022  0.102  0.213  0.525  0.988
 
band   4 # energy    8.55519526 # occ.  0.00000000
 
ion      s     py     pz     px    dxy    dyz    dz2    dxz    dx2    tot
  1  0.002  0.015  0.046  0.001  0.075  0.254  0.274  0.226  0.105  0.998
 
band   5 # energy    9.13051232 # occ.  0.00000000
 
ion      s     py     pz     px    dxy    dyz    dz2    dxz    dx2    tot
  1  0.000  0.000  0.001  0.001  0.069  0.430  0.036  0.207  0.182  0.927
 
band   6 # energy    9.71436803 # occ.  0.00000000
 
ion      s     py     pz     px    dxy    dyz    dz2    dxz    dx2    tot
  1  0.000  0.001  0.000  0.000  0.571  0.039  0.087  0.190  0.029  0.918
 

 k-point    3 :    0.25000000 0.05000000 0.05000000     weight = 0.02400000

band   1 # energy    0.90545079 # occ.  1.00000000
 
ion      s     py     pz     px    dxy    dyz    dz2    dxz    dx2    tot
  1  0.568  0.024  0.072  0.052  0.037  0.024  0.000  0.111  0.038  0.927
 
band   2 # energy    4.76133804 # occ.  1.00000000
 
ion      s     py     pz     px    dxy    dyz    dz2    dxz    dx2    tot
  1  0.000  0.009  0.003  0.000  0.177  0.195  0.439  0.059  0.146  1.030
 
band   3 # energy    5.30029313 # occ.  1.00000000
 
ion      s     py     pz     px    dxy    dyz    dz2    dxz    dx2    tot
  1  0.036  0.010  0.030  0.171  0.079  0.001  0.086  0.236  0.290  0.939
 
band   4 # energy    9.34933272 # occ.  0.00000000
 
ion      s     py     pz     px    dxy    dyz    dz2    dxz    dx2    tot
  1  0.004  0.000  0.000  0.009  0.062  0.354  0.004  0.187  0.341  0.961
 
band   5 # energy   10.04199283 # occ.  0.00000000
 
ion      s     py     pz     px    dxy    dyz    dz2    dxz    dx2    tot
  1  0.000  0.002  0.001  0.000  0.556  0.047  0.105  0.185  0.035  0.931
 
band   6 # energy   10.52784841 # occ.  0.00000000
 
ion      s     py     pz     px    dxy    dyz    dz2    dxz    dx2    tot
  1  0.001  0.026  0.079  0.002  0.036  0.319  0.307  0.107  0.095  0.973
 

 k-point    4 :    0.35000000 0.05000000 0.05000000     weight = 0.02400000

band   1 # energy    1.53426645 # occ.  1.00000000
 
ion      s     py     pz     px    dxy    dyz    dz2    dxz    dx2    tot
  1  0.353  0.012  0.037  0.008  0.100  0.028  0.008  0.299  0.120  0.965
 
band   2 # energy    4.31174667 # occ.  1.00000000
 
ion      s     py     pz     px    dxy    dyz    dz2    dxz    dx2    tot
  1  0.000  0.011  0.004  0.000  0.214  0.184  0.415  0.071  0.138  1.038
 
band   3 # energy    6.11185933 # occ.  0.00000000
 
ion      s     py     pz     px    dxy    dyz    dz2    dxz    dx2    tot
  1  0.069  0.039  0.118  0.396  0.025  0.011  0.065  0.076  0.104  0.903
 
band   4 # energy    9.67180917 # occ.  0.00000000
 
ion      s     py     pz     px    dxy    dyz    dz2    dxz    dx2    tot
  1  0.023  0.001  0.004  0.024  0.052  0.418  0.014  0.157  0.289  0.985
 
band   5 # energy   10.40535724 # occ.  0.00000000
 
ion      s     py     pz     px    dxy    dyz    dz2    dxz    dx2    tot
  1  0.000  0.001  0.000  0.000  0.533  0.062  0.140  0.178  0.047  0.962
 
band   6 # energy   12.66293634 # occ.  0.00000000
 
ion      s     py     pz     px    dxy    dyz    dz2    dxz    dx2    tot
  1  0.000  0.025  0.076  0.007  0.032  0.216  0.318  0.097  0.194  0.965
 

 k-point    5 :    0.45000000 0.05000000 0.05000000     weight = 0.01200000

band   1 # energy    1.59172595 # occ.  1.00000000
 
ion      s     py     pz     px    dxy    dyz    dz2    dxz    dx2    tot
  1  0.278  0.003  0.009  0.006  0.123  0.026  0.014  0.369  0.150  0.976
 
band   2 # energy    4.15354776 # occ.  1.00000000
 
ion      s     py     pz     px    dxy    dyz    dz2    dxz    dx2    tot
  1  0.000  0.011  0.004  0.000  0.256  0.171  0.384  0.085  0.128  1.040
 
band   3 # energy    6.98770580 # occ.  0.00000000
 
ion      s     py     pz     px    dxy    dyz    dz2    dxz    dx2    tot
  1  0.000  0.067  0.200  0.534  0.002  0.014  0.032  0.007  0.029  0.886
 
band   4 # energy    9.65319137 # occ.  0.00000000
 
ion      s     py     pz     px    dxy    dyz    dz2    dxz    dx2    tot
  1  0.073  0.000  0.000  0.000  0.058  0.463  0.045  0.174  0.176  0.989
 
band   5 # energy   10.58967467 # occ.  0.00000000
 
ion      s     py     pz     px    dxy    dyz    dz2    dxz    dx2    tot
  1  0.000  0.000  0.000  0.000  0.492  0.082  0.185  0.164  0.062  0.985
 
band   6 # energy   13.80829232 # occ.  0.00000000
 
ion      s     py     pz     px    dxy    dyz    dz2    dxz    dx2    tot
  1  0.000  0.005  0.015  0.040  0.026  0.153  0.344  0.077  0.319  0.978
 

 k-point    6 :   -0.05000000 0.05000000 0.05000000     weight = 0.00600000

band   1 # energy   -1.95869731 # occ.  1.00000000
 
ion      s     py     pz     px    dxy    dyz    dz2    dxz    dx2    tot
  1  0.842  0.003  0.008  0.006  0.000  0.000  0.000  0.000  0.000  0.859
 
band   2 # energy    6.40975273 # occ.  0.00000000
 
ion      s     py     pz     px    dxy    dyz    dz2    dxz    dx2    tot
  1  0.000  0.000  0.001  0.004  0.029  0.174  0.391  0.087  0.362  1.047
 
band   3 # energy    6.40975379 # occ.  0.00000000
 
ion      s     py     pz     px    dxy    dyz    dz2    dxz    dx2    tot
  1  0.000  0.004  0.001  0.000  0.261  0.174  0.391  0.087  0.130  1.047
 
band   4 # energy    6.54784986 # occ.  0.00000000
 
ion      s     py     pz     px    dxy    dyz    dz2    dxz    dx2    tot
  1  0.000  0.000  0.000  0.000  0.058  0.351  0.000  0.175  0.468  1.052
 
band   5 # energy    9.31089480 # occ.  0.00000000
 
ion      s     py     pz     px    dxy    dyz    dz2    dxz    dx2    tot
  1  0.000  0.000  0.000  0.000  0.451  0.075  0.169  0.150  0.056  0.903
 
band   6 # energy    9.80736458 # occ.  0.00000000
 
ion      s     py     pz     px    dxy    dyz    dz2    dxz    dx2    tot
  1  0.000  0.000  0.000  0.000  0.155  0.232  0.058  0.464  0.019  0.929
 

 k-point    7 :    0.15000000 0.15000000 0.05000000     weight = 0.02400000

band   1 # energy    0.84997614 # occ.  1.00000000
 
ion      s     py     pz     px    dxy    dyz    dz2    dxz    dx2    tot
  1  0.623  0.064  0.090  0.032  0.012  0.060  0.000  0.030  0.001  0.913
 
band   2 # energy    4.87263178 # occ.  1.00000000
 
ion      s     py     pz     px    dxy    dyz    dz2    dxz    dx2    tot
  1  0.000  0.023  0.000  0.046  0.083  0.053  0.000  0.107  0.666  0.979
 
band   3 # energy    4.94497247 # occ.  1.00000000
 
ion      s     py     pz     px    dxy    dyz    dz2    dxz    dx2    tot
  1  0.006  0.035  0.000  0.018  0.039  0.231  0.563  0.115  0.005  1.011
 
band   4 # energy    9.20577968 # occ.  0.00000000
 
ion      s     py     pz     px    dxy    dyz    dz2    dxz    dx2    tot
  1  0.000  0.000  0.000  0.001  0.024  0.239  0.000  0.478  0.192  0.933
 
band   5 # energy   10.08763378 # occ.  0.00000000
 
ion      s     py     pz     px    dxy    dyz    dz2    dxz    dx2    tot
  1  0.004  0.001  0.000  0.000  0.728  0.021  0.096  0.010  0.091  0.951
 
band   6 # energy   10.45229622 # occ.  0.00000000
 
ion      s     py     pz     px    dxy    dyz    dz2    dxz    dx2    tot
  1  0.004  0.029  0.093  0.014  0.079  0.309  0.284  0.154  0.010  0.976
 

 k-point    8 :    0.25000000 0.15000000 0.05000000     weight = 0.04800000

band   1 # energy    2.01620730 # occ.  1.00000000
 
ion      s     py     pz     px    dxy    dyz    dz2    dxz    dx2    tot
  1  0.421  0.056  0.089  0.018  0.046  0.094  0.015  0.183  0.027  0.949
 
band   2 # energy    4.40097272 # occ.  1.00000000
 
ion      s     py     pz     px    dxy    dyz    dz2    dxz    dx2    tot
  1  0.000  0.049  0.003  0.024  0.176  0.228  0.225  0.001  0.296  1.002
 
band   3 # energy    4.97788096 # occ.  1.00000000
 
ion      s     py     pz     px    dxy    dyz    dz2    dxz    dx2    tot
  1  0.047  0.031  0.027  0.197  0.006  0.005  0.277  0.176  0.193  0.959
 
band   4 # energy    9.50664726 # occ.  0.00000000
 
ion      s     py     pz     px    dxy    dyz    dz2    dxz    dx2    tot
  1  0.003  0.000  0.000  0.009  0.004  0.312  0.000  0.359  0.265  0.953
 
band   5 # energy   10.42976369 # occ.  0.00000000
 
ion      s     py     pz     px    dxy    dyz    dz2    dxz    dx2    tot
  1  0.014  0.000  0.000  0.000  0.642  0.009  0.191  0.050  0.069  0.976
 
band   6 # energy   12.67768141 # occ.  0.00000000
 
ion      s     py     pz     px    dxy    dyz    dz2    dxz    dx2    tot
  1  0.002  0.054  0.121  0.028  0.104  0.248  0.243  0.101  0.058  0.958
 

 k-point    9 :    0.35000000 0.15000000 0.05000000     weight = 0.04800000

band   1 # energy    2.29434638 # occ.  1.00000000
 
ion      s     py     pz     px    dxy    dyz    dz2    dxz    dx2    tot
  1  0.250  0.031  0.041  0.004  0.072  0.072  0.037  0.361  0.107  0.975
 
band   2 # energy    4.18656268 # occ.  1.00000000
 
ion      s     py     pz     px    dxy    dyz    dz2    dxz    dx2    tot
  1  0.000  0.060  0.003  0.007  0.250  0.216  0.314  0.017  0.154  1.021
 
band   3 # energy    5.94293605 # occ.  0.00000000
 
ion      s     py     pz     px    dxy    dyz    dz2    dxz    dx2    tot
  1  0.026  0.051  0.118  0.389  0.038  0.043  0.080  0.022  0.150  0.917
 
band   4 # energy    9.75884329 # occ.  0.00000000
 
ion      s     py     pz     px    dxy    dyz    dz2    dxz    dx2    tot
  1  0.041  0.000  0.001  0.009  0.021  0.357  0.033  0.257  0.253  0.972
 
band   5 # energy   10.63103774 # occ.  0.00000000
 
ion      s     py     pz     px    dxy    dyz    dz2    dxz    dx2    tot
  1  0.009  0.002  0.002  0.013  0.495  0.011  0.293  0.148  0.012  0.985
 
band   6 # energy   14.53058007 # occ.  0.00000000
 
ion      s     py     pz     px    dxy    dyz    dz2    dxz    dx2    tot
  1  0.000  0.043  0.092  0.073  0.089  0.179  0.227  0.053  0.194  0.948
 

 k-point   10 :   -0.15000000 0.15000000 0.05000000     weight = 0.02400000

band   1 # energy   -1.14235542 # occ.  1.00000000
 
ion      s     py     pz     px    dxy    dyz    dz2    dxz    dx2    tot
  1  0.787  0.023  0.008  0.045  0.005  0.001  0.002  0.001  0.001  0.874
 
band   2 # energy    5.95623354 # occ.  0.00000000
 
ion      s     py     pz     px    dxy    dyz    dz2    dxz    dx2    tot
  1  0.000  0.003  0.000  0.002  0.002  0.677  0.000  0.339  0.015  1.037
 
band   3 # energy    6.18465609 # occ.  0.00000000
 
ion      s     py     pz     px    dxy    dyz    dz2    dxz    dx2    tot
  1  0.001  0.011  0.002  0.021  0.416  0.001  0.505  0.001  0.052  1.010
 
band   4 # energy    7.36008992 # occ.  0.00000000
 
ion      s     py     pz     px    dxy    dyz    dz2    dxz    dx2    tot
  1  0.000  0.013  0.000  0.007  0.109  0.013  0.000  0.006  0.875  1.024
 
band   5 # energy    8.62897148 # occ.  0.00000000
 
ion      s     py     pz     px    dxy    dyz    dz2    dxz    dx2    tot
  1  0.000  0.000  0.000  0.000  0.278  0.056  0.405  0.112  0.035  0.887
 
band   6 # energy    9.98973531 # occ.  0.00000000
 
ion      s     py     pz     px    dxy    dyz    dz2    dxz    dx2    tot
  1  0.002  0.000  0.002  0.000  0.093  0.248  0.081  0.495  0.012  0.932
 

 k-point   11 :    0.25000000 0.25000000 0.05000000     weight = 0.02400000

band   1 # energy    2.93538102 # occ.  1.00000000
 
ion      s     py     pz     px    dxy    dyz    dz2    dxz    dx2    tot
  1  0.239  0.015  0.084  0.007  0.002  0.345  0.123  0.172  0.000  0.987
 
band   2 # energy    4.29568574 # occ.  1.00000000
 
ion      s     py     pz     px    dxy    dyz    dz2    dxz    dx2    tot
  1  0.000  0.069  0.000  0.138  0.060  0.072  0.000  0.144  0.478  0.960
 
band   3 # energy    5.01394632 # occ.  1.00000000
 
ion      s     py     pz     px    dxy    dyz    dz2    dxz    dx2    tot
  1  0.043  0.187  0.053  0.093  0.229  0.017  0.307  0.009  0.029  0.965
 
band   4 # energy    9.82077764 # occ.  0.00000000
 
ion      s     py     pz     px    dxy    dyz    dz2    dxz    dx2    tot
  1  0.000  0.004  0.000  0.009  0.030  0.223  0.000  0.447  0.244  0.958
 
band   5 # energy   10.52796323 # occ.  0.00000000
 
ion      s     py     pz     px    dxy    dyz    dz2    dxz    dx2    tot
  1  0.042  0.003  0.000  0.001  0.474  0.031  0.363  0.015  0.059  0.988
 
band   6 # energy   14.96118786 # occ.  0.00000000
 
ion      s     py     pz     px    dxy    dyz    dz2    dxz    dx2    tot
  1  0.001  0.103  0.131  0.052  0.205  0.160  0.182  0.080  0.026  0.939
 

 k-point   12 :    0.35000000 0.25000000 0.05000000     weight = 0.02400000

band   1 # energy    3.11642637 # occ.  1.00000000
 
ion      s     py     pz     px    dxy    dyz    dz2    dxz    dx2    tot
  1  0.162  0.005  0.038  0.021  0.001  0.239  0.152  0.340  0.044  1.002
 
band   2 # energy    4.37980044 # occ.  1.00000000
 
ion      s     py     pz     px    dxy    dyz    dz2    dxz    dx2    tot
  1  0.001  0.187  0.004  0.037  0.339  0.093  0.117  0.034  0.160  0.972
 
band   3 # energy    5.25466740 # occ.  1.00000000
 
ion      s     py     pz     px    dxy    dyz    dz2    dxz    dx2    tot
  1  0.000  0.037  0.111  0.295  0.134  0.122  0.039  0.000  0.195  0.932
 
band   4 # energy   10.06021440 # occ.  0.00000000
 
ion      s     py     pz     px    dxy    dyz    dz2    dxz    dx2    tot
  1  0.024  0.009  0.001  0.002  0.015  0.304  0.132  0.250  0.230  0.968
 
band   5 # energy   10.57259798 # occ.  0.00000000
 
ion      s     py     pz     px    dxy    dyz    dz2    dxz    dx2    tot
  1  0.000  0.003  0.008  0.021  0.309  0.007  0.404  0.230  0.000  0.982
 
band   6 # energy   14.38573242 # occ.  0.00000000
 
ion      s     py     pz     px    dxy    dyz    dz2    dxz    dx2    tot
  1  0.679  0.000  0.040  0.017  0.000  0.093  0.012  0.037  0.035  0.914
 

 k-point   13 :   -0.25000000 0.25000000 0.05000000     weight = 0.02400000

band   1 # energy    0.17902795 # occ.  1.00000000
 
ion      s     py     pz     px    dxy    dyz    dz2    dxz    dx2    tot
  1  0.665  0.045  0.008  0.090  0.060  0.001  0.025  0.002  0.007  0.904
 
band   2 # energy    5.26779415 # occ.  1.00000000
 
ion      s     py     pz     px    dxy    dyz    dz2    dxz    dx2    tot
  1  0.000  0.003  0.000  0.002  0.000  0.683  0.000  0.341  0.003  1.032
 
band   3 # energy    5.61332150 # occ.  1.03542278
 
ion      s     py     pz     px    dxy    dyz    dz2    dxz    dx2    tot
  1  0.017  0.042  0.001  0.085  0.540  0.005  0.174  0.011  0.067  0.942
 
band   4 # energy    8.65410553 # occ.  0.00000000
 
ion      s     py     pz     px    dxy    dyz    dz2    dxz    dx2    tot
  1  0.000  0.005  0.000  0.010  0.100  0.047  0.659  0.094  0.012  0.926
 
band   5 # energy    8.97319163 # occ.  0.00000000
 
ion      s     py     pz     px    dxy    dyz    dz2    dxz    dx2    tot
  1  0.000  0.032  0.000  0.016  0.104  0.004  0.000  0.002  0.830  0.988
 
band   6 # energy   10.18578545 # occ.  0.00000000
 
ion      s     py     pz     px    dxy    dyz    dz2    dxz    dx2    tot
  1  0.007  0.000  0.003  0.000  0.065  0.252  0.104  0.504  0.008  0.944
 

 k-point   14 :   -0.15000000 0.25000000 0.05000000     weight = 0.02400000

band   1 # energy   -0.06018905 # occ.  1.00000000
 
ion      s     py     pz     px    dxy    dyz    dz2    dxz    dx2    tot
  1  0.700  0.076  0.030  0.041  0.020  0.016  0.005  0.002  0.002  0.894
 
band   2 # energy    5.63099439 # occ.  1.00309113
 
ion      s     py     pz     px    dxy    dyz    dz2    dxz    dx2    tot
  1  0.000  0.004  0.012  0.032  0.205  0.225  0.110  0.004  0.375  0.968
 
band   3 # energy    5.70198876 # occ.  0.09701714
 
ion      s     py     pz     px    dxy    dyz    dz2    dxz    dx2    tot
  1  0.003  0.024  0.002  0.007  0.063  0.518  0.190  0.179  0.033  1.019
 
band   4 # energy    8.07128345 # occ.  0.00000000
 
ion      s     py     pz     px    dxy    dyz    dz2    dxz    dx2    tot
  1  0.000  0.000  0.001  0.003  0.240  0.001  0.424  0.223  0.008  0.900
 
band   5 # energy    8.47946262 # occ.  0.00000000
 
ion      s     py     pz     px    dxy    dyz    dz2    dxz    dx2    tot
  1  0.001  0.050  0.001  0.003  0.237  0.034  0.131  0.023  0.513  0.994
 
band   6 # energy   10.38881920 # occ.  0.00000000
 
ion      s     py     pz     px    dxy    dyz    dz2    dxz    dx2    tot
  1  0.012  0.000  0.002  0.001  0.120  0.165  0.098  0.539  0.022  0.960
 

 k-point   15 :   -0.35000000 0.35000000 0.05000000     weight = 0.02400000

band   1 # energy    1.21661438 # occ.  1.00000000
 
ion      s     py     pz     px    dxy    dyz    dz2    dxz    dx2    tot
  1  0.453  0.030  0.008  0.059  0.278  0.001  0.081  0.002  0.035  0.947
 
band   2 # energy    4.67309445 # occ.  1.00000000
 
ion      s     py     pz     px    dxy    dyz    dz2    dxz    dx2    tot
  1  0.000  0.003  0.000  0.002  0.000  0.686  0.000  0.343  0.001  1.035
 
band   3 # energy    5.69671097 # occ.  0.15384251
 
ion      s     py     pz     px    dxy    dyz    dz2    dxz    dx2    tot
  1  0.067  0.127  0.000  0.253  0.339  0.016  0.026  0.031  0.042  0.901
 
band   4 # energy    9.18696856 # occ.  0.00000000
 
ion      s     py     pz     px    dxy    dyz    dz2    dxz    dx2    tot
  1  0.003  0.021  0.001  0.041  0.079  0.020  0.740  0.041  0.010  0.955
 
band   5 # energy   10.41325378 # occ.  0.00000000
 
ion      s     py     pz     px    dxy    dyz    dz2    dxz    dx2    tot
  1  0.020  0.002  0.003  0.004  0.049  0.276  0.050  0.552  0.006  0.963
 
band   6 # energy   11.10911738 # occ.  0.00000000
 
ion      s     py     pz     px    dxy    dyz    dz2    dxz    dx2    tot
  1  0.000  0.040  0.000  0.020  0.101  0.001  0.000  0.001  0.805  0.967
 

 k-point   16 :   -0.25000000 0.35000000 0.05000000     weight = 0.04800000

band   1 # energy    1.24309404 # occ.  1.00000000
 
ion      s     py     pz     px    dxy    dyz    dz2    dxz    dx2    tot
  1  0.538  0.090  0.028  0.060  0.134  0.030  0.041  0.003  0.002  0.925
 
band   2 # energy    4.92092949 # occ.  1.00000000
 
ion      s     py     pz     px    dxy    dyz    dz2    dxz    dx2    tot
  1  0.004  0.000  0.012  0.067  0.202  0.473  0.010  0.027  0.161  0.957
 
band   3 # energy    5.35290690 # occ.  1.00000000
 
ion      s     py     pz     px    dxy    dyz    dz2    dxz    dx2    tot
  1  0.018  0.055  0.003  0.064  0.145  0.255  0.079  0.268  0.094  0.982
 
band   4 # energy    8.37332537 # occ.  0.00000000
 
ion      s     py     pz     px    dxy    dyz    dz2    dxz    dx2    tot
  1  0.000  0.002  0.000  0.028  0.110  0.002  0.627  0.134  0.025  0.929
 
band   5 # energy   10.30750424 # occ.  0.00000000
 
ion      s     py     pz     px    dxy    dyz    dz2    dxz    dx2    tot
  1  0.004  0.064  0.000  0.000  0.046  0.091  0.137  0.071  0.560  0.973
 
band   6 # energy   10.69194336 # occ.  0.00000000
 
ion      s     py     pz     px    dxy    dyz    dz2    dxz    dx2    tot
  1  0.037  0.038  0.002  0.006  0.225  0.116  0.018  0.471  0.061  0.974
 

 k-point   17 :   -0.45000000 0.45000000 0.05000000     weight = 0.02400000

band   1 # energy    1.45949748 # occ.  1.00000000
 
ion      s     py     pz     px    dxy    dyz    dz2    dxz    dx2    tot
  1  0.300  0.003  0.007  0.006  0.486  0.000  0.108  0.000  0.061  0.971
 
band   2 # energy    4.34103029 # occ.  1.00000000
 
ion      s     py     pz     px    dxy    dyz    dz2    dxz    dx2    tot
  1  0.000  0.003  0.000  0.001  0.000  0.690  0.000  0.345  0.000  1.040
 
band   3 # energy    6.69950245 # occ.  0.00000000
 
ion      s     py     pz     px    dxy    dyz    dz2    dxz    dx2    tot
  1  0.029  0.227  0.000  0.455  0.056  0.035  0.000  0.070  0.007  0.879
 
band   4 # energy    9.34601430 # occ.  0.00000000
 
ion      s     py     pz     px    dxy    dyz    dz2    dxz    dx2    tot
  1  0.057  0.012  0.000  0.024  0.173  0.000  0.681  0.000  0.022  0.968
 
band   5 # energy   10.78259931 # occ.  0.00000000
 
ion      s     py     pz     px    dxy    dyz    dz2    dxz    dx2    tot
  1  0.009  0.031  0.001  0.061  0.008  0.290  0.000  0.580  0.001  0.980
 
band   6 # energy   13.05569348 # occ.  0.00000000
 
ion      s     py     pz     px    dxy    dyz    dz2    dxz    dx2    tot
  1  0.000  0.012  0.000  0.006  0.107  0.000  0.000  0.000  0.858  0.984
 

 k-point   18 :   -0.35000000 0.45000000 0.05000000     weight = 0.04800000

band   1 # energy    1.89943263 # occ.  1.00000000
 
ion      s     py     pz     px    dxy    dyz    dz2    dxz    dx2    tot
  1  0.324  0.047  0.025  0.011  0.404  0.020  0.089  0.000  0.039  0.959
 
band   2 # energy    4.61914241 # occ.  1.00000000
 
ion      s     py     pz     px    dxy    dyz    dz2    dxz    dx2    tot
  1  0.004  0.003  0.014  0.034  0.035  0.719  0.004  0.171  0.024  1.008
 
band   3 # energy    5.59996759 # occ.  1.02866925
 
ion      s     py     pz     px    dxy    dyz    dz2    dxz    dx2    tot
  1  0.044  0.136  0.002  0.261  0.085  0.000  0.005  0.262  0.113  0.908
 
band   4 # energy    8.91262635 # occ.  0.00000000
 
ion      s     py     pz     px    dxy    dyz    dz2    dxz    dx2    tot
  1  0.020  0.010  0.000  0.050  0.135  0.005  0.700  0.018  0.002  0.940
 
band   5 # energy   10.72650718 # occ.  0.00000000
 
ion      s     py     pz     px    dxy    dyz    dz2    dxz    dx2    tot
  1  0.056  0.007  0.001  0.047  0.010  0.229  0.008  0.468  0.158  0.985
 
band   6 # energy   12.69642244 # occ.  0.00000000
 
ion      s     py     pz     px    dxy    dyz    dz2    dxz    dx2    tot
  1  0.006  0.119  0.001  0.018  0.174  0.005  0.012  0.060  0.571  0.964
 

 k-point   19 :   -0.25000000 0.45000000 0.05000000     weight = 0.02400000

band   1 # energy    2.36599036 # occ.  1.00000000
 
ion      s     py     pz     px    dxy    dyz    dz2    dxz    dx2    tot
  1  0.367  0.094  0.026  0.043  0.137  0.216  0.066  0.000  0.003  0.951
 
band   2 # energy    4.32565399 # occ.  1.00000000
 
ion      s     py     pz     px    dxy    dyz    dz2    dxz    dx2    tot
  1  0.000  0.011  0.033  0.088  0.311  0.193  0.010  0.007  0.277  0.930
 
band   3 # energy    5.35902613 # occ.  1.00000000
 
ion      s     py     pz     px    dxy    dyz    dz2    dxz    dx2    tot
  1  0.016  0.122  0.033  0.055  0.000  0.260  0.116  0.306  0.072  0.980
 
band   4 # energy    8.67986241 # occ.  0.00000000
 
ion      s     py     pz     px    dxy    dyz    dz2    dxz    dx2    tot
  1  0.000  0.003  0.009  0.023  0.124  0.008  0.495  0.217  0.056  0.936
 
band   5 # energy   10.43223785 # occ.  0.00000000
 
ion      s     py     pz     px    dxy    dyz    dz2    dxz    dx2    tot
  1  0.083  0.000  0.005  0.002  0.022  0.259  0.134  0.297  0.180  0.981
 
band   6 # energy   12.76789656 # occ.  0.00000000
 
ion      s     py     pz     px    dxy    dyz    dz2    dxz    dx2    tot
  1  0.019  0.167  0.004  0.033  0.282  0.000  0.047  0.122  0.288  0.963
 

 k-point   20 :   -0.45000000-0.45000000 0.05000000     weight = 0.02400000

band   1 # energy    1.95524478 # occ.  1.00000000
 
ion      s     py     pz     px    dxy    dyz    dz2    dxz    dx2    tot
  1  0.247  0.010  0.023  0.005  0.513  0.007  0.096  0.004  0.064  0.969
 
band   2 # energy    4.51757867 # occ.  1.00000000
 
ion      s     py     pz     px    dxy    dyz    dz2    dxz    dx2    tot
  1  0.001  0.014  0.016  0.007  0.014  0.641  0.008  0.321  0.002  1.023
 
band   3 # energy    6.09377401 # occ.  0.00000000
 
ion      s     py     pz     px    dxy    dyz    dz2    dxz    dx2    tot
  1  0.000  0.184  0.000  0.368  0.006  0.095  0.000  0.189  0.044  0.887
 
band   4 # energy    8.86627613 # occ.  0.00000000
 
ion      s     py     pz     px    dxy    dyz    dz2    dxz    dx2    tot
  1  0.086  0.001  0.000  0.000  0.171  0.016  0.634  0.008  0.021  0.937
 
band   5 # energy   11.23477684 # occ.  0.00000000
 
ion      s     py     pz     px    dxy    dyz    dz2    dxz    dx2    tot
  1  0.000  0.065  0.000  0.131  0.017  0.214  0.000  0.428  0.135  0.990
 
band   6 # energy   13.94793011 # occ.  0.00000000
 
ion      s     py     pz     px    dxy    dyz    dz2    dxz    dx2    tot
  1  0.000  0.042  0.000  0.084  0.089  0.020  0.000  0.040  0.709  0.983
 

 k-point   21 :   -0.35000000-0.45000000 0.05000000     weight = 0.04800000

band   1 # energy    2.83594394 # occ.  1.00000000
 
ion      s     py     pz     px    dxy    dyz    dz2    dxz    dx2    tot
  1  0.213  0.050  0.027  0.000  0.406  0.114  0.110  0.016  0.035  0.971
 
band   2 # energy    4.38372613 # occ.  1.00000000
 
ion      s     py     pz     px    dxy    dyz    dz2    dxz    dx2    tot
  1  0.010  0.006  0.042  0.100  0.125  0.526  0.020  0.035  0.092  0.957
 
band   3 # energy    5.22361296 # occ.  1.00000000
 
ion      s     py     pz     px    dxy    dyz    dz2    dxz    dx2    tot
  1  0.003  0.163  0.013  0.174  0.007  0.002  0.022  0.438  0.104  0.925
 
band   4 # energy    9.14870811 # occ.  0.00000000
 
ion      s     py     pz     px    dxy    dyz    dz2    dxz    dx2    tot
  1  0.036  0.002  0.011  0.022  0.133  0.063  0.612  0.062  0.000  0.941
 
band   5 # energy   10.65299971 # occ.  0.00000000
 
ion      s     py     pz     px    dxy    dyz    dz2    dxz    dx2    tot
  1  0.045  0.022  0.002  0.065  0.004  0.213  0.003  0.300  0.324  0.976
 
band   6 # energy   15.05785265 # occ.  0.00000000
 
ion      s     py     pz     px    dxy    dyz    dz2    dxz    dx2    tot
  1  0.033  0.142  0.007  0.104  0.193  0.018  0.029  0.091  0.370  0.987
 

 k-point   22 :   -0.35000000-0.35000000 0.05000000     weight = 0.00800000

band   1 # energy    3.49557960 # occ.  1.00000000
 
ion      s     py     pz     px    dxy    dyz    dz2    dxz    dx2    tot
  1  0.178  0.000  0.000  0.000  0.061  0.368  0.207  0.184  0.008  1.005
 
band   2 # energy    4.48135408 # occ.  1.00000000
 
ion      s     py     pz     px    dxy    dyz    dz2    dxz    dx2    tot
  1  0.000  0.127  0.096  0.064  0.497  0.048  0.000  0.024  0.062  0.917
 
band   3 # energy    4.48135524 # occ.  1.00000000
 
ion      s     py     pz     px    dxy    dyz    dz2    dxz    dx2    tot
  1  0.000  0.096  0.000  0.191  0.024  0.139  0.000  0.277  0.191  0.917
 
band   4 # energy   10.11118432 # occ.  0.00000000
 
ion      s     py     pz     px    dxy    dyz    dz2    dxz    dx2    tot
  1  0.000  0.028  0.000  0.057  0.049  0.143  0.000  0.286  0.396  0.960
 
band   5 # energy   10.11118465 # occ.  0.00000000
 
ion      s     py     pz     px    dxy    dyz    dz2    dxz    dx2    tot
  1  0.000  0.038  0.028  0.019  0.077  0.099  0.639  0.049  0.010  0.960
 
band   6 # energy   14.67659482 # occ.  0.00000000
 
ion      s     py     pz     px    dxy    dyz    dz2    dxz    dx2    tot
  1  0.613  0.013  0.039  0.007  0.016  0.094  0.053  0.047  0.002  0.885
 

 k-point   23 :    0.15000000 0.15000000 0.15000000     weight = 0.00800000

band   1 # energy    2.23642677 # occ.  1.00000000
 
ion      s     py     pz     px    dxy    dyz    dz2    dxz    dx2    tot
  1  0.501  0.058  0.175  0.029  0.012  0.074  0.042  0.037  0.002  0.930
 
band   2 # energy    4.38830206 # occ.  1.00000000
 
ion      s     py     pz     px    dxy    dyz    dz2    dxz    dx2    tot
  1  0.000  0.051  0.031  0.013  0.020  0.197  0.610  0.072  0.005  0.997
 
band   3 # energy    4.38830206 # occ.  1.00000000
 
ion      s     py     pz     px    dxy    dyz    dz2    dxz    dx2    tot
  1  0.000  0.023  0.000  0.071  0.082  0.014  0.009  0.077  0.721  0.997
 
band   4 # energy   10.05453672 # occ.  0.00000000
 
ion      s     py     pz     px    dxy    dyz    dz2    dxz    dx2    tot
  1  0.000  0.000  0.000  0.000  0.794  0.010  0.040  0.045  0.071  0.961
 
band   5 # energy   10.05453672 # occ.  0.00000000
 
ion      s     py     pz     px    dxy    dyz    dz2    dxz    dx2    tot
  1  0.000  0.000  0.000  0.000  0.000  0.296  0.001  0.524  0.141  0.961
 
band   6 # energy   12.78541189 # occ.  0.00000000
 
ion      s     py     pz     px    dxy    dyz    dz2    dxz    dx2    tot
  1  0.004  0.050  0.149  0.025  0.055  0.330  0.185  0.165  0.007  0.970
 

 k-point   24 :    0.25000000 0.15000000 0.15000000     weight = 0.02400000
