<?xml version="1.0" encoding="ISO-8859-1"?>
<modeling>
 <generator>
  <i name="program" type="string">vasp </i>
  <i name="version" type="string">5.2.12  </i>
  <i name="subversion" type="string">11Nov11 complex                                                      parallel </i>
  <i name="platform" type="string">LinuxIFC </i>
  <i name="date" type="string">2012 10 17 </i>
  <i name="time" type="string">10:12:41 </i>
 </generator>
 <incar>
  <i type="int" name="ISTART">     0</i>
  <i type="string" name="PREC">accurate</i>
  <i type="int" name="ISPIN">     2</i>
  <i name="ENCUT">    350.00000000</i>
  <i type="int" name="NBANDS">     6</i>
  <v name="MAGMOM">      6.00000000</v>
  <i type="logical" name="LREAL"> F  </i>
  <i type="int" name="ISMEAR">     1</i>
  <i name="SIGMA">      0.05000000</i>
  <i type="logical" name="LORBIT"> F  </i>
 </incar>
 <kpoints>
  <generation param="Monkhorst-Pack">
   <v type="int" name="divisions">      10       10       10 </v>
   <v name="usershift">      0.00000000       0.00000000       0.00000000 </v>
   <v name="genvec1">      0.10000000       0.00000000       0.00000000 </v>
   <v name="genvec2">      0.00000000       0.10000000       0.00000000 </v>
   <v name="genvec3">      0.00000000       0.00000000       0.10000000 </v>
   <v name="shift">      0.50000000       0.50000000       0.50000000 </v>
  </generation>
  <varray name="kpointlist" >
   <v>       0.05000000       0.05000000       0.05000000 </v>
   <v>       0.15000000       0.05000000       0.05000000 </v>
   <v>       0.25000000       0.05000000       0.05000000 </v>
   <v>       0.35000000       0.05000000       0.05000000 </v>
   <v>       0.45000000       0.05000000       0.05000000 </v>
   <v>      -0.05000000       0.05000000       0.05000000 </v>
   <v>       0.15000000       0.15000000       0.05000000 </v>
   <v>       0.25000000       0.15000000       0.05000000 </v>
   <v>       0.35000000       0.15000000       0.05000000 </v>
   <v>      -0.15000000       0.15000000       0.05000000 </v>
   <v>       0.25000000       0.25000000       0.05000000 </v>
   <v>       0.35000000       0.25000000       0.05000000 </v>
   <v>      -0.25000000       0.25000000       0.05000000 </v>
   <v>      -0.15000000       0.25000000       0.05000000 </v>
   <v>      -0.35000000       0.35000000       0.05000000 </v>
   <v>      -0.25000000       0.35000000       0.05000000 </v>
   <v>      -0.45000000       0.45000000       0.05000000 </v>
   <v>      -0.35000000       0.45000000       0.05000000 </v>
   <v>      -0.25000000       0.45000000       0.05000000 </v>
   <v>      -0.45000000      -0.45000000       0.05000000 </v>
   <v>      -0.35000000      -0.45000000       0.05000000 </v>
   <v>      -0.35000000      -0.35000000       0.05000000 </v>
   <v>       0.15000000       0.15000000       0.15000000 </v>
   <v>       0.25000000       0.15000000       0.15000000 </v>
   <v>       0.35000000       0.15000000       0.15000000 </v>
   <v>      -0.15000000       0.15000000       0.15000000 </v>
   <v>       0.25000000       0.25000000       0.15000000 </v>
   <v>      -0.25000000       0.25000000       0.15000000 </v>
   <v>      -0.35000000       0.35000000       0.15000000 </v>
   <v>      -0.25000000       0.35000000       0.15000000 </v>
   <v>      -0.45000000       0.45000000       0.15000000 </v>
   <v>      -0.35000000       0.45000000       0.15000000 </v>
   <v>      -0.45000000      -0.45000000       0.15000000 </v>
   <v>      -0.35000000      -0.45000000       0.15000000 </v>
   <v>       0.25000000       0.25000000       0.25000000 </v>
   <v>      -0.25000000       0.25000000       0.25000000 </v>
   <v>      -0.35000000       0.35000000       0.25000000 </v>
   <v>      -0.45000000       0.45000000       0.25000000 </v>
   <v>      -0.35000000       0.45000000       0.25000000 </v>
   <v>      -0.45000000      -0.45000000       0.25000000 </v>
   <v>      -0.35000000       0.35000000       0.35000000 </v>
   <v>      -0.45000000       0.45000000       0.35000000 </v>
   <v>      -0.45000000      -0.45000000       0.35000000 </v>
   <v>      -0.45000000       0.45000000       0.45000000 </v>
  </varray>
  <varray name="weights" >
   <v>       0.00800000 </v>
   <v>       0.02400000 </v>
   <v>       0.02400000 </v>
   <v>       0.02400000 </v>
   <v>       0.01200000 </v>
   <v>       0.00600000 </v>
   <v>       0.02400000 </v>
   <v>       0.04800000 </v>
   <v>       0.04800000 </v>
   <v>       0.02400000 </v>
   <v>       0.02400000 </v>
   <v>       0.02400000 </v>
   <v>       0.02400000 </v>
   <v>       0.02400000 </v>
   <v>       0.02400000 </v>
   <v>       0.04800000 </v>
   <v>       0.02400000 </v>
   <v>       0.04800000 </v>
   <v>       0.02400000 </v>
   <v>       0.02400000 </v>
   <v>       0.04800000 </v>
   <v>       0.00800000 </v>
   <v>       0.00800000 </v>
   <v>       0.02400000 </v>
   <v>       0.01200000 </v>
   <v>       0.00600000 </v>
   <v>       0.02400000 </v>
   <v>       0.02400000 </v>
   <v>       0.02400000 </v>
   <v>       0.02400000 </v>
   <v>       0.02400000 </v>
   <v>       0.04800000 </v>
   <v>       0.02400000 </v>
   <v>       0.02400000 </v>
   <v>       0.00200000 </v>
   <v>       0.00600000 </v>
   <v>       0.02400000 </v>
   <v>       0.02400000 </v>
   <v>       0.02400000 </v>
   <v>       0.02400000 </v>
   <v>       0.00600000 </v>
   <v>       0.02400000 </v>
   <v>       0.00800000 </v>
   <v>       0.00600000 </v>
  </varray>
 </kpoints>
 <parameters>
  <separator name="general" >
   <i type="string" name="SYSTEM">unknown system</i>
   <i type="logical" name="LCOMPAT"> F  </i>
  </separator>
  <separator name="electronic" >
   <i type="string" name="PREC">accura</i>
   <i name="ENMAX">    350.00000000</i>
   <i name="ENAUG">    332.07500000</i>
   <i name="EDIFF">      0.00010000</i>
   <i type="int" name="IALGO">    38</i>
   <i type="int" name="IWAVPR">    10</i>
   <i type="int" name="NBANDS">     6</i>
   <i name="NELECT">      5.00000000</i>
   <i type="int" name="TURBO">     0</i>
   <i type="int" name="IRESTART">     0</i>
   <i type="int" name="NREBOOT">     0</i>
   <i type="int" name="NMIN">     0</i>
   <i name="EREF">      0.00000000</i>
   <separator name="electronic smearing" >
    <i type="int" name="ISMEAR">     1</i>
    <i name="SIGMA">      0.05000000</i>
    <i name="KSPACING">      0.50000000</i>
    <i type="logical" name="KGAMMA"> T  </i>
   </separator>
   <separator name="electronic projectors" >
    <i type="logical" name="LREAL"> F  </i>
    <v name="ROPT">      0.00000000</v>
    <i type="int" name="LMAXPAW">  -100</i>
    <i type="int" name="LMAXMIX">     2</i>
    <i type="logical" name="NLSPLINE"> F  </i>
   </separator>
   <separator name="electronic startup" >
    <i type="int" name="ISTART">     0</i>
    <i type="int" name="ICHARG">     2</i>
    <i type="int" name="INIWAV">     1</i>
   </separator>
   <separator name="electronic spin" >
    <i type="int" name="ISPIN">     2</i>
    <i type="logical" name="LNONCOLLINEAR"> F  </i>
    <v name="MAGMOM">      6.00000000</v>
    <i name="NUPDOWN">     -1.00000000</i>
    <i type="logical" name="LSORBIT"> F  </i>
    <v name="SAXIS">      0.00000000      0.00000000      1.00000000</v>
    <i type="logical" name="LSPIRAL"> F  </i>
    <v name="QSPIRAL">      0.00000000      0.00000000      0.00000000</v>
    <i type="logical" name="LZEROZ"> F  </i>
   </separator>
   <separator name="electronic exchange-correlation" >
    <i type="logical" name="LASPH"> F  </i>
    <i type="logical" name="LMETAGGA"> F  </i>
   </separator>
   <separator name="electronic convergence" >
    <i type="int" name="NELM">    60</i>
    <i type="int" name="NELMDL">    -5</i>
    <i type="int" name="NELMIN">     2</i>
    <i name="ENINI">    350.00000000</i>
    <separator name="electronic convergence detail" >
     <i type="logical" name="LDIAG"> T  </i>
     <i type="logical" name="LSUBROT"> T  </i>
     <i name="WEIMIN">      0.00000000</i>
     <i name="EBREAK">      0.00000417</i>
     <i name="DEPER">      0.30000000</i>
     <i type="int" name="NRMM">     4</i>
     <i name="TIME">      0.40000000</i>
    </separator>
   </separator>
   <separator name="electronic mixer" >
    <i name="AMIX">      0.40000000</i>
    <i name="BMIX">      1.00000000</i>
    <i name="AMIN">      0.10000000</i>
    <i name="AMIX_MAG">      1.60000000</i>
    <i name="BMIX_MAG">      1.00000000</i>
    <separator name="electronic mixer details" >
     <i type="int" name="IMIX">     4</i>
     <i type="int" name="MAXMIX">   -45</i>
     <i name="WC">    100.00000000</i>
     <i type="int" name="INIMIX">     1</i>
     <i type="int" name="MIXPRE">     1</i>
     <i type="int" name="MREMOVE">     5</i>
    </separator>
   </separator>
   <separator name="electronic dipolcorrection" >
    <i type="logical" name="LDIPOL"> F  </i>
    <i type="logical" name="LMONO"> F  </i>
    <i type="int" name="IDIPOL">     0</i>
    <i name="EPSILON">      1.00000000</i>
    <v name="DIPOL">   -100.00000000   -100.00000000   -100.00000000</v>
    <i name="EFIELD">      0.00000000</i>
   </separator>
  </separator>
  <separator name="grids" >
   <i type="int" name="NGX">    18</i>
   <i type="int" name="NGY">    18</i>
   <i type="int" name="NGZ">    18</i>
   <i type="int" name="NGXF">    36</i>
   <i type="int" name="NGYF">    36</i>
   <i type="int" name="NGZF">    36</i>
   <i type="logical" name="ADDGRID"> F  </i>
  </separator>
  <separator name="ionic" >
   <i type="int" name="NSW">     0</i>
   <i type="int" name="IBRION">    -1</i>
   <i type="int" name="ISIF">     2</i>
   <i name="PSTRESS">      0.00000000</i>
   <i name="EDIFFG">      0.00100000</i>
   <i type="int" name="NFREE">     0</i>
   <i name="POTIM">      0.50000000</i>
   <i name="SMASS">     -3.00000000</i>
   <i name="SCALEE">      1.00000000</i>
  </separator>
  <separator name="ionic md" >
   <i name="TEBEG">      0.00010000</i>
   <i name="TEEND">      0.00010000</i>
   <i type="int" name="NBLOCK">     1</i>
   <i type="int" name="KBLOCK">     1</i>
   <i type="int" name="NPACO">   256</i>
   <i name="APACO">     16.00000000</i>
  </separator>
  <separator name="symmetry" >
   <i type="int" name="ISYM">     2</i>
   <i name="SYMPREC">      0.00001000</i>
  </separator>
  <separator name="dos" >
   <i type="logical" name="LORBIT"> F  </i>
   <v name="RWIGS">     -1.00000000</v>
   <i type="int" name="NEDOS">   301</i>
   <i name="EMIN">     10.00000000</i>
   <i name="EMAX">    -10.00000000</i>
   <i name="EFERMI">      0.00000000</i>
  </separator>
  <separator name="writing" >
   <i type="int" name="NWRITE">     2</i>
   <i type="logical" name="LWAVE"> T  </i>
   <i type="logical" name="LCHARG"> T  </i>
   <i type="logical" name="LPARD"> F  </i>
   <i type="logical" name="LVTOT"> F  </i>
   <i type="logical" name="LVHAR"> F  </i>
   <i type="logical" name="LELF"> F  </i>
   <i type="logical" name="LOPTICS"> F  </i>
   <v name="STM">      0.00000000      0.00000000      0.00000000      0.00000000      0.00000000      0.00000000      0.00000000</v>
  </separator>
  <separator name="performance" >
   <i type="int" name="NPAR">     1</i>
   <i type="int" name="NSIM">     4</i>
   <i type="int" name="NBLK">    -1</i>
   <i type="logical" name="LPLANE"> T  </i>
   <i type="logical" name="LSCALAPACK"> F  </i>
   <i type="logical" name="LSCAAWARE"> F  </i>
   <i type="logical" name="LSCALU"> F  </i>
   <i type="logical" name="LASYNC"> F  </i>
   <i type="logical" name="LORBITALREAL"> F  </i>
  </separator>
  <separator name="miscellaneous" >
   <i type="int" name="IDIOT">     3</i>
   <i type="logical" name="LMUSIC"> F  </i>
   <v name="POMASS">    180.94800000</v>
   <v name="DARWINR">      0.00000000</v>
   <v name="DARWINV">      1.00000000</v>
   <i type="logical" name="LCORR"> T  </i>
  </separator>
  <i type="logical" name="GGA_COMPAT"> T  </i>
  <i type="logical" name="LBERRY"> F  </i>
  <i type="int" name="ICORELEVEL">     0</i>
  <i type="logical" name="LDAU"> F  </i>
  <i type="int" name="I_CONSTRAINED_M">     0</i>
  <separator name="electronic exchange-correlation" >
   <i type="string" name="GGA">--</i>
   <i type="int" name="VOSKOWN">     0</i>
   <i type="logical" name="LHFCALC"> F  </i>
   <i type="string" name="PRECFOCK"></i>
   <i type="logical" name="LHFONE"> F  </i>
   <i type="logical" name="LRHFCALC"> F  </i>
   <i type="logical" name="LTHOMAS"> F  </i>
   <i type="logical" name="LMODELHF"> F  </i>
   <i name="ENCUT4O">     -1.00000000</i>
   <i type="int" name="EXXOEP">     0</i>
   <i type="int" name="FOURORBIT">     0</i>
   <i name="AEXX">      0.00000000</i>
   <i name="HFALPHA">      0.00000000</i>
   <i name="ALDAX">      1.00000000</i>
   <i name="AGGAX">      1.00000000</i>
   <i name="ALDAC">      1.00000000</i>
   <i name="AGGAC">      1.00000000</i>
   <i type="int" name="NKREDX">     1</i>
   <i type="int" name="NKREDY">     1</i>
   <i type="int" name="NKREDZ">     1</i>
   <i type="logical" name="SHIFTRED"> F  </i>
   <i type="logical" name="ODDONLY"> F  </i>
   <i type="logical" name="EVENONLY"> F  </i>
   <i type="int" name="LMAXFOCK">     0</i>
   <i type="int" name="NMAXFOCKAE">     0</i>
   <i type="logical" name="LFOCKAEDFT"> F  </i>
   <i name="HFSCREEN">      0.00000000</i>
   <i name="HFSCREENC">      0.00000000</i>
  </separator>
  <separator name="vdW DFT" >
   <i type="logical" name="LUSE_VDW"> F  </i>
   <i name="Zab_VDW">     -0.84910000</i>
   <i name="PARAM1">      0.12340000</i>
   <i name="PARAM2">      1.00000000</i>
   <i name="PARAM3">      0.00000000</i>
  </separator>
  <separator name="model GW" >
   <i type="int" name="MODEL_GW">     0</i>
   <i name="MODEL_EPS0">     10.87940730</i>
   <i name="MODEL_ALPHA">      1.00000000</i>
  </separator>
  <separator name="linear response parameters" >
   <i type="logical" name="LEPSILON"> F  </i>
   <i type="logical" name="LRPA"> F  </i>
   <i type="logical" name="LNABLA"> F  </i>
   <i type="logical" name="LVEL"> F  </i>
   <i type="int" name="KINTER">     0</i>
   <i name="CSHIFT">      0.10000000</i>
   <i name="OMEGAMAX">     -1.00000000</i>
  </separator>
  <separator name="orbital magnetization" >
   <i type="logical" name="NUCIND"> F  </i>
   <v name="MAGPOS">      0.00000000      0.00000000      0.00000000</v>
   <i type="logical" name="LNICSALL"> T  </i>
   <i type="logical" name="ORBITALMAG"> F  </i>
   <i type="logical" name="LMAGBLOCH"> F  </i>
   <i type="logical" name="LCHIMAG"> F  </i>
   <i type="logical" name="LGAUGE"> T  </i>
   <i type="int" name="MAGATOM">     0</i>
   <v name="MAGDIPOL">      0.00000000      0.00000000      0.00000000</v>
   <v name="AVECCONST">      0.00000000      0.00000000      0.00000000</v>
  </separator>
  <separator name="response functions" >
   <i type="logical" name="LADDER"> F  </i>
   <i type="logical" name="LHARTREE"> T  </i>
   <i type="int" name="IBSE">     0</i>
   <i type="logical" name="LTCTE"> F  </i>
   <i type="logical" name="LTETE"> F  </i>
   <i type="logical" name="LFXCEPS"> F  </i>
   <i type="logical" name="L2ORDER"> F  </i>
   <i type="logical" name="LUSEW"> F  </i>
   <i name="ENCUTGW">     -2.00000000</i>
   <i name="ENCUTGWSOFT">     -2.00000000</i>
   <i name="ENCUTLF">     -1.00000000</i>
   <i type="int" name="LMAXMP2">    -1</i>
   <i name="SCISSOR">      0.00000000</i>
   <i type="int" name="NOMEGA">     0</i>
   <i type="int" name="NOMEGAR">     0</i>
   <i type="int" name="NBANDSGW">    -1</i>
   <i type="int" name="NBANDSO">    -1</i>
   <i type="int" name="NBANDSV">    -1</i>
   <i name="OPTEMAX">      0.00000000</i>
   <i type="int" name="NELM">     1</i>
   <i type="int" name="DIM">     3</i>
   <i type="int" name="ANTIRES">     0</i>
   <i name="OMEGAMAX">    -30.00000000</i>
   <i name="OMEGATL">   -200.00000000</i>
   <i type="int" name="OMEGAGRID">     0</i>
   <i name="CSHIFT">     -0.10000000</i>
   <i type="logical" name="SELFENERGY"> F  </i>
   <i type="logical" name="LSPECTRAL"> F  </i>
   <i type="logical" name="ODDONLYGW"> F  </i>
   <i type="logical" name="EVENONLYGW"> F  </i>
   <i type="int" name="NKREDLFX">     1</i>
   <i type="int" name="NKREDLFY">     1</i>
   <i type="int" name="NKREDLFZ">     1</i>
   <i type="int" name="MAXMEM">  1800</i>
   <i type="int" name="TELESCOPE">     0</i>
  </separator>
 </parameters>
 <atominfo>
  <atoms>       1 </atoms>
  <types>       1 </types>
  <array name="atoms" >
   <dimension dim="1">ion</dimension>
   <field type="string">element</field>
   <field type="int">atomtype</field>
   <set>
    <rc><c>Ta</c><c>   1</c></rc>
   </set>
  </array>
  <array name="atomtypes" >
   <dimension dim="1">type</dimension>
   <field type="int">atomspertype</field>
   <field type="string">element</field>
   <field>mass</field>
   <field>valence</field>
   <field type="string">pseudopotential</field>
   <set>
    <rc><c>   1</c><c>Ta</c><c>    180.94800000</c><c>      5.00000000</c><c>  PAW_PBE Ta 17Jan2003                  </c></rc>
   </set>
  </array>
 </atominfo>
 <structure name="initialpos" >
  <crystal>
   <varray name="basis" >
    <v>       2.86654409       0.00000000       0.00000000 </v>
    <v>      -0.95551470       2.70260368       0.00000000 </v>
    <v>      -0.95551470      -1.35130184       2.34052345 </v>
   </varray>
   <i name="volume">     18.13234550 </i>
   <varray name="rec_basis" >
    <v>       0.34885213       0.12333785       0.21362743 </v>
    <v>       0.00000000       0.37001356       0.21362743 </v>
    <v>       0.00000000       0.00000000       0.42725485 </v>
   </varray>
  </crystal>
  <varray name="positions" >
   <v>       0.00000000       0.00000000       0.00000000 </v>
  </varray>
 </structure>
 <calculation>
  <scstep>
   <time name="dav">    1.00    1.00</time>
   <time name="total">    1.18    1.18</time>
   <energy>
    <i name="alphaZ">     30.58334069 </i>
    <i name="ewald">   -197.90100875 </i>
    <i name="hartreedc">     -2.50452612 </i>
    <i name="XCdc">    -60.69825643 </i>
    <i name="pawpsdc">    143.51874798 </i>
    <i name="pawaedc">    -69.33493833 </i>
    <i name="eentropy">     -0.00034105 </i>
    <i name="bandstr">     37.46102367 </i>
    <i name="atom">    130.64621481 </i>
    <i name="e_fr_energy">     11.77025647 </i>
    <i name="e_wo_entrp">     11.77059752 </i>
    <i name="e_0_energy">     11.77037015 </i>
   </energy>
  </scstep>
  <scstep>
   <time name="dav">    1.57    1.57</time>
   <time name="total">    1.57    1.58</time>
   <energy>
    <i name="e_fr_energy">     -1.21189515 </i>
    <i name="e_wo_entrp">     -1.21192521 </i>
    <i name="e_0_energy">     -1.21190517 </i>
   </energy>
  </scstep>
  <scstep>
   <time name="dav">    0.99    0.99</time>
   <time name="total">    0.99    1.07</time>
   <energy>
    <i name="e_fr_energy">     -1.31055601 </i>
    <i name="e_wo_entrp">     -1.31067191 </i>
    <i name="e_0_energy">     -1.31059464 </i>
   </energy>
  </scstep>
  <scstep>
   <time name="dav">    1.23    1.23</time>
   <time name="total">    1.23    1.25</time>
   <energy>
    <i name="e_fr_energy">     -1.31201685 </i>
    <i name="e_wo_entrp">     -1.31209945 </i>
    <i name="e_0_energy">     -1.31204438 </i>
   </energy>
  </scstep>
  <scstep>
   <time name="dav">    0.90    0.90</time>
   <time name="total">    1.03    1.04</time>
   <energy>
    <i name="e_fr_energy">     -1.31202415 </i>
    <i name="e_wo_entrp">     -1.31210674 </i>
    <i name="e_0_energy">     -1.31205168 </i>
   </energy>
  </scstep>
  <scstep>
   <time name="dav">    1.01    1.02</time>
   <time name="total">    1.30    1.32</time>
   <energy>
    <i name="e_fr_energy">    -11.70297815 </i>
    <i name="e_wo_entrp">    -11.70314123 </i>
    <i name="e_0_energy">    -11.70303251 </i>
   </energy>
  </scstep>
  <scstep>
   <time name="dav">    1.10    1.10</time>
   <time name="total">    1.40    1.50</time>
   <energy>
    <i name="e_fr_energy">    -11.78074528 </i>
    <i name="e_wo_entrp">    -11.78063433 </i>
    <i name="e_0_energy">    -11.78070830 </i>
   </energy>
  </scstep>
  <scstep>
   <time name="dav">    1.04    1.04</time>
   <time name="total">    1.34    1.35</time>
   <energy>
    <i name="e_fr_energy">    -11.73133550 </i>
    <i name="e_wo_entrp">    -11.73119954 </i>
    <i name="e_0_energy">    -11.73129018 </i>
   </energy>
  </scstep>
  <scstep>
   <time name="dav">    1.09    1.09</time>
   <time name="total">    1.38    1.40</time>
   <energy>
    <i name="e_fr_energy">    -11.84541008 </i>
    <i name="e_wo_entrp">    -11.84470987 </i>
    <i name="e_0_energy">    -11.84517668 </i>
   </energy>
  </scstep>
  <scstep>
   <time name="dav">    1.08    1.08</time>
   <time name="total">    1.37    1.38</time>
   <energy>
    <i name="e_fr_energy">    -11.86177229 </i>
    <i name="e_wo_entrp">    -11.86127883 </i>
    <i name="e_0_energy">    -11.86160780 </i>
   </energy>
  </scstep>
  <scstep>
   <time name="dav">    1.05    1.05</time>
   <time name="total">    1.33    1.34</time>
   <energy>
    <i name="e_fr_energy">    -11.86308668 </i>
    <i name="e_wo_entrp">    -11.86328993 </i>
    <i name="e_0_energy">    -11.86315443 </i>
   </energy>
  </scstep>
  <scstep>
   <time name="dav">    1.03    1.03</time>
   <time name="total">    1.31    1.33</time>
   <energy>
    <i name="e_fr_energy">    -11.86303386 </i>
    <i name="e_wo_entrp">    -11.86363510 </i>
    <i name="e_0_energy">    -11.86323427 </i>
   </energy>
  </scstep>
  <scstep>
   <time name="dav">    0.70    0.70</time>
   <time name="total">    0.87    0.89</time>
   <energy>
    <i name="alphaZ">     30.58334069 </i>
    <i name="ewald">   -197.90100875 </i>
    <i name="hartreedc">     -0.58996739 </i>
    <i name="XCdc">    -66.00218052 </i>
    <i name="pawpsdc">    193.56217439 </i>
    <i name="pawaedc">   -120.13778600 </i>
    <i name="eentropy">      0.00061545 </i>
    <i name="bandstr">     17.97560940 </i>
    <i name="atom">    130.64621481 </i>
    <i name="e_fr_energy">    -11.86298793 </i>
    <i name="e_wo_entrp">    -11.86360338 </i>
    <i name="e_0_energy">    -11.86319308 </i>
   </energy>
  </scstep>
  <parameters_embedded>
   <separator name="dft+d2" >
    <i type="logical" name="LVDW"> F  </i>
   </separator>
  </parameters_embedded>
  <structure>
   <crystal>
    <varray name="basis" >
     <v>       2.86654409       0.00000000       0.00000000 </v>
     <v>      -0.95551470       2.70260368       0.00000000 </v>
     <v>      -0.95551470      -1.35130184       2.34052345 </v>
    </varray>
    <i name="volume">     18.13234550 </i>
    <varray name="rec_basis" >
     <v>       0.34885213       0.12333785       0.21362743 </v>
     <v>       0.00000000       0.37001356       0.21362743 </v>
     <v>       0.00000000       0.00000000       0.42725485 </v>
    </varray>
   </crystal>
   <varray name="positions" >
    <v>       0.00000000       0.00000000       0.00000000 </v>
   </varray>
  </structure>
  <varray name="forces" >
   <v>       0.00000000       0.00000000       0.00000000 </v>
  </varray>
  <varray name="stress" >
   <v>     -11.33268463       0.00000000       0.00000000 </v>
   <v>       0.00000000     -11.33268463       0.00000000 </v>
   <v>       0.00000000       0.00000000     -11.33268463 </v>
  </varray>
  <energy>
   <i name="e_fr_energy">    -11.86298793 </i>
   <i name="e_wo_entrp">    -11.86319308 </i>
   <i name="e_0_energy">      0.00061545 </i>
  </energy>
  <time name="totalsc">   17.57   17.96</time>
  <eigenvalues>
   <array>
    <dimension dim="1">band</dimension>
    <dimension dim="2">kpoint</dimension>
    <dimension dim="3">spin</dimension>
    <field>eigene</field>
    <field>occ</field>
    <set>
     <set comment="spin 1">
      <set comment="kpoint 1">
       <r>   -1.5429    1.0000 </r>
       <r>    6.0915    0.0000 </r>
       <r>    6.0915    0.0000 </r>
       <r>    7.2066    0.0000 </r>
       <r>    9.4467    0.0000 </r>
       <r>    9.4467    0.0000 </r>
      </set>
      <set comment="kpoint 2">
       <r>   -0.4203    1.0000 </r>
       <r>    5.4182    1.0000 </r>
       <r>    5.6017    1.0301 </r>
       <r>    8.5552    0.0000 </r>
       <r>    9.1305    0.0000 </r>
       <r>    9.7144    0.0000 </r>
      </set>
      <set comment="kpoint 3">
       <r>    0.9055    1.0000 </r>
       <r>    4.7613    1.0000 </r>
       <r>    5.3003    1.0000 </r>
       <r>    9.3493    0.0000 </r>
       <r>   10.0420    0.0000 </r>
       <r>   10.5278    0.0000 </r>
      </set>
      <set comment="kpoint 4">
       <r>    1.5343    1.0000 </r>
       <r>    4.3117    1.0000 </r>
       <r>    6.1119    0.0000 </r>
       <r>    9.6718    0.0000 </r>
       <r>   10.4054    0.0000 </r>
       <r>   12.6629    0.0000 </r>
      </set>
      <set comment="kpoint 5">
       <r>    1.5917    1.0000 </r>
       <r>    4.1535    1.0000 </r>
       <r>    6.9877    0.0000 </r>
       <r>    9.6532    0.0000 </r>
       <r>   10.5897    0.0000 </r>
       <r>   13.8083    0.0000 </r>
      </set>
      <set comment="kpoint 6">
       <r>   -1.9587    1.0000 </r>
       <r>    6.4098    0.0000 </r>
       <r>    6.4098    0.0000 </r>
       <r>    6.5478    0.0000 </r>
       <r>    9.3109    0.0000 </r>
       <r>    9.8074    0.0000 </r>
      </set>
      <set comment="kpoint 7">
       <r>    0.8500    1.0000 </r>
       <r>    4.8726    1.0000 </r>
       <r>    4.9450    1.0000 </r>
       <r>    9.2058    0.0000 </r>
       <r>   10.0876    0.0000 </r>
       <r>   10.4523    0.0000 </r>
      </set>
      <set comment="kpoint 8">
       <r>    2.0162    1.0000 </r>
       <r>    4.4010    1.0000 </r>
       <r>    4.9779    1.0000 </r>
       <r>    9.5066    0.0000 </r>
       <r>   10.4298    0.0000 </r>
       <r>   12.6777    0.0000 </r>
      </set>
      <set comment="kpoint 9">
       <r>    2.2943    1.0000 </r>
       <r>    4.1866    1.0000 </r>
       <r>    5.9429    0.0000 </r>
       <r>    9.7588    0.0000 </r>
       <r>   10.6310    0.0000 </r>
       <r>   14.5306    0.0000 </r>
      </set>
      <set comment="kpoint 10">
       <r>   -1.1424    1.0000 </r>
       <r>    5.9562    0.0000 </r>
       <r>    6.1847    0.0000 </r>
       <r>    7.3601    0.0000 </r>
       <r>    8.6290    0.0000 </r>
       <r>    9.9897    0.0000 </r>
      </set>
      <set comment="kpoint 11">
       <r>    2.9354    1.0000 </r>
       <r>    4.2957    1.0000 </r>
       <r>    5.0139    1.0000 </r>
       <r>    9.8208    0.0000 </r>
       <r>   10.5280    0.0000 </r>
       <r>   14.9612    0.0000 </r>
      </set>
      <set comment="kpoint 12">
       <r>    3.1164    1.0000 </r>
       <r>    4.3798    1.0000 </r>
       <r>    5.2547    1.0000 </r>
       <r>   10.0602    0.0000 </r>
       <r>   10.5726    0.0000 </r>
       <r>   14.3857    0.0000 </r>
      </set>
      <set comment="kpoint 13">
       <r>    0.1790    1.0000 </r>
       <r>    5.2678    1.0000 </r>
       <r>    5.6133    1.0354 </r>
       <r>    8.6541    0.0000 </r>
       <r>    8.9732    0.0000 </r>
       <r>   10.1858    0.0000 </r>
      </set>
      <set comment="kpoint 14">
       <r>   -0.0602    1.0000 </r>
       <r>    5.6310    1.0031 </r>
       <r>    5.7020    0.0970 </r>
       <r>    8.0713    0.0000 </r>
       <r>    8.4795    0.0000 </r>
       <r>   10.3888    0.0000 </r>
      </set>
      <set comment="kpoint 15">
       <r>    1.2166    1.0000 </r>
       <r>    4.6731    1.0000 </r>
       <r>    5.6967    0.1538 </r>
       <r>    9.1870    0.0000 </r>
       <r>   10.4133    0.0000 </r>
       <r>   11.1091    0.0000 </r>
      </set>
      <set comment="kpoint 16">
       <r>    1.2431    1.0000 </r>
       <r>    4.9209    1.0000 </r>
       <r>    5.3529    1.0000 </r>
       <r>    8.3733    0.0000 </r>
       <r>   10.3075    0.0000 </r>
       <r>   10.6919    0.0000 </r>
      </set>
      <set comment="kpoint 17">
       <r>    1.4595    1.0000 </r>
       <r>    4.3410    1.0000 </r>
       <r>    6.6995    0.0000 </r>
       <r>    9.3460    0.0000 </r>
       <r>   10.7826    0.0000 </r>
       <r>   13.0557    0.0000 </r>
      </set>
      <set comment="kpoint 18">
       <r>    1.8994    1.0000 </r>
       <r>    4.6191    1.0000 </r>
       <r>    5.6000    1.0287 </r>
       <r>    8.9126    0.0000 </r>
       <r>   10.7265    0.0000 </r>
       <r>   12.6964    0.0000 </r>
      </set>
      <set comment="kpoint 19">
       <r>    2.3660    1.0000 </r>
       <r>    4.3257    1.0000 </r>
       <r>    5.3590    1.0000 </r>
       <r>    8.6799    0.0000 </r>
       <r>   10.4322    0.0000 </r>
       <r>   12.7679    0.0000 </r>
      </set>
      <set comment="kpoint 20">
       <r>    1.9552    1.0000 </r>
       <r>    4.5176    1.0000 </r>
       <r>    6.0938    0.0000 </r>
       <r>    8.8663    0.0000 </r>
       <r>   11.2348    0.0000 </r>
       <r>   13.9479    0.0000 </r>
      </set>
      <set comment="kpoint 21">
       <r>    2.8359    1.0000 </r>
       <r>    4.3837    1.0000 </r>
       <r>    5.2236    1.0000 </r>
       <r>    9.1487    0.0000 </r>
       <r>   10.6530    0.0000 </r>
       <r>   15.0579    0.0000 </r>
      </set>
      <set comment="kpoint 22">
       <r>    3.4956    1.0000 </r>
       <r>    4.4814    1.0000 </r>
       <r>    4.4814    1.0000 </r>
       <r>   10.1112    0.0000 </r>
       <r>   10.1112    0.0000 </r>
       <r>   14.6766    0.0000 </r>
      </set>
      <set comment="kpoint 23">
       <r>    2.2364    1.0000 </r>
       <r>    4.3883    1.0000 </r>
       <r>    4.3883    1.0000 </r>
       <r>   10.0545    0.0000 </r>
       <r>   10.0545    0.0000 </r>
       <r>   12.7854    0.0000 </r>
      </set>
      <set comment="kpoint 24">
       <r>    3.1438    1.0000 </r>
       <r>    4.1426    1.0000 </r>
       <r>    4.7865    1.0000 </r>
       <r>   10.2212    0.0000 </r>
       <r>   10.5317    0.0000 </r>
       <r>   14.9723    0.0000 </r>
      </set>
      <set comment="kpoint 25">
       <r>    3.1515    1.0000 </r>
       <r>    4.0704    1.0000 </r>
       <r>    5.6089    1.0347 </r>
       <r>   10.2811    0.0000 </r>
       <r>   10.6834    0.0000 </r>
       <r>   14.3718    0.0000 </r>
      </set>
      <set comment="kpoint 26">
       <r>   -0.3652    1.0000 </r>
       <r>    6.3675    0.0000 </r>
       <r>    6.3675    0.0000 </r>
       <r>    7.1718    0.0000 </r>
       <r>    7.3663    0.0000 </r>
       <r>   10.5850    0.0000 </r>
      </set>
      <set comment="kpoint 27">
       <r>    3.7453    1.0000 </r>
       <r>    4.4057    1.0000 </r>
       <r>    4.8345    1.0000 </r>
       <r>   10.5347    0.0000 </r>
       <r>   10.6642    0.0000 </r>
       <r>   13.6638    0.0000 </r>
      </set>
      <set comment="kpoint 28">
       <r>    0.8972    1.0000 </r>
       <r>    5.5161    1.0000 </r>
       <r>    6.0100    0.0000 </r>
       <r>    7.2380    0.0000 </r>
       <r>    8.7270    0.0000 </r>
       <r>   10.7892    0.0000 </r>
      </set>
      <set comment="kpoint 29">
       <r>    1.9416    1.0000 </r>
       <r>    4.8910    1.0000 </r>
       <r>    5.5023    1.0000 </r>
       <r>    8.0419    0.0000 </r>
       <r>   10.8540    0.0000 </r>
       <r>   10.8930    0.0000 </r>
      </set>
      <set comment="kpoint 30">
       <r>    2.0664    1.0000 </r>
       <r>    4.5722    1.0000 </r>
       <r>    6.1442    0.0000 </r>
       <r>    7.5198    0.0000 </r>
       <r>    9.9842    0.0000 </r>
       <r>   10.9541    0.0000 </r>
      </set>
      <set comment="kpoint 31">
       <r>    2.1646    1.0000 </r>
       <r>    5.2038    1.0000 </r>
       <r>    5.2617    1.0000 </r>
       <r>    8.0169    0.0000 </r>
       <r>   11.9911    0.0000 </r>
       <r>   12.8532    0.0000 </r>
      </set>
      <set comment="kpoint 32">
       <r>    2.7714    1.0000 </r>
       <r>    4.1876    1.0000 </r>
       <r>    5.7459   -0.0302 </r>
       <r>    8.1543    0.0000 </r>
       <r>   10.7233    0.0000 </r>
       <r>   12.9121    0.0000 </r>
      </set>
      <set comment="kpoint 33">
       <r>    2.7833    1.0000 </r>
       <r>    4.5660    1.0000 </r>
       <r>    5.2989    1.0000 </r>
       <r>    8.1488    0.0000 </r>
       <r>   11.7593    0.0000 </r>
       <r>   14.5669    0.0000 </r>
      </set>
      <set comment="kpoint 34">
       <r>    3.6515    1.0000 </r>
       <r>    3.7129    1.0000 </r>
       <r>    4.9751    1.0000 </r>
       <r>    9.4170    0.0000 </r>
       <r>   10.5857    0.0000 </r>
       <r>   15.3714    0.0000 </r>
      </set>
      <set comment="kpoint 35">
       <r>    4.4754    1.0000 </r>
       <r>    4.4754    1.0000 </r>
       <r>    4.4754    1.0000 </r>
       <r>   10.7426    0.0000 </r>
       <r>   10.7426    0.0000 </r>
       <r>   12.7486    0.0000 </r>
      </set>
      <set comment="kpoint 36">
       <r>    1.9737    1.0000 </r>
       <r>    4.7887    1.0000 </r>
       <r>    6.9574    0.0000 </r>
       <r>    6.9574    0.0000 </r>
       <r>    8.8854    0.0000 </r>
       <r>   10.6877    0.0000 </r>
      </set>
      <set comment="kpoint 37">
       <r>    2.7964    1.0000 </r>
       <r>    3.8591    1.0000 </r>
       <r>    7.0178    0.0000 </r>
       <r>    7.6086    0.0000 </r>
       <r>   10.5482    0.0000 </r>
       <r>   10.8382    0.0000 </r>
      </set>
      <set comment="kpoint 38">
       <r>    2.8314    1.0000 </r>
       <r>    3.7729    1.0000 </r>
       <r>    6.8478    0.0000 </r>
       <r>    7.4923    0.0000 </r>
       <r>   12.5435    0.0000 </r>
       <r>   12.8268    0.0000 </r>
      </set>
      <set comment="kpoint 39">
       <r>    3.1226    1.0000 </r>
       <r>    3.1852    1.0000 </r>
       <r>    6.8599    0.0000 </r>
       <r>    8.8360    0.0000 </r>
       <r>   10.8185    0.0000 </r>
       <r>   12.9303    0.0000 </r>
      </set>
      <set comment="kpoint 40">
       <r>    2.9135    1.0000 </r>
       <r>    3.2375    1.0000 </r>
       <r>    6.5826    0.0000 </r>
       <r>    9.3517    0.0000 </r>
       <r>   11.6624    0.0000 </r>
       <r>   15.2736    0.0000 </r>
      </set>
      <set comment="kpoint 41">
       <r>    2.9000    1.0000 </r>
       <r>    2.9996    1.0000 </r>
       <r>    8.6151    0.0000 </r>
       <r>    8.6151    0.0000 </r>
       <r>   10.7696    0.0000 </r>
       <r>   10.9478    0.0000 </r>
      </set>
      <set comment="kpoint 42">
       <r>    2.5204    1.0000 </r>
       <r>    2.6828    1.0000 </r>
       <r>    9.0799    0.0000 </r>
       <r>    9.0866    0.0000 </r>
       <r>   12.2627    0.0000 </r>
       <r>   13.0745    0.0000 </r>
      </set>
      <set comment="kpoint 43">
       <r>    2.3667    1.0000 </r>
       <r>    2.3667    1.0000 </r>
       <r>    9.0120    0.0000 </r>
       <r>   11.4402    0.0000 </r>
       <r>   11.4402    0.0000 </r>
       <r>   15.5825    0.0000 </r>
      </set>
      <set comment="kpoint 44">
       <r>    2.0646    1.0000 </r>
       <r>    2.1116    1.0000 </r>
       <r>   11.3441    0.0000 </r>
       <r>   11.3441    0.0000 </r>
       <r>   12.2513    0.0000 </r>
       <r>   13.5561    0.0000 </r>
      </set>
     </set>
     <set comment="spin 2">
      <set comment="kpoint 1">
       <r>   -1.5509    1.0000 </r>
       <r>    6.0841    0.0000 </r>
       <r>    6.0841    0.0000 </r>
       <r>    7.1992    0.0000 </r>
       <r>    9.4414    0.0000 </r>
       <r>    9.4414    0.0000 </r>
      </set>
      <set comment="kpoint 2">
       <r>   -0.4282    1.0000 </r>
       <r>    5.4107    1.0000 </r>
       <r>    5.5944    1.0236 </r>
       <r>    8.5480    0.0000 </r>
       <r>    9.1248    0.0000 </r>
       <r>    9.7090    0.0000 </r>
      </set>
      <set comment="kpoint 3">
       <r>    0.8976    1.0000 </r>
       <r>    4.7538    1.0000 </r>
       <r>    5.2931    1.0000 </r>
       <r>    9.3435    0.0000 </r>
       <r>   10.0367    0.0000 </r>
       <r>   10.5210    0.0000 </r>
      </set>
      <set comment="kpoint 4">
       <r>    1.5266    1.0000 </r>
       <r>    4.3042    1.0000 </r>
       <r>    6.1046    0.0000 </r>
       <r>    9.6660    0.0000 </r>
       <r>   10.4003    0.0000 </r>
       <r>   12.6566    0.0000 </r>
      </set>
      <set comment="kpoint 5">
       <r>    1.5842    1.0000 </r>
       <r>    4.1459    1.0000 </r>
       <r>    6.9803    0.0000 </r>
       <r>    9.6474    0.0000 </r>
       <r>   10.5847    0.0000 </r>
       <r>   13.8025    0.0000 </r>
      </set>
      <set comment="kpoint 6">
       <r>   -1.9667    1.0000 </r>
       <r>    6.4023    0.0000 </r>
       <r>    6.4023    0.0000 </r>
       <r>    6.5404    0.0000 </r>
       <r>    9.3055    0.0000 </r>
       <r>    9.8022    0.0000 </r>
      </set>
      <set comment="kpoint 7">
       <r>    0.8421    1.0000 </r>
       <r>    4.8653    1.0000 </r>
       <r>    4.9375    1.0000 </r>
       <r>    9.2000    0.0000 </r>
       <r>   10.0824    0.0000 </r>
       <r>   10.4454    0.0000 </r>
      </set>
      <set comment="kpoint 8">
       <r>    2.0085    1.0000 </r>
       <r>    4.3936    1.0000 </r>
       <r>    4.9705    1.0000 </r>
       <r>    9.5008    0.0000 </r>
       <r>   10.4246    0.0000 </r>
       <r>   12.6712    0.0000 </r>
      </set>
      <set comment="kpoint 9">
       <r>    2.2868    1.0000 </r>
       <r>    4.1790    1.0000 </r>
       <r>    5.9357    0.0000 </r>
       <r>    9.7531    0.0000 </r>
       <r>   10.6259    0.0000 </r>
       <r>   14.5245    0.0000 </r>
      </set>
      <set comment="kpoint 10">
       <r>   -1.1503    1.0000 </r>
       <r>    5.9487    0.0000 </r>
       <r>    6.1773    0.0000 </r>
       <r>    7.3528    0.0000 </r>
       <r>    8.6233    0.0000 </r>
       <r>    9.9845    0.0000 </r>
      </set>
      <set comment="kpoint 11">
       <r>    2.9277    1.0000 </r>
       <r>    4.2885    1.0000 </r>
       <r>    5.0065    1.0000 </r>
       <r>    9.8150    0.0000 </r>
       <r>   10.5227    0.0000 </r>
       <r>   14.9550    0.0000 </r>
      </set>
      <set comment="kpoint 12">
       <r>    3.1088    1.0000 </r>
       <r>    4.3725    1.0000 </r>
       <r>    5.2475    1.0000 </r>
       <r>   10.0546    0.0000 </r>
       <r>   10.5672    0.0000 </r>
       <r>   14.3779    0.0000 </r>
      </set>
      <set comment="kpoint 13">
       <r>    0.1712    1.0000 </r>
       <r>    5.2602    1.0000 </r>
       <r>    5.6062    1.0334 </r>
       <r>    8.6481    0.0000 </r>
       <r>    8.9661    0.0000 </r>
       <r>   10.1806    0.0000 </r>
      </set>
      <set comment="kpoint 14">
       <r>   -0.0681    1.0000 </r>
       <r>    5.6238    1.0251 </r>
       <r>    5.6945    0.1809 </r>
       <r>    8.0652    0.0000 </r>
       <r>    8.4723    0.0000 </r>
       <r>   10.3837    0.0000 </r>
      </set>
      <set comment="kpoint 15">
       <r>    1.2089    1.0000 </r>
       <r>    4.6655    1.0000 </r>
       <r>    5.6896    0.2465 </r>
       <r>    9.1808    0.0000 </r>
       <r>   10.4081    0.0000 </r>
       <r>   11.1025    0.0000 </r>
      </set>
      <set comment="kpoint 16">
       <r>    1.2353    1.0000 </r>
       <r>    4.9138    1.0000 </r>
       <r>    5.3455    1.0000 </r>
       <r>    8.3670    0.0000 </r>
       <r>   10.3010    0.0000 </r>
       <r>   10.6864    0.0000 </r>
      </set>
      <set comment="kpoint 17">
       <r>    1.4519    1.0000 </r>
       <r>    4.3334    1.0000 </r>
       <r>    6.6923    0.0000 </r>
       <r>    9.3400    0.0000 </r>
       <r>   10.7774    0.0000 </r>
       <r>   13.0497    0.0000 </r>
      </set>
      <set comment="kpoint 18">
       <r>    1.8919    1.0000 </r>
       <r>    4.6117    1.0000 </r>
       <r>    5.5929    1.0222 </r>
       <r>    8.9063    0.0000 </r>
       <r>   10.7210    0.0000 </r>
       <r>   12.6902    0.0000 </r>
      </set>
      <set comment="kpoint 19">
       <r>    2.3583    1.0000 </r>
       <r>    4.3187    1.0000 </r>
       <r>    5.3516    1.0000 </r>
       <r>    8.6735    0.0000 </r>
       <r>   10.4266    0.0000 </r>
       <r>   12.7616    0.0000 </r>
      </set>
      <set comment="kpoint 20">
       <r>    1.9478    1.0000 </r>
       <r>    4.5101    1.0000 </r>
       <r>    6.0868    0.0000 </r>
       <r>    8.8601    0.0000 </r>
       <r>   11.2291    0.0000 </r>
       <r>   13.9421    0.0000 </r>
      </set>
      <set comment="kpoint 21">
       <r>    2.8284    1.0000 </r>
       <r>    4.3766    1.0000 </r>
       <r>    5.2166    1.0000 </r>
       <r>    9.1424    0.0000 </r>
       <r>   10.6471    0.0000 </r>
       <r>   15.0519    0.0000 </r>
      </set>
      <set comment="kpoint 22">
       <r>    3.4878    1.0000 </r>
       <r>    4.4745    1.0000 </r>
       <r>    4.4745    1.0000 </r>
       <r>   10.1051    0.0000 </r>
       <r>   10.1051    0.0000 </r>
       <r>   14.6689    0.0000 </r>
      </set>
      <set comment="kpoint 23">
       <r>    2.2286    1.0000 </r>
       <r>    4.3809    1.0000 </r>
       <r>    4.3809    1.0000 </r>
       <r>   10.0492    0.0000 </r>
       <r>   10.0492    0.0000 </r>
       <r>   12.7789    0.0000 </r>
      </set>
      <set comment="kpoint 24">
       <r>    3.1362    1.0000 </r>
       <r>    4.1350    1.0000 </r>
       <r>    4.7791    1.0000 </r>
       <r>   10.2158    0.0000 </r>
       <r>   10.5266    0.0000 </r>
       <r>   14.9660    0.0000 </r>
      </set>
      <set comment="kpoint 25">
       <r>    3.1440    1.0000 </r>
       <r>    4.0629    1.0000 </r>
       <r>    5.6015    1.0300 </r>
       <r>   10.2757    0.0000 </r>
       <r>   10.6784    0.0000 </r>
       <r>   14.3639    0.0000 </r>
      </set>
      <set comment="kpoint 26">
       <r>   -0.3731    1.0000 </r>
       <r>    6.3600    0.0000 </r>
       <r>    6.3600    0.0000 </r>
       <r>    7.1659    0.0000 </r>
       <r>    7.3590    0.0000 </r>
       <r>   10.5800    0.0000 </r>
      </set>
      <set comment="kpoint 27">
       <r>    3.7377    1.0000 </r>
       <r>    4.3984    1.0000 </r>
       <r>    4.8271    1.0000 </r>
       <r>   10.5296    0.0000 </r>
       <r>   10.6592    0.0000 </r>
       <r>   13.6557    0.0000 </r>
      </set>
      <set comment="kpoint 28">
       <r>    0.8895    1.0000 </r>
       <r>    5.5094    1.0000 </r>
       <r>    6.0025    0.0000 </r>
       <r>    7.2312    0.0000 </r>
       <r>    8.7199    0.0000 </r>
       <r>   10.7840    0.0000 </r>
      </set>
      <set comment="kpoint 29">
       <r>    1.9341    1.0000 </r>
       <r>    4.8843    1.0000 </r>
       <r>    5.4949    1.0000 </r>
       <r>    8.0352    0.0000 </r>
       <r>   10.8473    0.0000 </r>
       <r>   10.8874    0.0000 </r>
      </set>
      <set comment="kpoint 30">
       <r>    2.0589    1.0000 </r>
       <r>    4.5656    1.0000 </r>
       <r>    6.1368    0.0000 </r>
       <r>    7.5129    0.0000 </r>
       <r>    9.9776    0.0000 </r>
       <r>   10.9483    0.0000 </r>
      </set>
      <set comment="kpoint 31">
       <r>    2.1572    1.0000 </r>
       <r>    5.1963    1.0000 </r>
       <r>    5.2550    1.0000 </r>
       <r>    8.0104    0.0000 </r>
       <r>   11.9850    0.0000 </r>
       <r>   12.8472    0.0000 </r>
      </set>
      <set comment="kpoint 32">
       <r>    2.7641    1.0000 </r>
       <r>    4.1809    1.0000 </r>
       <r>    5.7386   -0.0348 </r>
       <r>    8.1475    0.0000 </r>
       <r>   10.7170    0.0000 </r>
       <r>   12.9058    0.0000 </r>
      </set>
      <set comment="kpoint 33">
       <r>    2.7762    1.0000 </r>
       <r>    4.5594    1.0000 </r>
       <r>    5.2915    1.0000 </r>
       <r>    8.1420    0.0000 </r>
       <r>   11.7530    0.0000 </r>
       <r>   14.5607    0.0000 </r>
      </set>
      <set comment="kpoint 34">
       <r>    3.6445    1.0000 </r>
       <r>    3.7063    1.0000 </r>
       <r>    4.9678    1.0000 </r>
       <r>    9.4103    0.0000 </r>
       <r>   10.5791    0.0000 </r>
       <r>   15.3650    0.0000 </r>
      </set>
      <set comment="kpoint 35">
       <r>    4.4679    1.0000 </r>
       <r>    4.4679    1.0000 </r>
       <r>    4.4679    1.0000 </r>
       <r>   10.7377    0.0000 </r>
       <r>   10.7377    0.0000 </r>
       <r>   12.7402    0.0000 </r>
      </set>
      <set comment="kpoint 36">
       <r>    1.9662    1.0000 </r>
       <r>    4.7824    1.0000 </r>
       <r>    6.9501    0.0000 </r>
       <r>    6.9501    0.0000 </r>
       <r>    8.8783    0.0000 </r>
       <r>   10.6821    0.0000 </r>
      </set>
      <set comment="kpoint 37">
       <r>    2.7893    1.0000 </r>
       <r>    3.8526    1.0000 </r>
       <r>    7.0105    0.0000 </r>
       <r>    7.6015    0.0000 </r>
       <r>   10.5415    0.0000 </r>
       <r>   10.8317    0.0000 </r>
      </set>
      <set comment="kpoint 38">
       <r>    2.8246    1.0000 </r>
       <r>    3.7663    1.0000 </r>
       <r>    6.8405    0.0000 </r>
       <r>    7.4852    0.0000 </r>
       <r>   12.5374    0.0000 </r>
       <r>   12.8198    0.0000 </r>
      </set>
      <set comment="kpoint 39">
       <r>    3.1158    1.0000 </r>
       <r>    3.1787    1.0000 </r>
       <r>    6.8526    0.0000 </r>
       <r>    8.8290    0.0000 </r>
       <r>   10.8116    0.0000 </r>
       <r>   12.9237    0.0000 </r>
      </set>
      <set comment="kpoint 40">
       <r>    2.9069    1.0000 </r>
       <r>    3.2310    1.0000 </r>
       <r>    6.5751    0.0000 </r>
       <r>    9.3447    0.0000 </r>
       <r>   11.6559    0.0000 </r>
       <r>   15.2667    0.0000 </r>
      </set>
      <set comment="kpoint 41">
       <r>    2.8933    1.0000 </r>
       <r>    2.9932    1.0000 </r>
       <r>    8.6080    0.0000 </r>
       <r>    8.6080    0.0000 </r>
       <r>   10.7630    0.0000 </r>
       <r>   10.9405    0.0000 </r>
      </set>
      <set comment="kpoint 42">
       <r>    2.5139    1.0000 </r>
       <r>    2.6763    1.0000 </r>
       <r>    9.0727    0.0000 </r>
       <r>    9.0795    0.0000 </r>
       <r>   12.2566    0.0000 </r>
       <r>   13.0669    0.0000 </r>
      </set>
      <set comment="kpoint 43">
       <r>    2.3601    1.0000 </r>
       <r>    2.3601    1.0000 </r>
       <r>    9.0048    0.0000 </r>
       <r>   11.4336    0.0000 </r>
       <r>   11.4336    0.0000 </r>
       <r>   15.5751    0.0000 </r>
      </set>
      <set comment="kpoint 44">
       <r>    2.0581    1.0000 </r>
       <r>    2.1050    1.0000 </r>
       <r>   11.3374    0.0000 </r>
       <r>   11.3374    0.0000 </r>
       <r>   12.2453    0.0000 </r>
       <r>   13.5481    0.0000 </r>
      </set>
     </set>
    </set>
   </array>
  </eigenvalues>
  <separator name="orbital magnetization" >
   <v name="MAGDIPOLOUT">      0.00000000      0.00000000      0.00000000</v>
  </separator>
  <dos>
   <i name="efermi">      5.67381164 </i>
   <total>
    <array>
     <dimension dim="1">gridpoints</dimension>
     <dimension dim="2">spin</dimension>
     <field>energy</field>
     <field>total</field>
     <field>integrated</field>
     <set>
      <set comment="spin 1">
       <r>    -2.8441     0.0000     0.0000 </r>
       <r>    -2.7798     0.0000     0.0000 </r>
       <r>    -2.7154     0.0000     0.0000 </r>
       <r>    -2.6511     0.0000     0.0000 </r>
       <r>    -2.5867     0.0000     0.0000 </r>
       <r>    -2.5224     0.0000     0.0000 </r>
       <r>    -2.4580     0.0000     0.0000 </r>
       <r>    -2.3937     0.0000     0.0000 </r>
       <r>    -2.3294     0.0000     0.0000 </r>
       <r>    -2.2650     0.0000     0.0000 </r>
       <r>    -2.2007     0.0000     0.0000 </r>
       <r>    -2.1363     0.0000     0.0000 </r>
       <r>    -2.0720    -0.0003     0.0000 </r>
       <r>    -2.0076    -0.0018    -0.0001 </r>
       <r>    -1.9433     0.0718     0.0045 </r>
       <r>    -1.8789     0.0257     0.0061 </r>
       <r>    -1.8146    -0.0022     0.0060 </r>
       <r>    -1.7502     0.0000     0.0060 </r>
       <r>    -1.6859     0.0000     0.0060 </r>
       <r>    -1.6215    -0.0030     0.0058 </r>
       <r>    -1.5572     0.0364     0.0081 </r>
       <r>    -1.4928     0.0941     0.0142 </r>
       <r>    -1.4285    -0.0028     0.0140 </r>
       <r>    -1.3642    -0.0004     0.0140 </r>
       <r>    -1.2998     0.0000     0.0140 </r>
       <r>    -1.2355    -0.0045     0.0137 </r>
       <r>    -1.1711     0.0387     0.0162 </r>
       <r>    -1.1068     0.3254     0.0371 </r>
       <r>    -1.0424     0.0164     0.0382 </r>
       <r>    -0.9781    -0.0030     0.0380 </r>
       <r>    -0.9137     0.0000     0.0380 </r>
       <r>    -0.8494     0.0000     0.0380 </r>
       <r>    -0.7850     0.0000     0.0380 </r>
       <r>    -0.7207     0.0000     0.0380 </r>
       <r>    -0.6563     0.0000     0.0380 </r>
       <r>    -0.5920     0.0000     0.0380 </r>
       <r>    -0.5276    -0.0018     0.0379 </r>
       <r>    -0.4633    -0.0004     0.0379 </r>
       <r>    -0.3989     0.3155     0.0582 </r>
       <r>    -0.3346     0.1527     0.0680 </r>
       <r>    -0.2703     0.0013     0.0681 </r>
       <r>    -0.2059    -0.0011     0.0680 </r>
       <r>    -0.1416    -0.0081     0.0675 </r>
       <r>    -0.0772     0.0937     0.0735 </r>
       <r>    -0.0129     0.2943     0.0924 </r>
       <r>     0.0515    -0.0060     0.0921 </r>
       <r>     0.1158    -0.0141     0.0912 </r>
       <r>     0.1802     0.2069     0.1045 </r>
       <r>     0.2445     0.1921     0.1168 </r>
       <r>     0.3089    -0.0126     0.1160 </r>
       <r>     0.3732    -0.0003     0.1160 </r>
       <r>     0.4376     0.0000     0.1160 </r>
       <r>     0.5019     0.0000     0.1160 </r>
       <r>     0.5663     0.0000     0.1160 </r>
       <r>     0.6306     0.0000     0.1160 </r>
       <r>     0.6950     0.0000     0.1160 </r>
       <r>     0.7593    -0.0053     0.1157 </r>
       <r>     0.8236     0.0297     0.1176 </r>
       <r>     0.8880     0.5534     0.1532 </r>
       <r>     0.9523     0.5624     0.1894 </r>
       <r>     1.0167    -0.0192     0.1881 </r>
       <r>     1.0810    -0.0022     0.1880 </r>
       <r>     1.1454    -0.0182     0.1868 </r>
       <r>     1.2097     0.2007     0.1997 </r>
       <r>     1.2741     0.8963     0.2574 </r>
       <r>     1.3384     0.0483     0.2605 </r>
       <r>     1.4028    -0.0208     0.2592 </r>
       <r>     1.4671     0.2341     0.2742 </r>
       <r>     1.5315     0.3253     0.2952 </r>
       <r>     1.5958     0.3189     0.3157 </r>
       <r>     1.6602     0.0736     0.3204 </r>
       <r>     1.7245    -0.0064     0.3200 </r>
       <r>     1.7888    -0.0030     0.3198 </r>
       <r>     1.8532    -0.0173     0.3187 </r>
       <r>     1.9175     0.6569     0.3610 </r>
       <r>     1.9819     0.9093     0.4195 </r>
       <r>     2.0462     0.8213     0.4723 </r>
       <r>     2.1106     0.4761     0.5030 </r>
       <r>     2.1749     0.2969     0.5221 </r>
       <r>     2.2393     0.1768     0.5335 </r>
       <r>     2.3036     0.5409     0.5683 </r>
       <r>     2.3680     0.6261     0.6085 </r>
       <r>     2.4323     0.2869     0.6270 </r>
       <r>     2.4967     0.0386     0.6295 </r>
       <r>     2.5610     0.3157     0.6498 </r>
       <r>     2.6254    -0.0077     0.6493 </r>
       <r>     2.6897     0.2177     0.6633 </r>
       <r>     2.7541     0.3519     0.6860 </r>
       <r>     2.8184     1.5094     0.7831 </r>
       <r>     2.8827     0.9882     0.8467 </r>
       <r>     2.9471     0.6358     0.8876 </r>
       <r>     3.0114     0.2056     0.9008 </r>
       <r>     3.0758    -0.0017     0.9007 </r>
       <r>     3.1401     0.8430     0.9549 </r>
       <r>     3.2045     0.8344     1.0086 </r>
       <r>     3.2688     0.3769     1.0329 </r>
       <r>     3.3332     0.0213     1.0343 </r>
       <r>     3.3975    -0.0051     1.0339 </r>
       <r>     3.4619     0.0073     1.0344 </r>
       <r>     3.5262     0.1085     1.0414 </r>
       <r>     3.5906    -0.0028     1.0412 </r>
       <r>     3.6549     0.2016     1.0542 </r>
       <r>     3.7193     0.4550     1.0834 </r>
       <r>     3.7836     0.7220     1.1299 </r>
       <r>     3.8479     0.2566     1.1464 </r>
       <r>     3.9123     0.2536     1.1627 </r>
       <r>     3.9766    -0.0129     1.1619 </r>
       <r>     4.0410     0.0137     1.1628 </r>
       <r>     4.1053     0.1402     1.1718 </r>
       <r>     4.1697     0.8439     1.2261 </r>
       <r>     4.2340     1.2472     1.3064 </r>
       <r>     4.2984     0.3149     1.3266 </r>
       <r>     4.3627     1.3815     1.4155 </r>
       <r>     4.4271     2.1256     1.5523 </r>
       <r>     4.4914     0.4349     1.5803 </r>
       <r>     4.5558     0.6175     1.6200 </r>
       <r>     4.6201     0.9549     1.6815 </r>
       <r>     4.6845     0.6212     1.7214 </r>
       <r>     4.7488     0.2247     1.7359 </r>
       <r>     4.8132     0.7107     1.7816 </r>
       <r>     4.8775     0.6834     1.8256 </r>
       <r>     4.9418     1.2782     1.9079 </r>
       <r>     5.0062     1.4694     2.0024 </r>
       <r>     5.0705     0.3306     2.0237 </r>
       <r>     5.1349    -0.0504     2.0204 </r>
       <r>     5.1992     0.2403     2.0359 </r>
       <r>     5.2636     1.5182     2.1336 </r>
       <r>     5.3279     1.3379     2.2197 </r>
       <r>     5.3923     1.0540     2.2875 </r>
       <r>     5.4566     0.3324     2.3089 </r>
       <r>     5.5210     0.4971     2.3409 </r>
       <r>     5.5853     0.6278     2.3813 </r>
       <r>     5.6497     1.6006     2.4843 </r>
       <r>     5.7140     0.7005     2.5293 </r>
       <r>     5.7784     0.8545     2.5843 </r>
       <r>     5.8427     0.0264     2.5860 </r>
       <r>     5.9070     0.0139     2.5869 </r>
       <r>     5.9714     0.9443     2.6477 </r>
       <r>     6.0357     0.4731     2.6781 </r>
       <r>     6.1001     0.5558     2.7139 </r>
       <r>     6.1644     0.9022     2.7719 </r>
       <r>     6.2288     0.3540     2.7947 </r>
       <r>     6.2931    -0.0152     2.7937 </r>
       <r>     6.3575     0.0609     2.7977 </r>
       <r>     6.4218     0.2656     2.8148 </r>
       <r>     6.4862     0.0487     2.8179 </r>
       <r>     6.5505     0.0759     2.8228 </r>
       <r>     6.6149     0.3657     2.8463 </r>
       <r>     6.6792     0.0995     2.8527 </r>
       <r>     6.7436     0.2997     2.8720 </r>
       <r>     6.8079    -0.0050     2.8717 </r>
       <r>     6.8723     0.5854     2.9093 </r>
       <r>     6.9366     0.2014     2.9223 </r>
       <r>     7.0009     0.3721     2.9462 </r>
       <r>     7.0653     0.3505     2.9688 </r>
       <r>     7.1296    -0.0158     2.9678 </r>
       <r>     7.1940     0.1153     2.9752 </r>
       <r>     7.2583     0.4119     3.0017 </r>
       <r>     7.3227     0.0828     3.0070 </r>
       <r>     7.3870     0.3905     3.0321 </r>
       <r>     7.4514     0.0563     3.0358 </r>
       <r>     7.5157     0.4773     3.0665 </r>
       <r>     7.5801     0.3263     3.0875 </r>
       <r>     7.6444     0.3064     3.1072 </r>
       <r>     7.7088     0.0154     3.1082 </r>
       <r>     7.7731    -0.0029     3.1080 </r>
       <r>     7.8375     0.0000     3.1080 </r>
       <r>     7.9018    -0.0011     3.1079 </r>
       <r>     7.9662    -0.0210     3.1066 </r>
       <r>     8.0305     0.4077     3.1328 </r>
       <r>     8.0948     0.6613     3.1754 </r>
       <r>     8.1592     0.7639     3.2245 </r>
       <r>     8.2235     0.4615     3.2542 </r>
       <r>     8.2879    -0.0475     3.2512 </r>
       <r>     8.3522     0.1438     3.2604 </r>
       <r>     8.4166     0.6055     3.2994 </r>
       <r>     8.4809     0.1982     3.3121 </r>
       <r>     8.5453     0.3073     3.3319 </r>
       <r>     8.6096     0.3960     3.3574 </r>
       <r>     8.6740     0.8649     3.4130 </r>
       <r>     8.7383     0.5689     3.4496 </r>
       <r>     8.8027     0.1109     3.4568 </r>
       <r>     8.8670     0.5332     3.4911 </r>
       <r>     8.9314     0.9018     3.5491 </r>
       <r>     8.9957     0.4850     3.5803 </r>
       <r>     9.0600     0.2494     3.5964 </r>
       <r>     9.1244     0.8722     3.6525 </r>
       <r>     9.1887     1.1866     3.7289 </r>
       <r>     9.2531     0.4628     3.7586 </r>
       <r>     9.3174     0.1208     3.7664 </r>
       <r>     9.3818     1.0247     3.8323 </r>
       <r>     9.4461     0.5031     3.8647 </r>
       <r>     9.5105     0.6096     3.9039 </r>
       <r>     9.5748     0.3282     3.9251 </r>
       <r>     9.6392     0.0446     3.9279 </r>
       <r>     9.7035     0.5725     3.9648 </r>
       <r>     9.7679     0.7894     4.0156 </r>
       <r>     9.8322     0.6154     4.0552 </r>
       <r>     9.8966     0.1072     4.0621 </r>
       <r>     9.9609     0.0739     4.0668 </r>
       <r>    10.0253     0.7617     4.1158 </r>
       <r>    10.0896     1.1116     4.1874 </r>
       <r>    10.1539     0.4464     4.2161 </r>
       <r>    10.2183     0.4704     4.2464 </r>
       <r>    10.2826     0.4533     4.2755 </r>
       <r>    10.3470     0.6702     4.3186 </r>
       <r>    10.4113     0.9913     4.3824 </r>
       <r>    10.4757     1.5961     4.4851 </r>
       <r>    10.5400     1.1996     4.5623 </r>
       <r>    10.6044     1.6861     4.6708 </r>
       <r>    10.6687     1.7302     4.7822 </r>
       <r>    10.7331     2.2192     4.9249 </r>
       <r>    10.7974     1.2764     5.0071 </r>
       <r>    10.8618     1.1079     5.0784 </r>
       <r>    10.9261     0.5740     5.1153 </r>
       <r>    10.9905     0.4064     5.1415 </r>
       <r>    11.0548    -0.0001     5.1414 </r>
       <r>    11.1191     0.2561     5.1579 </r>
       <r>    11.1835     0.1257     5.1660 </r>
       <r>    11.2478     0.2639     5.1830 </r>
       <r>    11.3122     0.1300     5.1914 </r>
       <r>    11.3765     0.1456     5.2007 </r>
       <r>    11.4409     0.1486     5.2103 </r>
       <r>    11.5052     0.1284     5.2186 </r>
       <r>    11.5696    -0.0130     5.2177 </r>
       <r>    11.6339     0.0390     5.2202 </r>
       <r>    11.6983     0.3123     5.2403 </r>
       <r>    11.7626     0.2364     5.2555 </r>
       <r>    11.8270     0.1750     5.2668 </r>
       <r>    11.8913    -0.0152     5.2658 </r>
       <r>    11.9557     0.0166     5.2669 </r>
       <r>    12.0200     0.3255     5.2878 </r>
       <r>    12.0844     0.0382     5.2903 </r>
       <r>    12.1487    -0.0062     5.2899 </r>
       <r>    12.2130    -0.0056     5.2895 </r>
       <r>    12.2774     0.3643     5.3130 </r>
       <r>    12.3417     0.1195     5.3207 </r>
       <r>    12.4061    -0.0103     5.3200 </r>
       <r>    12.4704    -0.0109     5.3193 </r>
       <r>    12.5348     0.1430     5.3285 </r>
       <r>    12.5991     0.2149     5.3423 </r>
       <r>    12.6635     0.4562     5.3717 </r>
       <r>    12.7278     1.4173     5.4629 </r>
       <r>    12.7922     0.4578     5.4923 </r>
       <r>    12.8565     0.6121     5.5317 </r>
       <r>    12.9209     0.8487     5.5863 </r>
       <r>    12.9852     0.5091     5.6191 </r>
       <r>    13.0496     0.1808     5.6307 </r>
       <r>    13.1139     0.5563     5.6665 </r>
       <r>    13.1782    -0.0053     5.6662 </r>
       <r>    13.2426    -0.0029     5.6660 </r>
       <r>    13.3069     0.0000     5.6660 </r>
       <r>    13.3713     0.0000     5.6660 </r>
       <r>    13.4356    -0.0002     5.6660 </r>
       <r>    13.5000    -0.0030     5.6658 </r>
       <r>    13.5643     0.0594     5.6696 </r>
       <r>    13.6287     0.0544     5.6731 </r>
       <r>    13.6930     0.3226     5.6939 </r>
       <r>    13.7574     0.0324     5.6960 </r>
       <r>    13.8217     0.1342     5.7046 </r>
       <r>    13.8861     0.0444     5.7075 </r>
       <r>    13.9504     0.2107     5.7210 </r>
       <r>    14.0148     0.1834     5.7328 </r>
       <r>    14.0791    -0.0124     5.7320 </r>
       <r>    14.1435    -0.0002     5.7320 </r>
       <r>    14.2078     0.0000     5.7320 </r>
       <r>    14.2721    -0.0026     5.7318 </r>
       <r>    14.3365     0.0010     5.7319 </r>
       <r>    14.4008     0.4482     5.7607 </r>
       <r>    14.4652     0.0955     5.7669 </r>
       <r>    14.5295     0.3865     5.7917 </r>
       <r>    14.5939     0.7330     5.8389 </r>
       <r>    14.6582     0.0488     5.8421 </r>
       <r>    14.7226     0.0942     5.8481 </r>
       <r>    14.7869    -0.0014     5.8480 </r>
       <r>    14.8513    -0.0026     5.8479 </r>
       <r>    14.9156    -0.0157     5.8469 </r>
       <r>    14.9800     0.5298     5.8809 </r>
       <r>    15.0443     0.4615     5.9106 </r>
       <r>    15.1087     0.5385     5.9453 </r>
       <r>    15.1730    -0.0210     5.9439 </r>
       <r>    15.2374     0.0126     5.9448 </r>
       <r>    15.3017     0.3130     5.9649 </r>
       <r>    15.3660     0.2060     5.9782 </r>
       <r>    15.4304     0.2283     5.9928 </r>
       <r>    15.4947    -0.0146     5.9919 </r>
       <r>    15.5591     0.0199     5.9932 </r>
       <r>    15.6234     0.1053     6.0000 </r>
       <r>    15.6878     0.0013     6.0000 </r>
       <r>    15.7521    -0.0007     6.0000 </r>
       <r>    15.8165     0.0000     6.0000 </r>
       <r>    15.8808     0.0000     6.0000 </r>
       <r>    15.9452     0.0000     6.0000 </r>
       <r>    16.0095     0.0000     6.0000 </r>
       <r>    16.0739     0.0000     6.0000 </r>
       <r>    16.1382     0.0000     6.0000 </r>
       <r>    16.2026     0.0000     6.0000 </r>
       <r>    16.2669     0.0000     6.0000 </r>
       <r>    16.3312     0.0000     6.0000 </r>
       <r>    16.3956     0.0000     6.0000 </r>
       <r>    16.4599     0.0000     6.0000 </r>
      </set>
      <set comment="spin 2">
       <r>    -2.8441     0.0000     0.0000 </r>
       <r>    -2.7798     0.0000     0.0000 </r>
       <r>    -2.7154     0.0000     0.0000 </r>
       <r>    -2.6511     0.0000     0.0000 </r>
       <r>    -2.5867     0.0000     0.0000 </r>
       <r>    -2.5224     0.0000     0.0000 </r>
       <r>    -2.4580     0.0000     0.0000 </r>
       <r>    -2.3937     0.0000     0.0000 </r>
       <r>    -2.3294     0.0000     0.0000 </r>
       <r>    -2.2650     0.0000     0.0000 </r>
       <r>    -2.2007     0.0000     0.0000 </r>
       <r>    -2.1363     0.0000     0.0000 </r>
       <r>    -2.0720    -0.0005     0.0000 </r>
       <r>    -2.0076     0.0010     0.0000 </r>
       <r>    -1.9433     0.0790     0.0051 </r>
       <r>    -1.8789     0.0153     0.0061 </r>
       <r>    -1.8146    -0.0015     0.0060 </r>
       <r>    -1.7502     0.0000     0.0060 </r>
       <r>    -1.6859    -0.0001     0.0060 </r>
       <r>    -1.6215    -0.0038     0.0057 </r>
       <r>    -1.5572     0.0528     0.0091 </r>
       <r>    -1.4928     0.0797     0.0143 </r>
       <r>    -1.4285    -0.0041     0.0140 </r>
       <r>    -1.3642    -0.0002     0.0140 </r>
       <r>    -1.2998     0.0000     0.0140 </r>
       <r>    -1.2355    -0.0068     0.0136 </r>
       <r>    -1.1711     0.0737     0.0183 </r>
       <r>    -1.1068     0.3084     0.0381 </r>
       <r>    -1.0424    -0.0005     0.0381 </r>
       <r>    -0.9781    -0.0017     0.0380 </r>
       <r>    -0.9137     0.0000     0.0380 </r>
       <r>    -0.8494     0.0000     0.0380 </r>
       <r>    -0.7850     0.0000     0.0380 </r>
       <r>    -0.7207     0.0000     0.0380 </r>
       <r>    -0.6563     0.0000     0.0380 </r>
       <r>    -0.5920     0.0000     0.0380 </r>
       <r>    -0.5276    -0.0031     0.0378 </r>
       <r>    -0.4633     0.0165     0.0389 </r>
       <r>    -0.3989     0.3385     0.0606 </r>
       <r>    -0.3346     0.1170     0.0682 </r>
       <r>    -0.2703    -0.0021     0.0680 </r>
       <r>    -0.2059    -0.0008     0.0680 </r>
       <r>    -0.1416    -0.0107     0.0673 </r>
       <r>    -0.0772     0.1405     0.0763 </r>
       <r>    -0.0129     0.2555     0.0928 </r>
       <r>     0.0515    -0.0122     0.0920 </r>
       <r>     0.1158    -0.0123     0.0912 </r>
       <r>     0.1802     0.2546     0.1076 </r>
       <r>     0.2445     0.1415     0.1167 </r>
       <r>     0.3089    -0.0107     0.1160 </r>
       <r>     0.3732    -0.0001     0.1160 </r>
       <r>     0.4376     0.0000     0.1160 </r>
       <r>     0.5019     0.0000     0.1160 </r>
       <r>     0.5663     0.0000     0.1160 </r>
       <r>     0.6306     0.0000     0.1160 </r>
       <r>     0.6950     0.0000     0.1160 </r>
       <r>     0.7593    -0.0080     0.1155 </r>
       <r>     0.8236     0.0627     0.1195 </r>
       <r>     0.8880     0.6274     0.1599 </r>
       <r>     0.9523     0.4635     0.1897 </r>
       <r>     1.0167    -0.0256     0.1881 </r>
       <r>     1.0810    -0.0015     0.1880 </r>
       <r>     1.1454    -0.0235     0.1865 </r>
       <r>     1.2097     0.3075     0.2063 </r>
       <r>     1.2741     0.8358     0.2600 </r>
       <r>     1.3384     0.0036     0.2603 </r>
       <r>     1.4028    -0.0132     0.2594 </r>
       <r>     1.4671     0.2731     0.2770 </r>
       <r>     1.5315     0.3290     0.2982 </r>
       <r>     1.5958     0.2940     0.3171 </r>
       <r>     1.6602     0.0507     0.3203 </r>
       <r>     1.7245    -0.0051     0.3200 </r>
       <r>     1.7888    -0.0050     0.3197 </r>
       <r>     1.8532     0.0049     0.3200 </r>
       <r>     1.9175     0.7593     0.3689 </r>
       <r>     1.9819     0.8755     0.4252 </r>
       <r>     2.0462     0.8198     0.4779 </r>
       <r>     2.1106     0.4102     0.5043 </r>
       <r>     2.1749     0.3143     0.5246 </r>
       <r>     2.2393     0.1610     0.5349 </r>
       <r>     2.3036     0.6035     0.5738 </r>
       <r>     2.3680     0.6096     0.6130 </r>
       <r>     2.4323     0.2125     0.6267 </r>
       <r>     2.4967     0.0747     0.6315 </r>
       <r>     2.5610     0.2938     0.6504 </r>
       <r>     2.6254    -0.0148     0.6494 </r>
       <r>     2.6897     0.2461     0.6653 </r>
       <r>     2.7541     0.4360     0.6933 </r>
       <r>     2.8184     1.5695     0.7943 </r>
       <r>     2.8827     0.8636     0.8499 </r>
       <r>     2.9471     0.6433     0.8913 </r>
       <r>     3.0114     0.1504     0.9009 </r>
       <r>     3.0758     0.0205     0.9023 </r>
       <r>     3.1401     0.9585     0.9639 </r>
       <r>     3.2045     0.7414     1.0117 </r>
       <r>     3.2688     0.3449     1.0339 </r>
       <r>     3.3332     0.0049     1.0342 </r>
       <r>     3.3975    -0.0044     1.0339 </r>
       <r>     3.4619     0.0166     1.0350 </r>
       <r>     3.5262     0.1064     1.0418 </r>
       <r>     3.5906    -0.0088     1.0412 </r>
       <r>     3.6549     0.2435     1.0569 </r>
       <r>     3.7193     0.4886     1.0883 </r>
       <r>     3.7836     0.6906     1.1328 </r>
       <r>     3.8479     0.2477     1.1487 </r>
       <r>     3.9123     0.2196     1.1628 </r>
       <r>     3.9766    -0.0160     1.1618 </r>
       <r>     4.0410     0.0279     1.1636 </r>
       <r>     4.1053     0.1521     1.1734 </r>
       <r>     4.1697     1.0180     1.2389 </r>
       <r>     4.2340     1.0617     1.3072 </r>
       <r>     4.2984     0.4204     1.3343 </r>
       <r>     4.3627     1.4970     1.4306 </r>
       <r>     4.4271     1.9996     1.5593 </r>
       <r>     4.4914     0.3815     1.5838 </r>
       <r>     4.5558     0.6512     1.6257 </r>
       <r>     4.6201     0.9699     1.6881 </r>
       <r>     4.6845     0.5499     1.7235 </r>
       <r>     4.7488     0.2559     1.7400 </r>
       <r>     4.8132     0.7155     1.7860 </r>
       <r>     4.8775     0.7253     1.8327 </r>
       <r>     4.9418     1.3417     1.9190 </r>
       <r>     5.0062     1.4004     2.0091 </r>
       <r>     5.0705     0.2210     2.0234 </r>
       <r>     5.1349    -0.0525     2.0200 </r>
       <r>     5.1992     0.3613     2.0432 </r>
       <r>     5.2636     1.5909     2.1456 </r>
       <r>     5.3279     1.2823     2.2281 </r>
       <r>     5.3923     0.9914     2.2919 </r>
       <r>     5.4566     0.2870     2.3104 </r>
       <r>     5.5210     0.5351     2.3448 </r>
       <r>     5.5853     0.7431     2.3926 </r>
       <r>     5.6497     1.5004     2.4892 </r>
       <r>     5.7140     0.7449     2.5371 </r>
       <r>     5.7784     0.7647     2.5863 </r>
       <r>     5.8427    -0.0114     2.5856 </r>
       <r>     5.9070     0.0726     2.5903 </r>
       <r>     5.9714     0.9925     2.6541 </r>
       <r>     6.0357     0.3953     2.6796 </r>
       <r>     6.1001     0.6562     2.7218 </r>
       <r>     6.1644     0.8478     2.7763 </r>
       <r>     6.2288     0.2904     2.7950 </r>
       <r>     6.2931    -0.0219     2.7936 </r>
       <r>     6.3575     0.0893     2.7994 </r>
       <r>     6.4218     0.2597     2.8161 </r>
       <r>     6.4862     0.0253     2.8177 </r>
       <r>     6.5505     0.1171     2.8252 </r>
       <r>     6.6149     0.3429     2.8473 </r>
       <r>     6.6792     0.1202     2.8550 </r>
       <r>     6.7436     0.2689     2.8723 </r>
       <r>     6.8079     0.0138     2.8732 </r>
       <r>     6.8723     0.6251     2.9134 </r>
       <r>     6.9366     0.1535     2.9233 </r>
       <r>     7.0009     0.4203     2.9504 </r>
       <r>     7.0653     0.2895     2.9690 </r>
       <r>     7.1296    -0.0183     2.9678 </r>
       <r>     7.1940     0.1479     2.9773 </r>
       <r>     7.2583     0.4064     3.0035 </r>
       <r>     7.3227     0.0769     3.0084 </r>
       <r>     7.3870     0.3988     3.0341 </r>
       <r>     7.4514     0.0390     3.0366 </r>
       <r>     7.5157     0.5334     3.0709 </r>
       <r>     7.5801     0.2840     3.0892 </r>
       <r>     7.6444     0.2939     3.1081 </r>
       <r>     7.7088     0.0002     3.1081 </r>
       <r>     7.7731    -0.0018     3.1080 </r>
       <r>     7.8375     0.0000     3.1080 </r>
       <r>     7.9018    -0.0018     3.1079 </r>
       <r>     7.9662    -0.0167     3.1068 </r>
       <r>     8.0305     0.4910     3.1384 </r>
       <r>     8.0948     0.6067     3.1774 </r>
       <r>     8.1592     0.8491     3.2321 </r>
       <r>     8.2235     0.3374     3.2538 </r>
       <r>     8.2879    -0.0454     3.2509 </r>
       <r>     8.3522     0.2123     3.2645 </r>
       <r>     8.4166     0.5567     3.3004 </r>
       <r>     8.4809     0.2240     3.3148 </r>
       <r>     8.5453     0.3048     3.3344 </r>
       <r>     8.6096     0.4196     3.3614 </r>
       <r>     8.6740     0.8806     3.4180 </r>
       <r>     8.7383     0.5251     3.4518 </r>
       <r>     8.8027     0.0960     3.4580 </r>
       <r>     8.8670     0.5998     3.4966 </r>
       <r>     8.9314     0.8860     3.5536 </r>
       <r>     8.9957     0.4475     3.5824 </r>
       <r>     9.0600     0.2799     3.6004 </r>
       <r>     9.1244     0.9211     3.6597 </r>
       <r>     9.1887     1.1619     3.7345 </r>
       <r>     9.2531     0.3722     3.7584 </r>
       <r>     9.3174     0.1972     3.7711 </r>
       <r>     9.3818     1.0183     3.8366 </r>
       <r>     9.4461     0.4777     3.8674 </r>
       <r>     9.5105     0.6372     3.9084 </r>
       <r>     9.5748     0.2535     3.9247 </r>
       <r>     9.6392     0.0845     3.9301 </r>
       <r>     9.7035     0.5936     3.9683 </r>
       <r>     9.7679     0.8079     4.0203 </r>
       <r>     9.8322     0.5739     4.0572 </r>
       <r>     9.8966     0.0690     4.0617 </r>
       <r>     9.9609     0.1276     4.0699 </r>
       <r>    10.0253     0.7932     4.1209 </r>
       <r>    10.0896     1.1114     4.1924 </r>
       <r>    10.1539     0.3858     4.2173 </r>
       <r>    10.2183     0.4949     4.2491 </r>
       <r>    10.2826     0.4835     4.2802 </r>
       <r>    10.3470     0.6213     4.3202 </r>
       <r>    10.4113     1.1460     4.3939 </r>
       <r>    10.4757     1.4656     4.4882 </r>
       <r>    10.5400     1.3433     4.5747 </r>
       <r>    10.6044     1.6020     4.6778 </r>
       <r>    10.6687     1.8105     4.7943 </r>
       <r>    10.7331     2.1933     4.9354 </r>
       <r>    10.7974     1.2177     5.0138 </r>
       <r>    10.8618     1.0888     5.0838 </r>
       <r>    10.9261     0.5314     5.1180 </r>
       <r>    10.9905     0.3765     5.1422 </r>
       <r>    11.0548    -0.0088     5.1417 </r>
       <r>    11.1191     0.2891     5.1603 </r>
       <r>    11.1835     0.0922     5.1662 </r>
       <r>    11.2478     0.2901     5.1849 </r>
       <r>    11.3122     0.1107     5.1920 </r>
       <r>    11.3765     0.1443     5.2013 </r>
       <r>    11.4409     0.1671     5.2120 </r>
       <r>    11.5052     0.1003     5.2185 </r>
       <r>    11.5696    -0.0139     5.2176 </r>
       <r>    11.6339     0.0672     5.2219 </r>
       <r>    11.6983     0.3006     5.2413 </r>
       <r>    11.7626     0.2595     5.2580 </r>
       <r>    11.8270     0.1357     5.2667 </r>
       <r>    11.8913    -0.0149     5.2657 </r>
       <r>    11.9557     0.0364     5.2681 </r>
       <r>    12.0200     0.3259     5.2890 </r>
       <r>    12.0844     0.0180     5.2902 </r>
       <r>    12.1487    -0.0058     5.2898 </r>
       <r>    12.2130     0.0061     5.2902 </r>
       <r>    12.2774     0.3900     5.3153 </r>
       <r>    12.3417     0.0806     5.3205 </r>
       <r>    12.4061    -0.0080     5.3200 </r>
       <r>    12.4704    -0.0124     5.3192 </r>
       <r>    12.5348     0.1816     5.3309 </r>
       <r>    12.5991     0.1715     5.3419 </r>
       <r>    12.6635     0.6182     5.3817 </r>
       <r>    12.7278     1.3175     5.4665 </r>
       <r>    12.7922     0.4577     5.4959 </r>
       <r>    12.8565     0.6160     5.5356 </r>
       <r>    12.9209     0.8984     5.5934 </r>
       <r>    12.9852     0.3927     5.6186 </r>
       <r>    13.0496     0.2599     5.6354 </r>
       <r>    13.1139     0.4958     5.6673 </r>
       <r>    13.1782    -0.0180     5.6661 </r>
       <r>    13.2426    -0.0017     5.6660 </r>
       <r>    13.3069     0.0000     5.6660 </r>
       <r>    13.3713     0.0000     5.6660 </r>
       <r>    13.4356    -0.0003     5.6660 </r>
       <r>    13.5000    -0.0016     5.6659 </r>
       <r>    13.5643     0.0678     5.6702 </r>
       <r>    13.6287     0.0701     5.6747 </r>
       <r>    13.6930     0.3203     5.6954 </r>
       <r>    13.7574     0.0105     5.6960 </r>
       <r>    13.8217     0.1482     5.7056 </r>
       <r>    13.8861     0.0290     5.7074 </r>
       <r>    13.9504     0.2471     5.7233 </r>
       <r>    14.0148     0.1458     5.7327 </r>
       <r>    14.0791    -0.0109     5.7320 </r>
       <r>    14.1435    -0.0001     5.7320 </r>
       <r>    14.2078     0.0000     5.7320 </r>
       <r>    14.2721    -0.0044     5.7317 </r>
       <r>    14.3365     0.0250     5.7333 </r>
       <r>    14.4008     0.4755     5.7639 </r>
       <r>    14.4652     0.0408     5.7665 </r>
       <r>    14.5295     0.4848     5.7977 </r>
       <r>    14.5939     0.6573     5.8400 </r>
       <r>    14.6582     0.0435     5.8428 </r>
       <r>    14.7226     0.0841     5.8482 </r>
       <r>    14.7869    -0.0036     5.8480 </r>
       <r>    14.8513    -0.0036     5.8478 </r>
       <r>    14.9156    -0.0016     5.8477 </r>
       <r>    14.9800     0.5779     5.8849 </r>
       <r>    15.0443     0.4661     5.9149 </r>
       <r>    15.1087     0.4785     5.9456 </r>
       <r>    15.1730    -0.0287     5.9438 </r>
       <r>    15.2374     0.0349     5.9460 </r>
       <r>    15.3017     0.3132     5.9662 </r>
       <r>    15.3660     0.2245     5.9806 </r>
       <r>    15.4304     0.1894     5.9928 </r>
       <r>    15.4947    -0.0154     5.9918 </r>
       <r>    15.5591     0.0328     5.9939 </r>
       <r>    15.6234     0.0967     6.0002 </r>
       <r>    15.6878    -0.0022     6.0000 </r>
       <r>    15.7521    -0.0004     6.0000 </r>
       <r>    15.8165     0.0000     6.0000 </r>
       <r>    15.8808     0.0000     6.0000 </r>
       <r>    15.9452     0.0000     6.0000 </r>
       <r>    16.0095     0.0000     6.0000 </r>
       <r>    16.0739     0.0000     6.0000 </r>
       <r>    16.1382     0.0000     6.0000 </r>
       <r>    16.2026     0.0000     6.0000 </r>
       <r>    16.2669     0.0000     6.0000 </r>
       <r>    16.3312     0.0000     6.0000 </r>
       <r>    16.3956     0.0000     6.0000 </r>
       <r>    16.4599     0.0000     6.0000 </r>
      </set>
     </set>
    </array>
   </total>
   <partial>
    <array>
     <dimension dim="1">gridpoints</dimension>
     <dimension dim="2">spin</dimension>
     <dimension dim="3">ion</dimension>
     <field>energy</field>
     <field>  s</field>
     <field> py</field>
     <field> pz</field>
     <field> px</field>
     <field>dxy</field>
     <field>dyz</field>
     <field>dz2</field>
     <field>dxz</field>
     <field>dx2</field>
     <set>
      <set comment="ion 1">
       <set comment="spin 1">
        <r>    -2.8441     0.0000     0.0000     0.0000     0.0000     0.0000     0.0000     0.0000     0.0000     0.0000 </r>
        <r>    -2.7798     0.0000     0.0000     0.0000     0.0000     0.0000     0.0000     0.0000     0.0000     0.0000 </r>
        <r>    -2.7154     0.0000     0.0000     0.0000     0.0000     0.0000     0.0000     0.0000     0.0000     0.0000 </r>
        <r>    -2.6511     0.0000     0.0000     0.0000     0.0000     0.0000     0.0000     0.0000     0.0000     0.0000 </r>
        <r>    -2.5867     0.0000     0.0000     0.0000     0.0000     0.0000     0.0000     0.0000     0.0000     0.0000 </r>
        <r>    -2.5224     0.0000     0.0000     0.0000     0.0000     0.0000     0.0000     0.0000     0.0000     0.0000 </r>
        <r>    -2.4580     0.0000     0.0000     0.0000     0.0000     0.0000     0.0000     0.0000     0.0000     0.0000 </r>
        <r>    -2.3937     0.0000     0.0000     0.0000     0.0000     0.0000     0.0000     0.0000     0.0000     0.0000 </r>
        <r>    -2.3294     0.0000     0.0000     0.0000     0.0000     0.0000     0.0000     0.0000     0.0000     0.0000 </r>
        <r>    -2.2650     0.0000     0.0000     0.0000     0.0000     0.0000     0.0000     0.0000     0.0000     0.0000 </r>
        <r>    -2.2007     0.0000     0.0000     0.0000     0.0000     0.0000     0.0000     0.0000     0.0000     0.0000 </r>
        <r>    -2.1363     0.0000     0.0000     0.0000     0.0000     0.0000     0.0000     0.0000     0.0000     0.0000 </r>
        <r>    -2.0720    -0.0002     0.0000     0.0000     0.0000     0.0000     0.0000     0.0000     0.0000     0.0000 </r>
        <r>    -2.0076    -0.0015     0.0000     0.0000     0.0000     0.0000     0.0000     0.0000     0.0000     0.0000 </r>
        <r>    -1.9433     0.0605     0.0002     0.0006     0.0004     0.0000     0.0000     0.0000     0.0000     0.0000 </r>
        <r>    -1.8789     0.0216     0.0001     0.0002     0.0001     0.0000     0.0000     0.0000     0.0000     0.0000 </r>
        <r>    -1.8146    -0.0018     0.0000     0.0000     0.0000     0.0000     0.0000     0.0000     0.0000     0.0000 </r>
        <r>    -1.7502     0.0000     0.0000     0.0000     0.0000     0.0000     0.0000     0.0000     0.0000     0.0000 </r>
        <r>    -1.6859     0.0000     0.0000     0.0000     0.0000     0.0000     0.0000     0.0000     0.0000     0.0000 </r>
        <r>    -1.6215    -0.0024     0.0000    -0.0001     0.0000     0.0000     0.0000     0.0000     0.0000     0.0000 </r>
        <r>    -1.5572     0.0297     0.0004     0.0011     0.0002     0.0000     0.0001     0.0000     0.0000     0.0000 </r>
[...]
       <set comment="band 1">
        <r>  0.5685 </r>
       </set>
       <set comment="band 2">
        <r>  0.0000 </r>
       </set>
       <set comment="band 3">
        <r>  0.0363 </r>
       </set>
       <set comment="band 4">
        <r>  0.0041 </r>
       </set>
       <set comment="band 5">
        <r>  0.0000 </r>
       </set>
       <set comment="band 6">
        <r>  0.0014 </r>
       </set>
      </set>
      <set comment="kpoint 4">
       <set comment="band 1">
        <r>  0.3531 </r>
       </set>
       <set comment="band 2">
        <r>  0.0000 </r>
       </set>
       <set comment="band 3">
        <r>  0.0695 </r>
       </set>
       <set comment="band 4">
        <r>  0.0235 </r>
       </set>
       <set comment="band 5">
        <r>  0.0000 </r>
       </set>
       <set comment="band 6">
        <r>  0.0001 </r>
       </set>
      </set>
      <set comment="kpoint 5">
       <set comment="band 1">
        <r>  0.2782 </r>
       </set>
       <set comment="band 2">
        <r>  0.0000 </r>
       </set>
       <set comment="band 3">
        <r>  0.0000 </r>
       </set>
       <set comment="band 4">
        <r>  0.0737 </r>
       </set>
       <set comment="band 5">
        <r>  0.0000 </r>
       </set>
       <set comment="band 6">
        <r>  0.0000 </r>
       </set>
      </set>
      <set comment="kpoint 6">
       <set comment="band 1">
        <r>  0.8420 </r>
       </set>
       <set comment="band 2">
        <r>  0.0000 </r>
       </set>
       <set comment="band 3">
        <r>  0.0000 </r>
       </set>
       <set comment="band 4">
        <r>  0.0000 </r>
       </set>
       <set comment="band 5">
        <r>  0.0000 </r>
       </set>
       <set comment="band 6">
        <r>  0.0001 </r>
       </set>
      </set>
      <set comment="kpoint 7">
       <set comment="band 1">
        <r>  0.6235 </r>
       </set>
       <set comment="band 2">
        <r>  0.0000 </r>
       </set>
       <set comment="band 3">
        <r>  0.0056 </r>
       </set>
       <set comment="band 4">
        <r>  0.0000 </r>
       </set>
       <set comment="band 5">
        <r>  0.0039 </r>
       </set>
       <set comment="band 6">
        <r>  0.0038 </r>
       </set>
      </set>
      <set comment="kpoint 8">
       <set comment="band 1">
        <r>  0.4211 </r>
       </set>
       <set comment="band 2">
        <r>  0.0002 </r>
       </set>
       <set comment="band 3">
        <r>  0.0467 </r>
       </set>
       <set comment="band 4">
        <r>  0.0028 </r>
       </set>
       <set comment="band 5">
        <r>  0.0140 </r>
       </set>
       <set comment="band 6">
        <r>  0.0024 </r>
       </set>
      </set>
      <set comment="kpoint 9">
       <set comment="band 1">
        <r>  0.2498 </r>
       </set>
       <set comment="band 2">
        <r>  0.0000 </r>
       </set>
       <set comment="band 3">
        <r>  0.0255 </r>
       </set>
       <set comment="band 4">
        <r>  0.0413 </r>
       </set>
       <set comment="band 5">
        <r>  0.0091 </r>
       </set>
       <set comment="band 6">
        <r>  0.0002 </r>
       </set>
      </set>
      <set comment="kpoint 10">
       <set comment="band 1">
        <r>  0.7877 </r>
       </set>
       <set comment="band 2">
        <r>  0.0000 </r>
       </set>
       <set comment="band 3">
        <r>  0.0012 </r>
       </set>
       <set comment="band 4">
        <r>  0.0000 </r>
       </set>
       <set comment="band 5">
        <r>  0.0000 </r>
       </set>
       <set comment="band 6">
        <r>  0.0018 </r>
       </set>
      </set>
      <set comment="kpoint 11">
       <set comment="band 1">
        <r>  0.2389 </r>
       </set>
       <set comment="band 2">
        <r>  0.0000 </r>
       </set>
       <set comment="band 3">
        <r>  0.0426 </r>
       </set>
       <set comment="band 4">
        <r>  0.0000 </r>
       </set>
       <set comment="band 5">
        <r>  0.0417 </r>
       </set>
       <set comment="band 6">
        <r>  0.0005 </r>
       </set>
      </set>
      <set comment="kpoint 12">
       <set comment="band 1">
        <r>  0.1616 </r>
       </set>
       <set comment="band 2">
        <r>  0.0008 </r>
       </set>
       <set comment="band 3">
        <r>  0.0000 </r>
       </set>
       <set comment="band 4">
        <r>  0.0243 </r>
       </set>
       <set comment="band 5">
        <r>  0.0000 </r>
       </set>
       <set comment="band 6">
        <r>  0.6766 </r>
       </set>
      </set>
      <set comment="kpoint 13">
       <set comment="band 1">
        <r>  0.6653 </r>
       </set>
       <set comment="band 2">
        <r>  0.0000 </r>
       </set>
       <set comment="band 3">
        <r>  0.0165 </r>
       </set>
       <set comment="band 4">
        <r>  0.0001 </r>
       </set>
       <set comment="band 5">
        <r>  0.0000 </r>
       </set>
       <set comment="band 6">
        <r>  0.0072 </r>
       </set>
      </set>
      <set comment="kpoint 14">
       <set comment="band 1">
        <r>  0.7008 </r>
       </set>
       <set comment="band 2">
        <r>  0.0000 </r>
       </set>
       <set comment="band 3">
        <r>  0.0031 </r>
       </set>
       <set comment="band 4">
        <r>  0.0000 </r>
       </set>
       <set comment="band 5">
        <r>  0.0013 </r>
       </set>
       <set comment="band 6">
        <r>  0.0118 </r>
       </set>
      </set>
      <set comment="kpoint 15">
       <set comment="band 1">
        <r>  0.4533 </r>
       </set>
       <set comment="band 2">
        <r>  0.0000 </r>
       </set>
       <set comment="band 3">
        <r>  0.0666 </r>
       </set>
       <set comment="band 4">
        <r>  0.0032 </r>
       </set>
       <set comment="band 5">
        <r>  0.0203 </r>
       </set>
       <set comment="band 6">
        <r>  0.0000 </r>
       </set>
      </set>
      <set comment="kpoint 16">
       <set comment="band 1">
        <r>  0.5378 </r>
       </set>
       <set comment="band 2">
        <r>  0.0041 </r>
       </set>
       <set comment="band 3">
        <r>  0.0184 </r>
       </set>
       <set comment="band 4">
        <r>  0.0000 </r>
       </set>
       <set comment="band 5">
        <r>  0.0038 </r>
       </set>
       <set comment="band 6">
        <r>  0.0376 </r>
       </set>
      </set>
      <set comment="kpoint 17">
       <set comment="band 1">
        <r>  0.3004 </r>
       </set>
       <set comment="band 2">
        <r>  0.0000 </r>
       </set>
       <set comment="band 3">
        <r>  0.0285 </r>
       </set>
       <set comment="band 4">
        <r>  0.0566 </r>
       </set>
       <set comment="band 5">
        <r>  0.0089 </r>
       </set>
       <set comment="band 6">
        <r>  0.0000 </r>
       </set>
      </set>
      <set comment="kpoint 18">
       <set comment="band 1">
        <r>  0.3241 </r>
       </set>
       <set comment="band 2">
        <r>  0.0035 </r>
       </set>
       <set comment="band 3">
        <r>  0.0437 </r>
       </set>
       <set comment="band 4">
        <r>  0.0201 </r>
       </set>
       <set comment="band 5">
        <r>  0.0564 </r>
       </set>
       <set comment="band 6">
        <r>  0.0057 </r>
       </set>
      </set>
      <set comment="kpoint 19">
       <set comment="band 1">
        <r>  0.3674 </r>
       </set>
       <set comment="band 2">
        <r>  0.0000 </r>
       </set>
       <set comment="band 3">
        <r>  0.0163 </r>
       </set>
       <set comment="band 4">
        <r>  0.0000 </r>
       </set>
       <set comment="band 5">
        <r>  0.0831 </r>
       </set>
       <set comment="band 6">
        <r>  0.0190 </r>
       </set>
      </set>
      <set comment="kpoint 20">
       <set comment="band 1">
        <r>  0.2467 </r>
       </set>
       <set comment="band 2">
        <r>  0.0014 </r>
       </set>
       <set comment="band 3">
        <r>  0.0000 </r>
       </set>
       <set comment="band 4">
        <r>  0.0862 </r>
       </set>
       <set comment="band 5">
        <r>  0.0000 </r>
       </set>
       <set comment="band 6">
        <r>  0.0000 </r>
       </set>
      </set>
      <set comment="kpoint 21">
       <set comment="band 1">
        <r>  0.2135 </r>
       </set>
       <set comment="band 2">
        <r>  0.0103 </r>
       </set>
       <set comment="band 3">
        <r>  0.0025 </r>
       </set>
       <set comment="band 4">
        <r>  0.0361 </r>
       </set>
       <set comment="band 5">
        <r>  0.0446 </r>
       </set>
       <set comment="band 6">
        <r>  0.0326 </r>
       </set>
      </set>
      <set comment="kpoint 22">
       <set comment="band 1">
        <r>  0.1776 </r>
       </set>
       <set comment="band 2">
        <r>  0.0000 </r>
       </set>
       <set comment="band 3">
        <r>  0.0000 </r>
       </set>
       <set comment="band 4">
        <r>  0.0000 </r>
       </set>
       <set comment="band 5">
        <r>  0.0000 </r>
       </set>
       <set comment="band 6">
        <r>  0.6095 </r>
       </set>
      </set>
      <set comment="kpoint 23">
       <set comment="band 1">
        <r>  0.5009 </r>
       </set>
       <set comment="band 2">
        <r>  0.0000 </r>
       </set>
       <set comment="band 3">
        <r>  0.0000 </r>
       </set>
       <set comment="band 4">
        <r>  0.0000 </r>
       </set>
       <set comment="band 5">
        <r>  0.0000 </r>
       </set>
       <set comment="band 6">
        <r>  0.0036 </r>
       </set>
      </set>
      <set comment="kpoint 24">
       <set comment="band 1">
        <r>  0.2503 </r>
       </set>
       <set comment="band 2">
        <r>  0.0000 </r>
       </set>
       <set comment="band 3">
        <r>  0.0614 </r>
       </set>
       <set comment="band 4">
        <r>  0.0083 </r>
       </set>
       <set comment="band 5">
        <r>  0.0000 </r>
       </set>
       <set comment="band 6">
        <r>  0.0000 </r>
       </set>
      </set>
      <set comment="kpoint 25">
       <set comment="band 1">
        <r>  0.1616 </r>
       </set>
       <set comment="band 2">
        <r>  0.0000 </r>
       </set>
       <set comment="band 3">
        <r>  0.0000 </r>
       </set>
       <set comment="band 4">
        <r>  0.0354 </r>
       </set>
       <set comment="band 5">
        <r>  0.0000 </r>
       </set>
       <set comment="band 6">
        <r>  0.6996 </r>
       </set>
      </set>
      <set comment="kpoint 26">
       <set comment="band 1">
        <r>  0.7283 </r>
       </set>
       <set comment="band 2">
        <r>  0.0000 </r>
       </set>
       <set comment="band 3">
        <r>  0.0000 </r>
       </set>
       <set comment="band 4">
        <r>  0.0000 </r>
       </set>
       <set comment="band 5">
        <r>  0.0000 </r>
       </set>
       <set comment="band 6">
        <r>  0.0165 </r>
       </set>
      </set>
      <set comment="kpoint 27">
       <set comment="band 1">
        <r>  0.0788 </r>
       </set>
       <set comment="band 2">
        <r>  0.0000 </r>
       </set>
       <set comment="band 3">
        <r>  0.0354 </r>
       </set>
       <set comment="band 4">
        <r>  0.0000 </r>
       </set>
       <set comment="band 5">
        <r>  0.0071 </r>
       </set>
       <set comment="band 6">
        <r>  0.8009 </r>
       </set>
      </set>
      <set comment="kpoint 28">
       <set comment="band 1">
        <r>  0.5997 </r>
       </set>
       <set comment="band 2">
        <r>  0.0034 </r>
       </set>
       <set comment="band 3">
        <r>  0.0000 </r>
       </set>
       <set comment="band 4">
        <r>  0.0008 </r>
       </set>
       <set comment="band 5">
        <r>  0.0000 </r>
       </set>
       <set comment="band 6">
        <r>  0.0593 </r>
       </set>
      </set>
      <set comment="kpoint 29">
       <set comment="band 1">
        <r>  0.3904 </r>
       </set>
       <set comment="band 2">
        <r>  0.0300 </r>
       </set>
       <set comment="band 3">
        <r>  0.0000 </r>
       </set>
       <set comment="band 4">
        <r>  0.0046 </r>
       </set>
       <set comment="band 5">
        <r>  0.0000 </r>
       </set>
       <set comment="band 6">
        <r>  0.1271 </r>
       </set>
      </set>
      <set comment="kpoint 30">
       <set comment="band 1">
        <r>  0.4320 </r>
       </set>
       <set comment="band 2">
        <r>  0.0000 </r>
       </set>
       <set comment="band 3">
        <r>  0.0012 </r>
       </set>
       <set comment="band 4">
        <r>  0.0000 </r>
       </set>
       <set comment="band 5">
        <r>  0.0266 </r>
       </set>
       <set comment="band 6">
        <r>  0.1287 </r>
       </set>
      </set>
      <set comment="kpoint 31">
       <set comment="band 1">
        <r>  0.2272 </r>
       </set>
       <set comment="band 2">
        <r>  0.0000 </r>
       </set>
       <set comment="band 3">
        <r>  0.0173 </r>
       </set>
       <set comment="band 4">
        <r>  0.0913 </r>
       </set>
       <set comment="band 5">
        <r>  0.0507 </r>
       </set>
       <set comment="band 6">
        <r>  0.0000 </r>
       </set>
      </set>
      <set comment="kpoint 32">
       <set comment="band 1">
        <r>  0.2258 </r>
       </set>
       <set comment="band 2">
        <r>  0.0237 </r>
       </set>
       <set comment="band 3">
        <r>  0.0050 </r>
       </set>
       <set comment="band 4">
        <r>  0.0346 </r>
       </set>
       <set comment="band 5">
        <r>  0.1196 </r>
       </set>
       <set comment="band 6">
        <r>  0.0578 </r>
       </set>
      </set>
      <set comment="kpoint 33">
       <set comment="band 1">
        <r>  0.1361 </r>
       </set>
       <set comment="band 2">
        <r>  0.0000 </r>
       </set>
       <set comment="band 3">
        <r>  0.0448 </r>
       </set>
       <set comment="band 4">
        <r>  0.0954 </r>
       </set>
       <set comment="band 5">
        <r>  0.0000 </r>
       </set>
       <set comment="band 6">
        <r>  0.0000 </r>
       </set>
      </set>
      <set comment="kpoint 34">
       <set comment="band 1">
        <r>  0.1011 </r>
       </set>
       <set comment="band 2">
        <r>  0.0000 </r>
       </set>
       <set comment="band 3">
        <r>  0.0839 </r>
       </set>
       <set comment="band 4">
        <r>  0.0000 </r>
       </set>
       <set comment="band 5">
        <r>  0.0593 </r>
       </set>
       <set comment="band 6">
        <r>  0.2777 </r>
       </set>
      </set>
      <set comment="kpoint 35">
       <set comment="band 1">
        <r>  0.0000 </r>
       </set>
       <set comment="band 2">
        <r>  0.0000 </r>
       </set>
       <set comment="band 3">
        <r>  0.0000 </r>
       </set>
       <set comment="band 4">
        <r>  0.0000 </r>
       </set>
       <set comment="band 5">
        <r>  0.0000 </r>
       </set>
       <set comment="band 6">
        <r>  0.9518 </r>
       </set>
      </set>
      <set comment="kpoint 36">
       <set comment="band 1">
        <r>  0.4483 </r>
       </set>
       <set comment="band 2">
        <r>  0.0000 </r>
       </set>
       <set comment="band 3">
        <r>  0.0000 </r>
       </set>
       <set comment="band 4">
        <r>  0.0000 </r>
       </set>
       <set comment="band 5">
        <r>  0.0000 </r>
       </set>
       <set comment="band 6">
        <r>  0.1755 </r>
       </set>
      </set>
      <set comment="kpoint 37">
       <set comment="band 1">
        <r>  0.2370 </r>
       </set>
       <set comment="band 2">
        <r>  0.0051 </r>
       </set>
       <set comment="band 3">
        <r>  0.0000 </r>
       </set>
       <set comment="band 4">
        <r>  0.0269 </r>
       </set>
       <set comment="band 5">
        <r>  0.0000 </r>
       </set>
       <set comment="band 6">
        <r>  0.2731 </r>
       </set>
      </set>
      <set comment="kpoint 38">
       <set comment="band 1">
        <r>  0.0785 </r>
       </set>
       <set comment="band 2">
        <r>  0.0116 </r>
       </set>
       <set comment="band 3">
        <r>  0.0000 </r>
       </set>
       <set comment="band 4">
        <r>  0.1581 </r>
       </set>
       <set comment="band 5">
        <r>  0.0000 </r>
       </set>
       <set comment="band 6">
        <r>  0.1164 </r>
       </set>
      </set>
      <set comment="kpoint 39">
       <set comment="band 1">
        <r>  0.0770 </r>
       </set>
       <set comment="band 2">
        <r>  0.0000 </r>
       </set>
       <set comment="band 3">
        <r>  0.0803 </r>
       </set>
       <set comment="band 4">
        <r>  0.0000 </r>
       </set>
       <set comment="band 5">
        <r>  0.1507 </r>
       </set>
       <set comment="band 6">
        <r>  0.1180 </r>
       </set>
      </set>
      <set comment="kpoint 40">
       <set comment="band 1">
        <r>  0.0138 </r>
       </set>
       <set comment="band 2">
        <r>  0.0000 </r>
       </set>
       <set comment="band 3">
        <r>  0.1264 </r>
       </set>
       <set comment="band 4">
        <r>  0.0387 </r>
       </set>
       <set comment="band 5">
        <r>  0.0000 </r>
       </set>
       <set comment="band 6">
        <r>  0.0000 </r>
       </set>
      </set>
      <set comment="kpoint 41">
       <set comment="band 1">
        <r>  0.0745 </r>
       </set>
       <set comment="band 2">
        <r>  0.0000 </r>
       </set>
       <set comment="band 3">
        <r>  0.0000 </r>
       </set>
       <set comment="band 4">
        <r>  0.0000 </r>
       </set>
       <set comment="band 5">
        <r>  0.0000 </r>
       </set>
       <set comment="band 6">
        <r>  0.3876 </r>
       </set>
      </set>
      <set comment="kpoint 42">
       <set comment="band 1">
        <r>  0.0043 </r>
       </set>
       <set comment="band 2">
        <r>  0.0072 </r>
       </set>
       <set comment="band 3">
        <r>  0.1054 </r>
       </set>
       <set comment="band 4">
        <r>  0.0000 </r>
       </set>
       <set comment="band 5">
        <r>  0.0000 </r>
       </set>
       <set comment="band 6">
        <r>  0.1691 </r>
       </set>
      </set>
      <set comment="kpoint 43">
       <set comment="band 1">
        <r>  0.0000 </r>
       </set>
       <set comment="band 2">
        <r>  0.0000 </r>
       </set>
       <set comment="band 3">
        <r>  0.0752 </r>
       </set>
       <set comment="band 4">
        <r>  0.0000 </r>
       </set>
       <set comment="band 5">
        <r>  0.0000 </r>
       </set>
       <set comment="band 6">
        <r>  0.0000 </r>
       </set>
      </set>
      <set comment="kpoint 44">
       <set comment="band 1">
        <r>  0.0000 </r>
       </set>
       <set comment="band 2">
        <r>  0.0007 </r>
       </set>
       <set comment="band 3">
        <r>  0.0000 </r>
       </set>
       <set comment="band 4">
        <r>  0.0000 </r>
       </set>
       <set comment="band 5">
        <r>  0.0000 </r>
       </set>
       <set comment="band 6">
        <r>  0.1264 </r>
       </set>
      </set>
     </set>
    </set>
   </array>
  </projected>
 </calculation>
 <structure name="finalpos" >
  <crystal>
   <varray name="basis" >
    <v>       2.86654409       0.00000000       0.00000000 </v>
    <v>      -0.95551470       2.70260368       0.00000000 </v>
    <v>      -0.95551470      -1.35130184       2.34052345 </v>
   </varray>
   <i name="volume">     18.13234550 </i>
   <varray name="rec_basis" >
    <v>       0.34885213       0.12333785       0.21362743 </v>
    <v>       0.00000000       0.37001356       0.21362743 </v>
    <v>       0.00000000       0.00000000       0.42725485 </v>
   </varray>
  </crystal>
  <varray name="positions" >
   <v>       0.00000000       0.00000000       0.00000000 </v>
  </varray>
 </structure>
</modeling>
