<?xml version="1.0" encoding="ISO-8859-1"?>
<modeling>
 <generator>
  <i name="program" type="string">vasp </i>
  <i name="version" type="string">5.2.12  </i>
  <i name="subversion" type="string">11Nov11 complex                                                      parallel </i>
  <i name="platform" type="string">LinuxIFC </i>
  <i name="date" type="string">2012 10 14 </i>
  <i name="time" type="string">15:12:06 </i>
 </generator>
 <incar>
  <i type="string" name="PREC">accurate</i>
  <i name="ENCUT">    350.00000000</i>
  <i type="logical" name="LREAL"> F  </i>
  <i type="int" name="ISMEAR">     1</i>
  <i name="SIGMA">      0.05000000</i>
 </incar>
 <kpoints>
  <generation param="Monkhorst-Pack">
   <v type="int" name="divisions">      10       10       10 </v>
   <v name="usershift">      0.00000000       0.00000000       0.00000000 </v>
   <v name="genvec1">      0.10000000       0.00000000       0.00000000 </v>
   <v name="genvec2">      0.00000000       0.10000000       0.00000000 </v>
   <v name="genvec3">      0.00000000       0.00000000       0.10000000 </v>
   <v name="shift">      0.50000000       0.50000000       0.50000000 </v>
  </generation>
  <varray name="kpointlist" >
   <v>       0.05000000       0.05000000       0.05000000 </v>
   <v>       0.15000000       0.05000000       0.05000000 </v>
   <v>       0.25000000       0.05000000       0.05000000 </v>
   <v>       0.35000000       0.05000000       0.05000000 </v>
   <v>       0.45000000       0.05000000       0.05000000 </v>
   <v>      -0.05000000       0.05000000       0.05000000 </v>
   <v>       0.15000000       0.15000000       0.05000000 </v>
   <v>       0.25000000       0.15000000       0.05000000 </v>
   <v>       0.35000000       0.15000000       0.05000000 </v>
   <v>      -0.15000000       0.15000000       0.05000000 </v>
   <v>       0.25000000       0.25000000       0.05000000 </v>
   <v>       0.35000000       0.25000000       0.05000000 </v>
   <v>      -0.25000000       0.25000000       0.05000000 </v>
   <v>      -0.15000000       0.25000000       0.05000000 </v>
   <v>      -0.35000000       0.35000000       0.05000000 </v>
   <v>      -0.25000000       0.35000000       0.05000000 </v>
   <v>      -0.45000000       0.45000000       0.05000000 </v>
   <v>      -0.35000000       0.45000000       0.05000000 </v>
   <v>      -0.25000000       0.45000000       0.05000000 </v>
   <v>      -0.45000000      -0.45000000       0.05000000 </v>
   <v>      -0.35000000      -0.45000000       0.05000000 </v>
   <v>      -0.35000000      -0.35000000       0.05000000 </v>
   <v>       0.15000000       0.15000000       0.15000000 </v>
   <v>       0.25000000       0.15000000       0.15000000 </v>
   <v>       0.35000000       0.15000000       0.15000000 </v>
   <v>      -0.15000000       0.15000000       0.15000000 </v>
   <v>       0.25000000       0.25000000       0.15000000 </v>
   <v>      -0.25000000       0.25000000       0.15000000 </v>
   <v>      -0.35000000       0.35000000       0.15000000 </v>
   <v>      -0.25000000       0.35000000       0.15000000 </v>
   <v>      -0.45000000       0.45000000       0.15000000 </v>
   <v>      -0.35000000       0.45000000       0.15000000 </v>
   <v>      -0.45000000      -0.45000000       0.15000000 </v>
   <v>      -0.35000000      -0.45000000       0.15000000 </v>
   <v>       0.25000000       0.25000000       0.25000000 </v>
   <v>      -0.25000000       0.25000000       0.25000000 </v>
   <v>      -0.35000000       0.35000000       0.25000000 </v>
   <v>      -0.45000000       0.45000000       0.25000000 </v>
   <v>      -0.35000000       0.45000000       0.25000000 </v>
   <v>      -0.45000000      -0.45000000       0.25000000 </v>
   <v>      -0.35000000       0.35000000       0.35000000 </v>
   <v>      -0.45000000       0.45000000       0.35000000 </v>
   <v>      -0.45000000      -0.45000000       0.35000000 </v>
   <v>      -0.45000000       0.45000000       0.45000000 </v>
  </varray>
  <varray name="weights" >
   <v>       0.00800000 </v>
   <v>       0.02400000 </v>
   <v>       0.02400000 </v>
   <v>       0.02400000 </v>
   <v>       0.01200000 </v>
   <v>       0.00600000 </v>
   <v>       0.02400000 </v>
   <v>       0.04800000 </v>
   <v>       0.04800000 </v>
   <v>       0.02400000 </v>
   <v>       0.02400000 </v>
   <v>       0.02400000 </v>
   <v>       0.02400000 </v>
   <v>       0.02400000 </v>
   <v>       0.02400000 </v>
   <v>       0.04800000 </v>
   <v>       0.02400000 </v>
   <v>       0.04800000 </v>
   <v>       0.02400000 </v>
   <v>       0.02400000 </v>
   <v>       0.04800000 </v>
   <v>       0.00800000 </v>
   <v>       0.00800000 </v>
   <v>       0.02400000 </v>
   <v>       0.01200000 </v>
   <v>       0.00600000 </v>
   <v>       0.02400000 </v>
   <v>       0.02400000 </v>
   <v>       0.02400000 </v>
   <v>       0.02400000 </v>
   <v>       0.02400000 </v>
   <v>       0.04800000 </v>
   <v>       0.02400000 </v>
   <v>       0.02400000 </v>
   <v>       0.00200000 </v>
   <v>       0.00600000 </v>
   <v>       0.02400000 </v>
   <v>       0.02400000 </v>
   <v>       0.02400000 </v>
   <v>       0.02400000 </v>
   <v>       0.00600000 </v>
   <v>       0.02400000 </v>
   <v>       0.00800000 </v>
   <v>       0.00600000 </v>
  </varray>
 </kpoints>
 <parameters>
  <separator name="general" >
   <i type="string" name="SYSTEM">unknown system</i>
   <i type="logical" name="LCOMPAT"> F  </i>
  </separator>
  <separator name="electronic" >
   <i type="string" name="PREC">accura</i>
   <i name="ENMAX">    350.00000000</i>
   <i name="ENAUG">    332.07500000</i>
   <i name="EDIFF">      0.00010000</i>
   <i type="int" name="IALGO">    38</i>
   <i type="int" name="IWAVPR">    10</i>
   <i type="int" name="NBANDS">     6</i>
   <i name="NELECT">      5.00000000</i>
   <i type="int" name="TURBO">     0</i>
   <i type="int" name="IRESTART">     0</i>
   <i type="int" name="NREBOOT">     0</i>
   <i type="int" name="NMIN">     0</i>
   <i name="EREF">      0.00000000</i>
   <separator name="electronic smearing" >
    <i type="int" name="ISMEAR">     1</i>
    <i name="SIGMA">      0.05000000</i>
    <i name="KSPACING">      0.50000000</i>
    <i type="logical" name="KGAMMA"> T  </i>
   </separator>
   <separator name="electronic projectors" >
    <i type="logical" name="LREAL"> F  </i>
    <v name="ROPT">      0.00000000</v>
    <i type="int" name="LMAXPAW">  -100</i>
    <i type="int" name="LMAXMIX">     2</i>
    <i type="logical" name="NLSPLINE"> F  </i>
   </separator>
   <separator name="electronic startup" >
    <i type="int" name="ISTART">     0</i>
    <i type="int" name="ICHARG">     2</i>
    <i type="int" name="INIWAV">     1</i>
   </separator>
   <separator name="electronic spin" >
    <i type="int" name="ISPIN">     1</i>
    <i type="logical" name="LNONCOLLINEAR"> F  </i>
    <v name="MAGMOM">      1.00000000</v>
    <i name="NUPDOWN">     -1.00000000</i>
    <i type="logical" name="LSORBIT"> F  </i>
    <v name="SAXIS">      0.00000000      0.00000000      1.00000000</v>
    <i type="logical" name="LSPIRAL"> F  </i>
    <v name="QSPIRAL">      0.00000000      0.00000000      0.00000000</v>
    <i type="logical" name="LZEROZ"> F  </i>
   </separator>
   <separator name="electronic exchange-correlation" >
    <i type="logical" name="LASPH"> F  </i>
    <i type="logical" name="LMETAGGA"> F  </i>
   </separator>
   <separator name="electronic convergence" >
    <i type="int" name="NELM">    60</i>
    <i type="int" name="NELMDL">    -5</i>
    <i type="int" name="NELMIN">     2</i>
    <i name="ENINI">    350.00000000</i>
    <separator name="electronic convergence detail" >
     <i type="logical" name="LDIAG"> T  </i>
     <i type="logical" name="LSUBROT"> T  </i>
     <i name="WEIMIN">      0.00000000</i>
     <i name="EBREAK">      0.00000417</i>
     <i name="DEPER">      0.30000000</i>
     <i type="int" name="NRMM">     4</i>
     <i name="TIME">      0.40000000</i>
    </separator>
   </separator>
   <separator name="electronic mixer" >
    <i name="AMIX">      0.40000000</i>
    <i name="BMIX">      1.00000000</i>
    <i name="AMIN">      0.10000000</i>
    <i name="AMIX_MAG">      1.60000000</i>
    <i name="BMIX_MAG">      1.00000000</i>
    <separator name="electronic mixer details" >
     <i type="int" name="IMIX">     4</i>
     <i type="int" name="MAXMIX">   -45</i>
     <i name="WC">    100.00000000</i>
     <i type="int" name="INIMIX">     1</i>
     <i type="int" name="MIXPRE">     1</i>
     <i type="int" name="MREMOVE">     5</i>
    </separator>
   </separator>
   <separator name="electronic dipolcorrection" >
    <i type="logical" name="LDIPOL"> F  </i>
    <i type="logical" name="LMONO"> F  </i>
    <i type="int" name="IDIPOL">     0</i>
    <i name="EPSILON">      1.00000000</i>
    <v name="DIPOL">   -100.00000000   -100.00000000   -100.00000000</v>
    <i name="EFIELD">      0.00000000</i>
   </separator>
  </separator>
  <separator name="grids" >
   <i type="int" name="NGX">    18</i>
   <i type="int" name="NGY">    18</i>
   <i type="int" name="NGZ">    18</i>
   <i type="int" name="NGXF">    36</i>
   <i type="int" name="NGYF">    36</i>
   <i type="int" name="NGZF">    36</i>
   <i type="logical" name="ADDGRID"> F  </i>
  </separator>
  <separator name="ionic" >
   <i type="int" name="NSW">     0</i>
   <i type="int" name="IBRION">    -1</i>
   <i type="int" name="ISIF">     2</i>
   <i name="PSTRESS">      0.00000000</i>
   <i name="EDIFFG">      0.00100000</i>
   <i type="int" name="NFREE">     0</i>
   <i name="POTIM">      0.50000000</i>
   <i name="SMASS">     -3.00000000</i>
   <i name="SCALEE">      1.00000000</i>
  </separator>
  <separator name="ionic md" >
   <i name="TEBEG">      0.00010000</i>
   <i name="TEEND">      0.00010000</i>
   <i type="int" name="NBLOCK">     1</i>
   <i type="int" name="KBLOCK">     1</i>
   <i type="int" name="NPACO">   256</i>
   <i name="APACO">     16.00000000</i>
  </separator>
  <separator name="symmetry" >
   <i type="int" name="ISYM">     2</i>
   <i name="SYMPREC">      0.00001000</i>
  </separator>
  <separator name="dos" >
   <i type="logical" name="LORBIT"> F  </i>
   <v name="RWIGS">     -1.00000000</v>
   <i type="int" name="NEDOS">   301</i>
   <i name="EMIN">     10.00000000</i>
   <i name="EMAX">    -10.00000000</i>
   <i name="EFERMI">      0.00000000</i>
  </separator>
  <separator name="writing" >
   <i type="int" name="NWRITE">     2</i>
   <i type="logical" name="LWAVE"> T  </i>
   <i type="logical" name="LCHARG"> T  </i>
   <i type="logical" name="LPARD"> F  </i>
   <i type="logical" name="LVTOT"> F  </i>
   <i type="logical" name="LVHAR"> F  </i>
   <i type="logical" name="LELF"> F  </i>
   <i type="logical" name="LOPTICS"> F  </i>
   <v name="STM">      0.00000000      0.00000000      0.00000000      0.00000000      0.00000000      0.00000000      0.00000000</v>
  </separator>
  <separator name="performance" >
   <i type="int" name="NPAR">     1</i>
   <i type="int" name="NSIM">     4</i>
   <i type="int" name="NBLK">    -1</i>
   <i type="logical" name="LPLANE"> T  </i>
   <i type="logical" name="LSCALAPACK"> F  </i>
   <i type="logical" name="LSCAAWARE"> F  </i>
   <i type="logical" name="LSCALU"> F  </i>
   <i type="logical" name="LASYNC"> F  </i>
   <i type="logical" name="LORBITALREAL"> F  </i>
  </separator>
  <separator name="miscellaneous" >
   <i type="int" name="IDIOT">     3</i>
   <i type="logical" name="LMUSIC"> F  </i>
   <v name="POMASS">    180.94800000</v>
   <v name="DARWINR">      0.00000000</v>
   <v name="DARWINV">      1.00000000</v>
   <i type="logical" name="LCORR"> T  </i>
  </separator>
  <i type="logical" name="GGA_COMPAT"> T  </i>
  <i type="logical" name="LBERRY"> F  </i>
  <i type="int" name="ICORELEVEL">     0</i>
  <i type="logical" name="LDAU"> F  </i>
  <i type="int" name="I_CONSTRAINED_M">     0</i>
  <separator name="electronic exchange-correlation" >
   <i type="string" name="GGA">--</i>
   <i type="int" name="VOSKOWN">     0</i>
   <i type="logical" name="LHFCALC"> F  </i>
   <i type="string" name="PRECFOCK"></i>
   <i type="logical" name="LHFONE"> F  </i>
   <i type="logical" name="LRHFCALC"> F  </i>
   <i type="logical" name="LTHOMAS"> F  </i>
   <i type="logical" name="LMODELHF"> F  </i>
   <i name="ENCUT4O">     -1.00000000</i>
   <i type="int" name="EXXOEP">     0</i>
   <i type="int" name="FOURORBIT">     0</i>
   <i name="AEXX">      0.00000000</i>
   <i name="HFALPHA">      0.00000000</i>
   <i name="ALDAX">      1.00000000</i>
   <i name="AGGAX">      1.00000000</i>
   <i name="ALDAC">      1.00000000</i>
   <i name="AGGAC">      1.00000000</i>
   <i type="int" name="NKREDX">     1</i>
   <i type="int" name="NKREDY">     1</i>
   <i type="int" name="NKREDZ">     1</i>
   <i type="logical" name="SHIFTRED"> F  </i>
   <i type="logical" name="ODDONLY"> F  </i>
   <i type="logical" name="EVENONLY"> F  </i>
   <i type="int" name="LMAXFOCK">     0</i>
   <i type="int" name="NMAXFOCKAE">     0</i>
   <i type="logical" name="LFOCKAEDFT"> F  </i>
   <i name="HFSCREEN">      0.00000000</i>
   <i name="HFSCREENC">      0.00000000</i>
  </separator>
  <separator name="vdW DFT" >
   <i type="logical" name="LUSE_VDW"> F  </i>
   <i name="Zab_VDW">     -0.84910000</i>
   <i name="PARAM1">      0.12340000</i>
   <i name="PARAM2">      1.00000000</i>
   <i name="PARAM3">      0.00000000</i>
  </separator>
  <separator name="model GW" >
   <i type="int" name="MODEL_GW">     0</i>
   <i name="MODEL_EPS0">     10.87940730</i>
   <i name="MODEL_ALPHA">      1.00000000</i>
  </separator>
  <separator name="linear response parameters" >
   <i type="logical" name="LEPSILON"> F  </i>
   <i type="logical" name="LRPA"> F  </i>
   <i type="logical" name="LNABLA"> F  </i>
   <i type="logical" name="LVEL"> F  </i>
   <i type="int" name="KINTER">     0</i>
   <i name="CSHIFT">      0.10000000</i>
   <i name="OMEGAMAX">     -1.00000000</i>
  </separator>
  <separator name="orbital magnetization" >
   <i type="logical" name="NUCIND"> F  </i>
   <v name="MAGPOS">      0.00000000      0.00000000      0.00000000</v>
   <i type="logical" name="LNICSALL"> T  </i>
   <i type="logical" name="ORBITALMAG"> F  </i>
   <i type="logical" name="LMAGBLOCH"> F  </i>
   <i type="logical" name="LCHIMAG"> F  </i>
   <i type="logical" name="LGAUGE"> T  </i>
   <i type="int" name="MAGATOM">     0</i>
   <v name="MAGDIPOL">      0.00000000      0.00000000      0.00000000</v>
   <v name="AVECCONST">      0.00000000      0.00000000      0.00000000</v>
  </separator>
  <separator name="response functions" >
   <i type="logical" name="LADDER"> F  </i>
   <i type="logical" name="LHARTREE"> T  </i>
   <i type="int" name="IBSE">     0</i>
   <i type="logical" name="LTCTE"> F  </i>
   <i type="logical" name="LTETE"> F  </i>
   <i type="logical" name="LFXCEPS"> F  </i>
   <i type="logical" name="L2ORDER"> F  </i>
   <i type="logical" name="LUSEW"> F  </i>
   <i name="ENCUTGW">     -2.00000000</i>
   <i name="ENCUTGWSOFT">     -2.00000000</i>
   <i name="ENCUTLF">     -1.00000000</i>
   <i type="int" name="LMAXMP2">    -1</i>
   <i name="SCISSOR">      0.00000000</i>
   <i type="int" name="NOMEGA">     0</i>
   <i type="int" name="NOMEGAR">     0</i>
   <i type="int" name="NBANDSGW">    -1</i>
   <i type="int" name="NBANDSO">    -1</i>
   <i type="int" name="NBANDSV">    -1</i>
   <i name="OPTEMAX">      0.00000000</i>
   <i type="int" name="NELM">     1</i>
   <i type="int" name="DIM">     3</i>
   <i type="int" name="ANTIRES">     0</i>
   <i name="OMEGAMAX">    -30.00000000</i>
   <i name="OMEGATL">   -200.00000000</i>
   <i type="int" name="OMEGAGRID">     0</i>
   <i name="CSHIFT">     -0.10000000</i>
   <i type="logical" name="SELFENERGY"> F  </i>
   <i type="logical" name="LSPECTRAL"> F  </i>
   <i type="logical" name="ODDONLYGW"> F  </i>
   <i type="logical" name="EVENONLYGW"> F  </i>
   <i type="int" name="NKREDLFX">     1</i>
   <i type="int" name="NKREDLFY">     1</i>
   <i type="int" name="NKREDLFZ">     1</i>
   <i type="int" name="MAXMEM">  1800</i>
   <i type="int" name="TELESCOPE">     0</i>
  </separator>
 </parameters>
 <atominfo>
  <atoms>       1 </atoms>
  <types>       1 </types>
  <array name="atoms" >
   <dimension dim="1">ion</dimension>
   <field type="string">element</field>
   <field type="int">atomtype</field>
   <set>
    <rc><c>Ta</c><c>   1</c></rc>
   </set>
  </array>
  <array name="atomtypes" >
   <dimension dim="1">type</dimension>
   <field type="int">atomspertype</field>
   <field type="string">element</field>
   <field>mass</field>
   <field>valence</field>
   <field type="string">pseudopotential</field>
   <set>
    <rc><c>   1</c><c>Ta</c><c>    180.94800000</c><c>      5.00000000</c><c>  PAW_PBE Ta 17Jan2003                  </c></rc>
   </set>
  </array>
 </atominfo>
 <structure name="initialpos" >
  <crystal>
   <varray name="basis" >
    <v>       2.86654409       0.00000000       0.00000000 </v>
    <v>      -0.95551470       2.70260368       0.00000000 </v>
    <v>      -0.95551470      -1.35130184       2.34052345 </v>
   </varray>
   <i name="volume">     18.13234550 </i>
   <varray name="rec_basis" >
    <v>       0.34885213       0.12333785       0.21362743 </v>
    <v>       0.00000000       0.37001356       0.21362743 </v>
    <v>       0.00000000       0.00000000       0.42725485 </v>
   </varray>
  </crystal>
  <varray name="positions" >
   <v>       0.00000000       0.00000000       0.00000000 </v>
  </varray>
 </structure>
 <calculation>
  <scstep>
   <time name="dav">    0.60    0.83</time>
   <time name="total">    0.70    1.01</time>
   <energy>
    <i name="alphaZ">     30.58334069 </i>
    <i name="ewald">   -197.90100875 </i>
    <i name="hartreedc">     -2.50452612 </i>
    <i name="XCdc">    -66.68582567 </i>
    <i name="pawpsdc">    148.27821850 </i>
    <i name="pawaedc">    -73.99089003 </i>
    <i name="eentropy">     -0.00014126 </i>
    <i name="bandstr">     29.91813773 </i>
    <i name="atom">    130.64621481 </i>
    <i name="e_fr_energy">     -1.65648009 </i>
    <i name="e_wo_entrp">     -1.65633884 </i>
    <i name="e_0_energy">     -1.65643301 </i>
   </energy>
  </scstep>
  <scstep>
   <time name="dav">    1.10    1.35</time>
   <time name="total">    1.10    1.35</time>
   <energy>
    <i name="e_fr_energy">    -12.29306246 </i>
    <i name="e_wo_entrp">    -12.29277944 </i>
    <i name="e_0_energy">    -12.29296812 </i>
   </energy>
  </scstep>
  <scstep>
   <time name="dav">    0.68    1.15</time>
   <time name="total">    0.68    1.20</time>
   <energy>
    <i name="e_fr_energy">    -12.34428710 </i>
    <i name="e_wo_entrp">    -12.34365816 </i>
    <i name="e_0_energy">    -12.34407745 </i>
   </energy>
  </scstep>
  <scstep>
   <time name="dav">    0.78    1.51</time>
   <time name="total">    0.79    1.55</time>
   <energy>
    <i name="e_fr_energy">    -12.34437564 </i>
    <i name="e_wo_entrp">    -12.34374622 </i>
    <i name="e_0_energy">    -12.34416583 </i>
   </energy>
  </scstep>
  <scstep>
   <time name="dav">    0.49    0.72</time>
   <time name="total">    0.55    0.88</time>
   <energy>
    <i name="e_fr_energy">    -12.34437578 </i>
    <i name="e_wo_entrp">    -12.34374637 </i>
    <i name="e_0_energy">    -12.34416598 </i>
   </energy>
  </scstep>
  <scstep>
   <time name="dav">    0.68    1.42</time>
   <time name="total">    0.82    1.68</time>
   <energy>
    <i name="e_fr_energy">    -12.01545766 </i>
    <i name="e_wo_entrp">    -12.01535414 </i>
    <i name="e_0_energy">    -12.01542316 </i>
   </energy>
  </scstep>
  <scstep>
   <time name="dav">    0.88    1.46</time>
   <time name="total">    1.05    1.66</time>
   <energy>
    <i name="e_fr_energy">    -11.86396611 </i>
    <i name="e_wo_entrp">    -11.86450733 </i>
    <i name="e_0_energy">    -11.86414652 </i>
   </energy>
  </scstep>
  <scstep>
   <time name="dav">    0.88    1.36</time>
   <time name="total">    1.04    2.32</time>
   <energy>
    <i name="e_fr_energy">    -11.86299004 </i>
    <i name="e_wo_entrp">    -11.86360614 </i>
    <i name="e_0_energy">    -11.86319541 </i>
   </energy>
  </scstep>
  <scstep>
   <time name="dav">    0.48    0.68</time>
   <time name="total">    0.57    1.05</time>
   <energy>
    <i name="alphaZ">     30.58334069 </i>
    <i name="ewald">   -197.90100875 </i>
    <i name="hartreedc">     -0.58922549 </i>
    <i name="XCdc">    -66.00177373 </i>
    <i name="pawpsdc">    193.48653895 </i>
    <i name="pawaedc">   -120.06520748 </i>
    <i name="eentropy">      0.00062189 </i>
    <i name="bandstr">     17.97749508 </i>
    <i name="atom">    130.64621481 </i>
    <i name="e_fr_energy">    -11.86300403 </i>
    <i name="e_wo_entrp">    -11.86362592 </i>
    <i name="e_0_energy">    -11.86321133 </i>
   </energy>
  </scstep>
  <parameters_embedded>
   <separator name="dft+d2" >
    <i type="logical" name="LVDW"> F  </i>
   </separator>
  </parameters_embedded>
  <structure>
   <crystal>
    <varray name="basis" >
     <v>       2.86654409       0.00000000       0.00000000 </v>
     <v>      -0.95551470       2.70260368       0.00000000 </v>
     <v>      -0.95551470      -1.35130184       2.34052345 </v>
    </varray>
    <i name="volume">     18.13234550 </i>
    <varray name="rec_basis" >
     <v>       0.34885213       0.12333785       0.21362743 </v>
     <v>       0.00000000       0.37001356       0.21362743 </v>
     <v>       0.00000000       0.00000000       0.42725485 </v>
    </varray>
   </crystal>
   <varray name="positions" >
    <v>       0.00000000       0.00000000       0.00000000 </v>
   </varray>
  </structure>
  <varray name="forces" >
   <v>       0.00000000       0.00000000       0.00000000 </v>
  </varray>
  <varray name="stress" >
   <v>     -11.17435553       0.00000000       0.00000000 </v>
   <v>       0.00000000     -11.17435553       0.00000000 </v>
   <v>       0.00000000       0.00000000     -11.17435553 </v>
  </varray>
  <energy>
   <i name="e_fr_energy">    -11.86300403 </i>
   <i name="e_wo_entrp">    -11.86321133 </i>
   <i name="e_0_energy">      0.00062189 </i>
  </energy>
  <time name="totalsc">    8.31   15.76</time>
  <eigenvalues>
   <array>
    <dimension dim="1">band</dimension>
    <dimension dim="2">kpoint</dimension>
    <dimension dim="3">spin</dimension>
    <field>eigene</field>
    <field>occ</field>
    <set>
     <set comment="spin 1">
      <set comment="kpoint 1">
       <r>   -1.5463    1.0000 </r>
       <r>    6.0881    0.0000 </r>
       <r>    6.0881    0.0000 </r>
       <r>    7.2032    0.0000 </r>
       <r>    9.4443    0.0000 </r>
       <r>    9.4443    0.0000 </r>
      </set>
      <set comment="kpoint 2">
       <r>   -0.4237    1.0000 </r>
       <r>    5.4147    1.0000 </r>
       <r>    5.5983    1.0268 </r>
       <r>    8.5519    0.0000 </r>
       <r>    9.1279    0.0000 </r>
       <r>    9.7119    0.0000 </r>
      </set>
      <set comment="kpoint 3">
       <r>    0.9021    1.0000 </r>
       <r>    4.7578    1.0000 </r>
       <r>    5.2971    1.0000 </r>
       <r>    9.3466    0.0000 </r>
       <r>   10.0396    0.0000 </r>
       <r>   10.5248    0.0000 </r>
      </set>
      <set comment="kpoint 4">
       <r>    1.5308    1.0000 </r>
       <r>    4.3082    1.0000 </r>
       <r>    6.1088    0.0000 </r>
       <r>    9.6691    0.0000 </r>
       <r>   10.4030    0.0000 </r>
       <r>   12.6601    0.0000 </r>
      </set>
      <set comment="kpoint 5">
       <r>    1.5883    1.0000 </r>
       <r>    4.1500    1.0000 </r>
       <r>    6.9848    0.0000 </r>
       <r>    9.6505    0.0000 </r>
       <r>   10.5874    0.0000 </r>
       <r>   13.8057    0.0000 </r>
      </set>
      <set comment="kpoint 6">
       <r>   -1.9622    1.0000 </r>
       <r>    6.4063    0.0000 </r>
       <r>    6.4063    0.0000 </r>
       <r>    6.5444    0.0000 </r>
       <r>    9.3084    0.0000 </r>
       <r>    9.8050    0.0000 </r>
      </set>
      <set comment="kpoint 7">
       <r>    0.8466    1.0000 </r>
       <r>    4.8693    1.0000 </r>
       <r>    4.9415    1.0000 </r>
       <r>    9.2031    0.0000 </r>
       <r>   10.0852    0.0000 </r>
       <r>   10.4492    0.0000 </r>
      </set>
      <set comment="kpoint 8">
       <r>    2.0128    1.0000 </r>
       <r>    4.3976    1.0000 </r>
       <r>    4.9746    1.0000 </r>
       <r>    9.5040    0.0000 </r>
       <r>   10.4274    0.0000 </r>
       <r>   12.6748    0.0000 </r>
      </set>
      <set comment="kpoint 9">
       <r>    2.2909    1.0000 </r>
       <r>    4.1831    1.0000 </r>
       <r>    5.9399    0.0000 </r>
       <r>    9.7562    0.0000 </r>
       <r>   10.6287    0.0000 </r>
       <r>   14.5280    0.0000 </r>
      </set>
      <set comment="kpoint 10">
       <r>   -1.1458    1.0000 </r>
       <r>    5.9527    0.0000 </r>
       <r>    6.1812    0.0000 </r>
       <r>    7.3567    0.0000 </r>
       <r>    8.6263    0.0000 </r>
       <r>    9.9873    0.0000 </r>
      </set>
      <set comment="kpoint 11">
       <r>    2.9319    1.0000 </r>
       <r>    4.2925    1.0000 </r>
       <r>    5.0107    1.0000 </r>
       <r>    9.8181    0.0000 </r>
       <r>   10.5256    0.0000 </r>
       <r>   14.9586    0.0000 </r>
      </set>
      <set comment="kpoint 12">
       <r>    3.1129    1.0000 </r>
       <r>    4.3766    1.0000 </r>
       <r>    5.2516    1.0000 </r>
       <r>   10.0576    0.0000 </r>
       <r>   10.5701    0.0000 </r>
       <r>   14.3824    0.0000 </r>
      </set>
      <set comment="kpoint 13">
       <r>    0.1757    1.0000 </r>
       <r>    5.2643    1.0000 </r>
       <r>    5.6101    1.0350 </r>
       <r>    8.6513    0.0000 </r>
       <r>    8.9699    0.0000 </r>
       <r>   10.1834    0.0000 </r>
      </set>
      <set comment="kpoint 14">
       <r>   -0.0636    1.0000 </r>
       <r>    5.6277    1.0167 </r>
       <r>    5.6985    0.1389 </r>
       <r>    8.0685    0.0000 </r>
       <r>    8.4762    0.0000 </r>
       <r>   10.3865    0.0000 </r>
      </set>
      <set comment="kpoint 15">
       <r>    1.2132    1.0000 </r>
       <r>    4.6696    1.0000 </r>
       <r>    5.6937    0.1980 </r>
       <r>    9.1842    0.0000 </r>
       <r>   10.4109    0.0000 </r>
       <r>   11.1061    0.0000 </r>
      </set>
      <set comment="kpoint 16">
       <r>    1.2397    1.0000 </r>
       <r>    4.9177    1.0000 </r>
       <r>    5.3496    1.0000 </r>
       <r>    8.3704    0.0000 </r>
       <r>   10.3046    0.0000 </r>
       <r>   10.6894    0.0000 </r>
      </set>
      <set comment="kpoint 17">
       <r>    1.4561    1.0000 </r>
       <r>    4.3375    1.0000 </r>
       <r>    6.6966    0.0000 </r>
       <r>    9.3433    0.0000 </r>
       <r>   10.7802    0.0000 </r>
       <r>   13.0530    0.0000 </r>
      </set>
      <set comment="kpoint 18">
       <r>    1.8961    1.0000 </r>
       <r>    4.6157    1.0000 </r>
       <r>    5.5969    1.0255 </r>
       <r>    8.9098    0.0000 </r>
       <r>   10.7240    0.0000 </r>
       <r>   12.6937    0.0000 </r>
      </set>
      <set comment="kpoint 19">
       <r>    2.3626    1.0000 </r>
       <r>    4.3225    1.0000 </r>
       <r>    5.3557    1.0000 </r>
       <r>    8.6769    0.0000 </r>
       <r>   10.4297    0.0000 </r>
       <r>   12.7652    0.0000 </r>
      </set>
      <set comment="kpoint 20">
       <r>    1.9519    1.0000 </r>
       <r>    4.5141    1.0000 </r>
       <r>    6.0909    0.0000 </r>
       <r>    8.8634    0.0000 </r>
       <r>   11.2323    0.0000 </r>
       <r>   13.9454    0.0000 </r>
      </set>
      <set comment="kpoint 21">
       <r>    2.8326    1.0000 </r>
       <r>    4.3805    1.0000 </r>
       <r>    5.2206    1.0000 </r>
       <r>    9.1458    0.0000 </r>
       <r>   10.6503    0.0000 </r>
       <r>   15.0554    0.0000 </r>
      </set>
      <set comment="kpoint 22">
       <r>    3.4920    1.0000 </r>
       <r>    4.4783    1.0000 </r>
       <r>    4.4783    1.0000 </r>
       <r>   10.1084    0.0000 </r>
       <r>   10.1084    0.0000 </r>
       <r>   14.6733    0.0000 </r>
      </set>
      <set comment="kpoint 23">
       <r>    2.2331    1.0000 </r>
       <r>    4.3849    1.0000 </r>
       <r>    4.3849    1.0000 </r>
       <r>   10.0521    0.0000 </r>
       <r>   10.0521    0.0000 </r>
       <r>   12.7826    0.0000 </r>
      </set>
      <set comment="kpoint 24">
       <r>    3.1405    1.0000 </r>
       <r>    4.1391    1.0000 </r>
       <r>    4.7833    1.0000 </r>
       <r>   10.2187    0.0000 </r>
       <r>   10.5294    0.0000 </r>
       <r>   14.9696    0.0000 </r>
      </set>
      <set comment="kpoint 25">
       <r>    3.1481    1.0000 </r>
       <r>    4.0670    1.0000 </r>
       <r>    5.6058    1.0328 </r>
       <r>   10.2786    0.0000 </r>
       <r>   10.6811    0.0000 </r>
       <r>   14.3685    0.0000 </r>
      </set>
      <set comment="kpoint 26">
       <r>   -0.3686    1.0000 </r>
       <r>    6.3640    0.0000 </r>
       <r>    6.3640    0.0000 </r>
       <r>    7.1691    0.0000 </r>
       <r>    7.3629    0.0000 </r>
       <r>   10.5827    0.0000 </r>
      </set>
      <set comment="kpoint 27">
       <r>    3.7419    1.0000 </r>
       <r>    4.4025    1.0000 </r>
       <r>    4.8313    1.0000 </r>
       <r>   10.5324    0.0000 </r>
       <r>   10.6619    0.0000 </r>
       <r>   13.6603    0.0000 </r>
      </set>
      <set comment="kpoint 28">
       <r>    0.8939    1.0000 </r>
       <r>    5.5130    1.0000 </r>
       <r>    6.0065    0.0000 </r>
       <r>    7.2348    0.0000 </r>
       <r>    8.7237    0.0000 </r>
       <r>   10.7868    0.0000 </r>
      </set>
      <set comment="kpoint 29">
       <r>    1.9384    1.0000 </r>
       <r>    4.8880    1.0000 </r>
       <r>    5.4989    1.0000 </r>
       <r>    8.0389    0.0000 </r>
       <r>   10.8510    0.0000 </r>
       <r>   10.8905    0.0000 </r>
      </set>
      <set comment="kpoint 30">
       <r>    2.0632    1.0000 </r>
       <r>    4.5691    1.0000 </r>
       <r>    6.1408    0.0000 </r>
       <r>    7.5166    0.0000 </r>
       <r>    9.9812    0.0000 </r>
       <r>   10.9515    0.0000 </r>
      </set>
      <set comment="kpoint 31">
       <r>    2.1613    1.0000 </r>
       <r>    5.2003    1.0000 </r>
       <r>    5.2588    1.0000 </r>
       <r>    8.0140    0.0000 </r>
       <r>   11.9886    0.0000 </r>
       <r>   12.8505    0.0000 </r>
      </set>
      <set comment="kpoint 32">
       <r>    2.7682    1.0000 </r>
       <r>    4.1846    1.0000 </r>
       <r>    5.7425   -0.0330 </r>
       <r>    8.1512    0.0000 </r>
       <r>   10.7205    0.0000 </r>
       <r>   12.9094    0.0000 </r>
      </set>
      <set comment="kpoint 33">
       <r>    2.7801    1.0000 </r>
       <r>    4.5631    1.0000 </r>
       <r>    5.2955    1.0000 </r>
       <r>    8.1457    0.0000 </r>
       <r>   11.7566    0.0000 </r>
       <r>   14.5643    0.0000 </r>
      </set>
      <set comment="kpoint 34">
       <r>    3.6483    1.0000 </r>
       <r>    3.7099    1.0000 </r>
       <r>    4.9718    1.0000 </r>
       <r>    9.4140    0.0000 </r>
       <r>   10.5828    0.0000 </r>
       <r>   15.3687    0.0000 </r>
      </set>
      <set comment="kpoint 35">
       <r>    4.4721    1.0000 </r>
       <r>    4.4721    1.0000 </r>
       <r>    4.4721    1.0000 </r>
       <r>   10.7403    0.0000 </r>
       <r>   10.7403    0.0000 </r>
       <r>   12.7450    0.0000 </r>
      </set>
      <set comment="kpoint 36">
       <r>    1.9706    1.0000 </r>
       <r>    4.7857    1.0000 </r>
       <r>    6.9541    0.0000 </r>
       <r>    6.9541    0.0000 </r>
       <r>    8.8821    0.0000 </r>
       <r>   10.6852    0.0000 </r>
      </set>
      <set comment="kpoint 37">
       <r>    2.7933    1.0000 </r>
       <r>    3.8561    1.0000 </r>
       <r>    7.0145    0.0000 </r>
       <r>    7.6054    0.0000 </r>
       <r>   10.5452    0.0000 </r>
       <r>   10.8354    0.0000 </r>
      </set>
      <set comment="kpoint 38">
       <r>    2.8283    1.0000 </r>
       <r>    3.7699    1.0000 </r>
       <r>    6.8445    0.0000 </r>
       <r>    7.4891    0.0000 </r>
       <r>   12.5408    0.0000 </r>
       <r>   12.8240    0.0000 </r>
      </set>
      <set comment="kpoint 39">
       <r>    3.1196    1.0000 </r>
       <r>    3.1822    1.0000 </r>
       <r>    6.8566    0.0000 </r>
       <r>    8.8328    0.0000 </r>
       <r>   10.8154    0.0000 </r>
       <r>   12.9275    0.0000 </r>
      </set>
      <set comment="kpoint 40">
       <r>    2.9105    1.0000 </r>
       <r>    3.2346    1.0000 </r>
       <r>    6.5792    0.0000 </r>
       <r>    9.3486    0.0000 </r>
       <r>   11.6596    0.0000 </r>
       <r>   15.2708    0.0000 </r>
      </set>
      <set comment="kpoint 41">
       <r>    2.8970    1.0000 </r>
       <r>    2.9966    1.0000 </r>
       <r>    8.6119    0.0000 </r>
       <r>    8.6119    0.0000 </r>
       <r>   10.7666    0.0000 </r>
       <r>   10.9448    0.0000 </r>
      </set>
      <set comment="kpoint 42">
       <r>    2.5174    1.0000 </r>
       <r>    2.6798    1.0000 </r>
       <r>    9.0767    0.0000 </r>
       <r>    9.0834    0.0000 </r>
       <r>   12.2600    0.0000 </r>
       <r>   13.0714    0.0000 </r>
      </set>
      <set comment="kpoint 43">
       <r>    2.3636    1.0000 </r>
       <r>    2.3636    1.0000 </r>
       <r>    9.0088    0.0000 </r>
       <r>   11.4373    0.0000 </r>
       <r>   11.4373    0.0000 </r>
       <r>   15.5795    0.0000 </r>
      </set>
      <set comment="kpoint 44">
       <r>    2.0616    1.0000 </r>
       <r>    2.1085    1.0000 </r>
       <r>   11.3412    0.0000 </r>
       <r>   11.3412    0.0000 </r>
       <r>   12.2486    0.0000 </r>
       <r>   13.5529    0.0000 </r>
      </set>
     </set>
    </set>
   </array>
  </eigenvalues>
  <separator name="orbital magnetization" >
   <v name="MAGDIPOLOUT">      0.00000000      0.00000000      0.00000000</v>
  </separator>
  <dos>
   <i name="efermi">      5.67431971 </i>
   <total>
    <array>
     <dimension dim="1">gridpoints</dimension>
     <dimension dim="2">spin</dimension>
     <field>energy</field>
     <field>total</field>
     <field>integrated</field>
     <set>
      <set comment="spin 1">
       <r>    -2.8392     0.0000     0.0000 </r>
       <r>    -2.7749     0.0000     0.0000 </r>
       <r>    -2.7106     0.0000     0.0000 </r>
       <r>    -2.6463     0.0000     0.0000 </r>
       <r>    -2.5820     0.0000     0.0000 </r>
       <r>    -2.5176     0.0000     0.0000 </r>
       <r>    -2.4533     0.0000     0.0000 </r>
       <r>    -2.3890     0.0000     0.0000 </r>
       <r>    -2.3247     0.0000     0.0000 </r>
       <r>    -2.2604     0.0000     0.0000 </r>
       <r>    -2.1960     0.0000     0.0000 </r>
       <r>    -2.1317     0.0000     0.0000 </r>
       <r>    -2.0674    -0.0010    -0.0001 </r>
       <r>    -2.0031     0.0020     0.0001 </r>
       <r>    -1.9388     0.1579     0.0102 </r>
       <r>    -1.8744     0.0307     0.0122 </r>
       <r>    -1.8101    -0.0030     0.0120 </r>
       <r>    -1.7458     0.0000     0.0120 </r>
       <r>    -1.6815    -0.0001     0.0120 </r>
       <r>    -1.6172    -0.0076     0.0115 </r>
       <r>    -1.5528     0.1050     0.0183 </r>
       <r>    -1.4885     0.1602     0.0286 </r>
       <r>    -1.4242    -0.0083     0.0280 </r>
       <r>    -1.3599    -0.0004     0.0280 </r>
       <r>    -1.2956    -0.0001     0.0280 </r>
       <r>    -1.2313    -0.0135     0.0271 </r>
       <r>    -1.1669     0.1441     0.0364 </r>
       <r>    -1.1026     0.6191     0.0762 </r>
       <r>    -1.0383     0.0002     0.0762 </r>
       <r>    -0.9740    -0.0036     0.0760 </r>
       <r>    -0.9097     0.0000     0.0760 </r>
       <r>    -0.8453     0.0000     0.0760 </r>
       <r>    -0.7810     0.0000     0.0760 </r>
       <r>    -0.7167     0.0000     0.0760 </r>
       <r>    -0.6524     0.0000     0.0760 </r>
       <r>    -0.5881     0.0000     0.0760 </r>
       <r>    -0.5237    -0.0060     0.0756 </r>
       <r>    -0.4594     0.0297     0.0775 </r>
       <r>    -0.3951     0.6745     0.1209 </r>
       <r>    -0.3308     0.2397     0.1363 </r>
       <r>    -0.2665    -0.0037     0.1361 </r>
       <r>    -0.2021    -0.0016     0.1360 </r>
       <r>    -0.1378    -0.0209     0.1346 </r>
       <r>    -0.0735     0.2713     0.1521 </r>
       <r>    -0.0092     0.5199     0.1855 </r>
       <r>     0.0551    -0.0237     0.1840 </r>
       <r>     0.1195    -0.0253     0.1824 </r>
       <r>     0.1838     0.4994     0.2145 </r>
       <r>     0.2481     0.2943     0.2334 </r>
       <r>     0.3124    -0.0220     0.2320 </r>
       <r>     0.3767    -0.0003     0.2320 </r>
       <r>     0.4411     0.0000     0.2320 </r>
       <r>     0.5054     0.0000     0.2320 </r>
       <r>     0.5697     0.0000     0.2320 </r>
       <r>     0.6340     0.0000     0.2320 </r>
       <r>     0.6983    -0.0001     0.2320 </r>
       <r>     0.7627    -0.0151     0.2310 </r>
       <r>     0.8270     0.1144     0.2384 </r>
       <r>     0.8913     1.2348     0.3178 </r>
       <r>     0.9556     0.9577     0.3794 </r>
       <r>     1.0199    -0.0504     0.3762 </r>
       <r>     1.0842    -0.0031     0.3760 </r>
       <r>     1.1486    -0.0455     0.3730 </r>
       <r>     1.2129     0.5795     0.4103 </r>
       <r>     1.2772     1.6956     0.5194 </r>
       <r>     1.3415     0.0191     0.5206 </r>
       <r>     1.4058    -0.0291     0.5187 </r>
       <r>     1.4702     0.5363     0.5532 </r>
       <r>     1.5345     0.6555     0.5954 </r>
       <r>     1.5988     0.5969     0.6338 </r>
       <r>     1.6631     0.1077     0.6407 </r>
       <r>     1.7274    -0.0107     0.6400 </r>
       <r>     1.7918    -0.0092     0.6394 </r>
       <r>     1.8561     0.0001     0.6394 </r>
       <r>     1.9204     1.4850     0.7349 </r>
       <r>     1.9847     1.7606     0.8482 </r>
       <r>     2.0490     1.6425     0.9538 </r>
       <r>     2.1134     0.8467     1.0083 </r>
       <r>     2.1777     0.6221     1.0483 </r>
       <r>     2.2420     0.3237     1.0691 </r>
       <r>     2.3063     1.1870     1.1455 </r>
       <r>     2.3706     1.2271     1.2244 </r>
       <r>     2.4350     0.4516     1.2534 </r>
       <r>     2.4993     0.1384     1.2623 </r>
       <r>     2.5636     0.5951     1.3006 </r>
       <r>     2.6279    -0.0287     1.2988 </r>
       <r>     2.6922     0.4852     1.3300 </r>
       <r>     2.7566     0.8282     1.3833 </r>
       <r>     2.8209     3.1212     1.5840 </r>
       <r>     2.8852     1.7802     1.6985 </r>
       <r>     2.9495     1.2834     1.7811 </r>
       <r>     3.0138     0.3242     1.8019 </r>
       <r>     3.0781     0.0268     1.8036 </r>
       <r>     3.1425     1.8681     1.9238 </r>
       <r>     3.2068     1.5304     2.0222 </r>
       <r>     3.2711     0.7020     2.0674 </r>
       <r>     3.3354     0.0154     2.0684 </r>
       <r>     3.3997    -0.0088     2.0678 </r>
       <r>     3.4641     0.0278     2.0696 </r>
       <r>     3.5284     0.2150     2.0834 </r>
       <r>     3.5927    -0.0156     2.0824 </r>
       <r>     3.6570     0.4668     2.1124 </r>
       <r>     3.7213     0.9592     2.1741 </r>
       <r>     3.7857     1.4012     2.2643 </r>
       <r>     3.8500     0.4995     2.2964 </r>
       <r>     3.9143     0.4554     2.3257 </r>
       <r>     3.9786    -0.0309     2.3237 </r>
       <r>     4.0429     0.0471     2.3267 </r>
       <r>     4.1073     0.2961     2.3458 </r>
       <r>     4.1716     1.9400     2.4705 </r>
       <r>     4.2359     2.2328     2.6142 </r>
       <r>     4.3002     0.7736     2.6639 </r>
       <r>     4.3645     2.9227     2.8519 </r>
       <r>     4.4289     4.0879     3.1148 </r>
       <r>     4.4932     0.7860     3.1654 </r>
       <r>     4.5575     1.2851     3.2480 </r>
       <r>     4.6218     1.9306     3.3722 </r>
       <r>     4.6861     1.1447     3.4458 </r>
       <r>     4.7505     0.4868     3.4772 </r>
       <r>     4.8148     1.4292     3.5691 </r>
       <r>     4.8791     1.4250     3.6607 </r>
       <r>     4.9434     2.6405     3.8306 </r>
       <r>     5.0077     2.8501     4.0139 </r>
       <r>     5.0720     0.5144     4.0470 </r>
       <r>     5.1364    -0.1040     4.0403 </r>
       <r>     5.2007     0.6325     4.0810 </r>
       <r>     5.2650     3.1367     4.2827 </r>
       <r>     5.3293     2.6031     4.4501 </r>
       <r>     5.3936     2.0322     4.5809 </r>
       <r>     5.4580     0.6031     4.6196 </r>
       <r>     5.5223     1.0480     4.6871 </r>
       <r>     5.5866     1.3856     4.7762 </r>
       <r>     5.6509     3.0905     4.9750 </r>
       <r>     5.7152     1.4503     5.0682 </r>
       <r>     5.7796     1.6030     5.1713 </r>
       <r>     5.8439     0.0028     5.1715 </r>
       <r>     5.9082     0.0909     5.1774 </r>
       <r>     5.9725     1.9574     5.3033 </r>
       <r>     6.0368     0.8511     5.3580 </r>
       <r>     6.1012     1.2254     5.4368 </r>
       <r>     6.1655     1.7478     5.5492 </r>
       <r>     6.2298     0.6317     5.5899 </r>
       <r>     6.2941    -0.0398     5.5873 </r>
       <r>     6.3584     0.1546     5.5973 </r>
       <r>     6.4228     0.5266     5.6311 </r>
       <r>     6.4871     0.0686     5.6355 </r>
       <r>     6.5514     0.1974     5.6482 </r>
       <r>     6.6157     0.7093     5.6939 </r>
       <r>     6.6800     0.2150     5.7077 </r>
       <r>     6.7444     0.5709     5.7444 </r>
       <r>     6.8087     0.0070     5.7449 </r>
       <r>     6.8730     1.2220     5.8235 </r>
       <r>     6.9373     0.3438     5.8456 </r>
       <r>     7.0016     0.7973     5.8968 </r>
       <r>     7.0660     0.6377     5.9379 </r>
       <r>     7.1303    -0.0357     5.9356 </r>
       <r>     7.1946     0.2653     5.9526 </r>
       <r>     7.2589     0.8213     6.0055 </r>
       <r>     7.3232     0.1544     6.0154 </r>
       <r>     7.3875     0.7953     6.0665 </r>
       <r>     7.4519     0.0887     6.0722 </r>
       <r>     7.5162     1.0179     6.1377 </r>
       <r>     7.5805     0.6049     6.1766 </r>
       <r>     7.6448     0.6033     6.2154 </r>
       <r>     7.7091     0.0136     6.2163 </r>
       <r>     7.7735    -0.0046     6.2160 </r>
       <r>     7.8378     0.0000     6.2160 </r>
       <r>     7.9021    -0.0029     6.2158 </r>
       <r>     7.9664    -0.0390     6.2133 </r>
       <r>     8.0307     0.8986     6.2711 </r>
       <r>     8.0951     1.2695     6.3528 </r>
       <r>     8.1594     1.6130     6.4565 </r>
       <r>     8.2237     0.8012     6.5080 </r>
       <r>     8.2880    -0.0934     6.5020 </r>
       <r>     8.3523     0.3507     6.5246 </r>
       <r>     8.4167     1.1687     6.5998 </r>
       <r>     8.4810     0.4191     6.6267 </r>
       <r>     8.5453     0.6115     6.6661 </r>
       <r>     8.6096     0.8123     6.7183 </r>
       <r>     8.6739     1.7475     6.8307 </r>
       <r>     8.7383     1.0990     6.9014 </r>
       <r>     8.8026     0.2036     6.9145 </r>
       <r>     8.8669     1.1272     6.9870 </r>
       <r>     8.9312     1.7920     7.1022 </r>
       <r>     8.9955     0.9375     7.1625 </r>
       <r>     9.0599     0.5189     7.1959 </r>
       <r>     9.1242     1.7896     7.3110 </r>
       <r>     9.1885     2.3554     7.4625 </r>
       <r>     9.2528     0.8493     7.5171 </r>
       <r>     9.3171     0.2986     7.5364 </r>
       <r>     9.3814     2.0510     7.6683 </r>
       <r>     9.4458     0.9840     7.7316 </r>
       <r>     9.5101     1.2419     7.8114 </r>
       <r>     9.5744     0.5973     7.8499 </r>
       <r>     9.6387     0.1179     7.8574 </r>
       <r>     9.7030     1.1623     7.9322 </r>
       <r>     9.7674     1.5939     8.0347 </r>
       <r>     9.8317     1.2004     8.1119 </r>
       <r>     9.8960     0.1855     8.1239 </r>
       <r>     9.9603     0.1844     8.1357 </r>
       <r>    10.0246     1.5463     8.2352 </r>
       <r>    10.0890     2.2256     8.3783 </r>
       <r>    10.1533     0.8489     8.4329 </r>
       <r>    10.2176     0.9584     8.4946 </r>
       <r>    10.2819     0.9254     8.5541 </r>
       <r>    10.3462     1.3108     8.6384 </r>
       <r>    10.4106     2.0754     8.7719 </r>
       <r>    10.4749     3.1168     8.9724 </r>
       <r>    10.5392     2.4873     9.1323 </r>
       <r>    10.6035     3.3184     9.3458 </r>
       <r>    10.6678     3.5066     9.5713 </r>
       <r>    10.7322     4.4294     9.8562 </r>
       <r>    10.7965     2.5137    10.0179 </r>
       <r>    10.8608     2.2111    10.1601 </r>
       <r>    10.9251     1.1187    10.2320 </r>
       <r>    10.9894     0.7985    10.2834 </r>
       <r>    11.0538    -0.0068    10.2830 </r>
       <r>    11.1181     0.5332    10.3173 </r>
       <r>    11.1824     0.2302    10.3321 </r>
       <r>    11.2467     0.5419    10.3669 </r>
       <r>    11.3110     0.2503    10.3830 </r>
       <r>    11.3753     0.2915    10.4018 </r>
       <r>    11.4397     0.3064    10.4215 </r>
       <r>    11.5040     0.2425    10.4371 </r>
       <r>    11.5683    -0.0266    10.4354 </r>
       <r>    11.6326     0.0903    10.4412 </r>
       <r>    11.6969     0.6210    10.4811 </r>
       <r>    11.7613     0.4824    10.5121 </r>
       <r>    11.8256     0.3328    10.5336 </r>
       <r>    11.8899    -0.0303    10.5316 </r>
       <r>    11.9542     0.0396    10.5342 </r>
       <r>    12.0185     0.6530    10.5762 </r>
       <r>    12.0829     0.0682    10.5805 </r>
       <r>    12.1472    -0.0122    10.5798 </r>
       <r>    12.2115    -0.0075    10.5793 </r>
       <r>    12.2758     0.7405    10.6269 </r>
       <r>    12.3401     0.2232    10.6413 </r>
       <r>    12.4045    -0.0197    10.6400 </r>
       <r>    12.4688    -0.0224    10.6385 </r>
       <r>    12.5331     0.2992    10.6578 </r>
       <r>    12.5974     0.4156    10.6845 </r>
       <r>    12.6617     0.9641    10.7465 </r>
       <r>    12.7261     2.8063    10.9270 </r>
       <r>    12.7904     0.9131    10.9858 </r>
       <r>    12.8547     1.2253    11.0646 </r>
       <r>    12.9190     1.7120    11.1747 </r>
       <r>    12.9833     0.9855    11.2381 </r>
       <r>    13.0477     0.3828    11.2627 </r>
       <r>    13.1120     1.0986    11.3334 </r>
       <r>    13.1763    -0.0157    11.3323 </r>
       <r>    13.2406    -0.0053    11.3320 </r>
       <r>    13.3049     0.0000    11.3320 </r>
       <r>    13.3693     0.0000    11.3320 </r>
       <r>    13.4336    -0.0004    11.3320 </r>
       <r>    13.4979    -0.0057    11.3316 </r>
       <r>    13.5622     0.1216    11.3394 </r>
       <r>    13.6265     0.1128    11.3467 </r>
       <r>    13.6908     0.6473    11.3883 </r>
       <r>    13.7552     0.0557    11.3919 </r>
       <r>    13.8195     0.2707    11.4093 </r>
       <r>    13.8838     0.0869    11.4149 </r>
       <r>    13.9481     0.4247    11.4422 </r>
       <r>    14.0124     0.3639    11.4656 </r>
       <r>    14.0768    -0.0247    11.4640 </r>
       <r>    14.1411    -0.0005    11.4640 </r>
       <r>    14.2054     0.0000    11.4640 </r>
       <r>    14.2697    -0.0056    11.4636 </r>
       <r>    14.3340     0.0062    11.4640 </r>
       <r>    14.3984     0.9051    11.5222 </r>
       <r>    14.4627     0.1782    11.5337 </r>
       <r>    14.5270     0.7757    11.5836 </r>
       <r>    14.5913     1.4648    11.6778 </r>
       <r>    14.6556     0.1002    11.6843 </r>
       <r>    14.7200     0.1867    11.6963 </r>
       <r>    14.7843    -0.0033    11.6961 </r>
       <r>    14.8486    -0.0051    11.6957 </r>
       <r>    14.9129    -0.0317    11.6937 </r>
       <r>    14.9772     1.0586    11.7618 </r>
       <r>    15.0416     0.9193    11.8209 </r>
       <r>    15.1059     1.0825    11.8905 </r>
       <r>    15.1702    -0.0411    11.8879 </r>
       <r>    15.2345     0.0249    11.8895 </r>
       <r>    15.2988     0.6260    11.9298 </r>
       <r>    15.3632     0.4104    11.9562 </r>
       <r>    15.4275     0.4591    11.9857 </r>
       <r>    15.4918    -0.0292    11.9838 </r>
       <r>    15.5561     0.0399    11.9864 </r>
       <r>    15.6204     0.2106    11.9999 </r>
       <r>    15.6847     0.0027    12.0001 </r>
       <r>    15.7491    -0.0014    12.0000 </r>
       <r>    15.8134     0.0000    12.0000 </r>
       <r>    15.8777     0.0000    12.0000 </r>
       <r>    15.9420     0.0000    12.0000 </r>
       <r>    16.0063     0.0000    12.0000 </r>
       <r>    16.0707     0.0000    12.0000 </r>
       <r>    16.1350     0.0000    12.0000 </r>
       <r>    16.1993     0.0000    12.0000 </r>
       <r>    16.2636     0.0000    12.0000 </r>
       <r>    16.3279     0.0000    12.0000 </r>
       <r>    16.3923     0.0000    12.0000 </r>
       <r>    16.4566     0.0000    12.0000 </r>
      </set>
     </set>
    </array>
   </total>
  </dos>
 </calculation>
 <structure name="finalpos" >
  <crystal>
   <varray name="basis" >
    <v>       2.86654409       0.00000000       0.00000000 </v>
    <v>      -0.95551470       2.70260368       0.00000000 </v>
    <v>      -0.95551470      -1.35130184       2.34052345 </v>
   </varray>
   <i name="volume">     18.13234550 </i>
   <varray name="rec_basis" >
    <v>       0.34885213       0.12333785       0.21362743 </v>
    <v>       0.00000000       0.37001356       0.21362743 </v>
    <v>       0.00000000       0.00000000       0.42725485 </v>
   </varray>
  </crystal>
  <varray name="positions" >
   <v>       0.00000000       0.00000000       0.00000000 </v>
  </varray>
 </structure>
</modeling>
