   1   1   0   0
  0.1813235E+02  0.2866544E-09  0.2866544E-09  0.2866544E-09  0.5000000E-15
  1.000000000000000E-004
  CAR 
 unknown system                          
     16.45658060     -2.83923536  301      5.67431971      1.00000000
     -2.839  0.0000E+00  0.0000E+00
     -2.775  0.0000E+00  0.0000E+00
     -2.711  0.0000E+00  0.0000E+00
     -2.646  0.0000E+00  0.0000E+00
     -2.582  0.0000E+00  0.0000E+00
     -2.518  0.0000E+00  0.0000E+00
     -2.453  0.0000E+00  0.0000E+00
     -2.389 -0.1003E-31 -0.6454E-33
     -2.325 -0.5630E-23 -0.3621E-24
     -2.260 -0.1118E-15 -0.7190E-17
     -2.196 -0.7385E-10 -0.4750E-11
     -2.132 -0.1654E-05 -0.1064E-06
     -2.067 -0.1045E-02 -0.6734E-04
     -2.003  0.2044E-02  0.6412E-04
     -1.939  0.1579E+00  0.1022E-01
     -1.874  0.3067E-01  0.1220E-01
     -1.810 -0.3019E-02  0.1200E-01
     -1.746 -0.1390E-04  0.1200E-01
     -1.681 -0.1109E-03  0.1199E-01
     -1.617 -0.7637E-02  0.1150E-01
     -1.553  0.1050E+00  0.1825E-01
     -1.489  0.1602E+00  0.2855E-01
     -1.424 -0.8251E-02  0.2802E-01
     -1.360 -0.3708E-03  0.2800E-01
     -1.296 -0.7148E-04  0.2800E-01
     -1.231 -0.1346E-01  0.2713E-01
     -1.167  0.1441E+00  0.3640E-01
     -1.103  0.6191E+00  0.7622E-01
     -1.038  0.2276E-03  0.7623E-01
     -0.974 -0.3568E-02  0.7600E-01
     -0.910 -0.4958E-05  0.7600E-01
     -0.845 -0.1964E-09  0.7600E-01
     -0.781 -0.3314E-15  0.7600E-01
     -0.717 -0.1468E-14  0.7600E-01
     -0.652 -0.7571E-09  0.7600E-01
     -0.588 -0.1281E-04  0.7600E-01
     -0.524 -0.5951E-02  0.7562E-01
     -0.459  0.2970E-01  0.7753E-01
     -0.395  0.6745E+00  0.1209E+00
     -0.331  0.2397E+00  0.1363E+00
     -0.266 -0.3733E-02  0.1361E+00
     -0.202 -0.1560E-02  0.1360E+00
     -0.138 -0.2089E-01  0.1346E+00
     -0.074  0.2713E+00  0.1521E+00
     -0.009  0.5199E+00  0.1855E+00
      0.055 -0.2365E-01  0.1840E+00
      0.119 -0.2534E-01  0.1824E+00
      0.184  0.4994E+00  0.2145E+00
      0.248  0.2943E+00  0.2334E+00
      0.312 -0.2200E-01  0.2320E+00
      0.377 -0.2835E-03  0.2320E+00
      0.441 -0.7531E-07  0.2320E+00
      0.505 -0.6262E-12  0.2320E+00
      0.570 -0.5371E-13  0.2320E+00
      0.634 -0.1189E-07  0.2320E+00
      0.698 -0.8447E-04  0.2320E+00
      0.763 -0.1513E-01  0.2310E+00
      0.827  0.1144E+00  0.2384E+00
      0.891  0.1235E+01  0.3178E+00
      0.956  0.9577E+00  0.3794E+00
      1.020 -0.5039E-01  0.3762E+00
      1.084 -0.3067E-02  0.3760E+00
      1.149 -0.4551E-01  0.3730E+00
      1.213  0.5795E+00  0.4103E+00
      1.277  0.1696E+01  0.5194E+00
      1.342  0.1907E-01  0.5206E+00
      1.406 -0.2911E-01  0.5187E+00
      1.470  0.5363E+00  0.5532E+00
      1.534  0.6555E+00  0.5954E+00
      1.599  0.5969E+00  0.6338E+00
      1.663  0.1077E+00  0.6407E+00
      1.727 -0.1072E-01  0.6400E+00
      1.792 -0.9174E-02  0.6394E+00
      1.856  0.1371E-03  0.6394E+00
      1.920  0.1485E+01  0.7349E+00
      1.985  0.1761E+01  0.8482E+00
      2.049  0.1643E+01  0.9538E+00
      2.113  0.8467E+00  0.1008E+01
      2.178  0.6221E+00  0.1048E+01
      2.242  0.3237E+00  0.1069E+01
      2.306  0.1187E+01  0.1145E+01
      2.371  0.1227E+01  0.1224E+01
      2.435  0.4516E+00  0.1253E+01
      2.499  0.1384E+00  0.1262E+01
      2.564  0.5951E+00  0.1301E+01
      2.628 -0.2869E-01  0.1299E+01
      2.692  0.4852E+00  0.1330E+01
      2.757  0.8282E+00  0.1383E+01
      2.821  0.3121E+01  0.1584E+01
      2.885  0.1780E+01  0.1699E+01
      2.950  0.1283E+01  0.1781E+01
      3.014  0.3242E+00  0.1802E+01
      3.078  0.2682E-01  0.1804E+01
      3.142  0.1868E+01  0.1924E+01
      3.207  0.1530E+01  0.2022E+01
      3.271  0.7020E+00  0.2067E+01
      3.335  0.1542E-01  0.2068E+01
      3.400 -0.8839E-02  0.2068E+01
      3.464  0.2784E-01  0.2070E+01
      3.528  0.2150E+00  0.2083E+01
      3.593 -0.1561E-01  0.2082E+01
      3.657  0.4668E+00  0.2112E+01
      3.721  0.9592E+00  0.2174E+01
      3.786  0.1401E+01  0.2264E+01
      3.850  0.4995E+00  0.2296E+01
      3.914  0.4554E+00  0.2326E+01
      3.979 -0.3091E-01  0.2324E+01
      4.043  0.4705E-01  0.2327E+01
      4.107  0.2961E+00  0.2346E+01
      4.172  0.1940E+01  0.2471E+01
      4.236  0.2233E+01  0.2614E+01
      4.300  0.7736E+00  0.2664E+01
      4.365  0.2923E+01  0.2852E+01
      4.429  0.4088E+01  0.3115E+01
      4.493  0.7860E+00  0.3165E+01
      4.557  0.1285E+01  0.3248E+01
      4.622  0.1931E+01  0.3372E+01
      4.686  0.1145E+01  0.3446E+01
      4.750  0.4868E+00  0.3477E+01
      4.815  0.1429E+01  0.3569E+01
      4.879  0.1425E+01  0.3661E+01
      4.943  0.2640E+01  0.3831E+01
      5.008  0.2850E+01  0.4014E+01
      5.072  0.5144E+00  0.4047E+01
      5.136 -0.1040E+00  0.4040E+01
      5.201  0.6325E+00  0.4081E+01
      5.265  0.3137E+01  0.4283E+01
      5.329  0.2603E+01  0.4450E+01
      5.394  0.2032E+01  0.4581E+01
      5.458  0.6031E+00  0.4620E+01
      5.522  0.1048E+01  0.4687E+01
      5.587  0.1386E+01  0.4776E+01
      5.651  0.3090E+01  0.4975E+01
      5.715  0.1450E+01  0.5068E+01
      5.780  0.1603E+01  0.5171E+01
      5.844  0.2833E-02  0.5172E+01
      5.908  0.9085E-01  0.5177E+01
      5.973  0.1957E+01  0.5303E+01
      6.037  0.8511E+00  0.5358E+01
      6.101  0.1225E+01  0.5437E+01
      6.165  0.1748E+01  0.5549E+01
      6.230  0.6317E+00  0.5590E+01
      6.294 -0.3978E-01  0.5587E+01
      6.358  0.1546E+00  0.5597E+01
      6.423  0.5266E+00  0.5631E+01
      6.487  0.6858E-01  0.5636E+01
      6.551  0.1974E+00  0.5648E+01
      6.616  0.7093E+00  0.5694E+01
      6.680  0.2150E+00  0.5708E+01
      6.744  0.5709E+00  0.5744E+01
      6.809  0.6966E-02  0.5745E+01
      6.873  0.1222E+01  0.5823E+01
      6.937  0.3438E+00  0.5846E+01
      7.002  0.7973E+00  0.5897E+01
      7.066  0.6377E+00  0.5938E+01
      7.130 -0.3574E-01  0.5936E+01
      7.195  0.2653E+00  0.5953E+01
      7.259  0.8213E+00  0.6005E+01
      7.323  0.1544E+00  0.6015E+01
      7.388  0.7953E+00  0.6067E+01
      7.452  0.8874E-01  0.6072E+01
      7.516  0.1018E+01  0.6138E+01
      7.581  0.6049E+00  0.6177E+01
      7.645  0.6033E+00  0.6215E+01
      7.709  0.1360E-01  0.6216E+01
      7.773 -0.4639E-02  0.6216E+01
      7.838 -0.1087E-04  0.6216E+01
      7.902 -0.2869E-02  0.6216E+01
      7.966 -0.3897E-01  0.6213E+01
      8.031  0.8986E+00  0.6271E+01
      8.095  0.1270E+01  0.6353E+01
      8.159  0.1613E+01  0.6457E+01
      8.224  0.8012E+00  0.6508E+01
      8.288 -0.9337E-01  0.6502E+01
      8.352  0.3507E+00  0.6525E+01
      8.417  0.1169E+01  0.6600E+01
      8.481  0.4191E+00  0.6627E+01
      8.545  0.6115E+00  0.6666E+01
      8.610  0.8123E+00  0.6718E+01
      8.674  0.1747E+01  0.6831E+01
      8.738  0.1099E+01  0.6901E+01
      8.803  0.2036E+00  0.6914E+01
      8.867  0.1127E+01  0.6987E+01
      8.931  0.1792E+01  0.7102E+01
      8.996  0.9375E+00  0.7163E+01
      9.060  0.5189E+00  0.7196E+01
      9.124  0.1790E+01  0.7311E+01
      9.188  0.2355E+01  0.7463E+01
      9.253  0.8493E+00  0.7517E+01
      9.317  0.2986E+00  0.7536E+01
      9.381  0.2051E+01  0.7668E+01
      9.446  0.9840E+00  0.7732E+01
      9.510  0.1242E+01  0.7811E+01
      9.574  0.5973E+00  0.7850E+01
      9.639  0.1179E+00  0.7857E+01
      9.703  0.1162E+01  0.7932E+01
      9.767  0.1594E+01  0.8035E+01
      9.832  0.1200E+01  0.8112E+01
      9.896  0.1855E+00  0.8124E+01
      9.960  0.1844E+00  0.8136E+01
     10.025  0.1546E+01  0.8235E+01
     10.089  0.2226E+01  0.8378E+01
     10.153  0.8489E+00  0.8433E+01
     10.218  0.9584E+00  0.8495E+01
     10.282  0.9254E+00  0.8554E+01
     10.346  0.1311E+01  0.8638E+01
     10.411  0.2075E+01  0.8772E+01
     10.475  0.3117E+01  0.8972E+01
     10.539  0.2487E+01  0.9132E+01
     10.604  0.3318E+01  0.9346E+01
     10.668  0.3507E+01  0.9571E+01
     10.732  0.4429E+01  0.9856E+01
     10.796  0.2514E+01  0.1002E+02
     10.861  0.2211E+01  0.1016E+02
     10.925  0.1119E+01  0.1023E+02
     10.989  0.7985E+00  0.1028E+02
     11.054 -0.6754E-02  0.1028E+02
     11.118  0.5332E+00  0.1032E+02
     11.182  0.2302E+00  0.1033E+02
     11.247  0.5419E+00  0.1037E+02
     11.311  0.2503E+00  0.1038E+02
     11.375  0.2915E+00  0.1040E+02
     11.440  0.3064E+00  0.1042E+02
     11.504  0.2425E+00  0.1044E+02
     11.568 -0.2656E-01  0.1044E+02
     11.633  0.9033E-01  0.1044E+02
     11.697  0.6210E+00  0.1048E+02
     11.761  0.4824E+00  0.1051E+02
     11.826  0.3328E+00  0.1053E+02
     11.890 -0.3033E-01  0.1053E+02
     11.954  0.3962E-01  0.1053E+02
     12.019  0.6530E+00  0.1058E+02
     12.083  0.6821E-01  0.1058E+02
     12.147 -0.1219E-01  0.1058E+02
     12.212 -0.7518E-02  0.1058E+02
     12.276  0.7405E+00  0.1063E+02
     12.340  0.2232E+00  0.1064E+02
     12.404 -0.1974E-01  0.1064E+02
     12.469 -0.2241E-01  0.1064E+02
     12.533  0.2992E+00  0.1066E+02
     12.597  0.4156E+00  0.1068E+02
     12.662  0.9641E+00  0.1075E+02
     12.726  0.2806E+01  0.1093E+02
     12.790  0.9131E+00  0.1099E+02
     12.855  0.1225E+01  0.1106E+02
     12.919  0.1712E+01  0.1117E+02
     12.983  0.9855E+00  0.1124E+02
     13.048  0.3828E+00  0.1126E+02
     13.112  0.1099E+01  0.1133E+02
     13.176 -0.1570E-01  0.1133E+02
     13.241 -0.5289E-02  0.1133E+02
     13.305 -0.7479E-05  0.1133E+02
     13.369 -0.2497E-06  0.1133E+02
     13.434 -0.3539E-03  0.1133E+02
     13.498 -0.5747E-02  0.1133E+02
     13.562  0.1216E+00  0.1134E+02
     13.627  0.1128E+00  0.1135E+02
     13.691  0.6473E+00  0.1139E+02
     13.755  0.5565E-01  0.1139E+02
     13.819  0.2707E+00  0.1141E+02
     13.884  0.8685E-01  0.1141E+02
     13.948  0.4247E+00  0.1144E+02
     14.012  0.3639E+00  0.1147E+02
     14.077 -0.2466E-01  0.1146E+02
     14.141 -0.4803E-03  0.1146E+02
     14.205 -0.1017E-04  0.1146E+02
     14.270 -0.5642E-02  0.1146E+02
     14.334  0.6210E-02  0.1146E+02
     14.398  0.9051E+00  0.1152E+02
     14.463  0.1782E+00  0.1153E+02
     14.527  0.7757E+00  0.1158E+02
     14.591  0.1465E+01  0.1168E+02
     14.656  0.1002E+00  0.1168E+02
     14.720  0.1867E+00  0.1170E+02
     14.784 -0.3264E-02  0.1170E+02
     14.849 -0.5112E-02  0.1170E+02
     14.913 -0.3165E-01  0.1169E+02
     14.977  0.1059E+01  0.1176E+02
     15.042  0.9193E+00  0.1182E+02
     15.106  0.1082E+01  0.1189E+02
     15.170 -0.4108E-01  0.1189E+02
     15.235  0.2493E-01  0.1189E+02
     15.299  0.6260E+00  0.1193E+02
     15.363  0.4104E+00  0.1196E+02
     15.427  0.4591E+00  0.1199E+02
     15.492 -0.2921E-01  0.1198E+02
     15.556  0.3987E-01  0.1199E+02
     15.620  0.2106E+00  0.1200E+02
     15.685  0.2725E-02  0.1200E+02
     15.749 -0.1394E-02  0.1200E+02
     15.813 -0.2206E-05  0.1200E+02
     15.878 -0.9847E-10  0.1200E+02
     15.942 -0.1657E-15  0.1200E+02
     16.006  0.0000E+00  0.1200E+02
     16.071  0.0000E+00  0.1200E+02
     16.135  0.0000E+00  0.1200E+02
     16.199  0.0000E+00  0.1200E+02
     16.264  0.0000E+00  0.1200E+02
     16.328  0.0000E+00  0.1200E+02
     16.392  0.0000E+00  0.1200E+02
     16.457  0.0000E+00  0.1200E+02
