    1    1    1    2
  0.1813235E+02  0.2866544E-09  0.2866544E-09  0.2866544E-09  0.5000000E-15
  1.000000000000000E-004
  CAR 
 unknown system                          
    5   44    6
 
  0.5000000E-01  0.5000000E-01  0.5000000E-01  0.8000000E-02
   1       -1.542899     -1.550853
   2        6.091532      6.084066
   3        6.091532      6.084066
   4        7.206607      7.199244
   5        9.446742      9.441367
   6        9.446742      9.441367
 
  0.1500000E+00  0.5000000E-01  0.5000000E-01  0.2400000E-01
   1       -0.420318     -0.428221
   2        5.418167      5.410664
   3        5.601722      5.594402
   4        8.555195      8.548046
   5        9.130512      9.124796
   6        9.714368      9.709023
 
  0.2500000E+00  0.5000000E-01  0.5000000E-01  0.2400000E-01
   1        0.905451      0.897640
   2        4.761338      4.753786
   3        5.300293      5.293104
   4        9.349333      9.343460
   5       10.041993     10.036745
   6       10.527848     10.521019
 
  0.3500000E+00  0.5000000E-01  0.5000000E-01  0.2400000E-01
   1        1.534266      1.526633
   2        4.311747      4.304160
   3        6.111859      6.104579
   4        9.671809      9.665961
   5       10.405357     10.400277
   6       12.662936     12.656620
 
  0.4500000E+00  0.5000000E-01  0.5000000E-01  0.1200000E-01
   1        1.591726      1.584174
   2        4.153548      4.145949
   3        6.987706      6.980283
   4        9.653191      9.647409
   5       10.589675     10.584706
   6       13.808292     13.802461
 
 -0.5000000E-01  0.5000000E-01  0.5000000E-01  0.6000000E-02
   1       -1.958697     -1.966671
   2        6.409753      6.402288
   3        6.409754      6.402289
   4        6.547850      6.540398
   5        9.310895      9.305524
   6        9.807365      9.802166
 
  0.1500000E+00  0.1500000E+00  0.5000000E-01  0.2400000E-01
   1        0.849976      0.842130
   2        4.872632      4.865347
   3        4.944972      4.937485
   4        9.205780      9.200005
   5       10.087634     10.082355
   6       10.452296     10.445403
 
  0.2500000E+00  0.1500000E+00  0.5000000E-01  0.4800000E-01
   1        2.016207      2.008487
   2        4.400973      4.393555
   3        4.977881      4.970533
   4        9.506647      9.500841
   5       10.429764     10.424612
   6       12.677681     12.671163
 
  0.3500000E+00  0.1500000E+00  0.5000000E-01  0.4800000E-01
   1        2.294346      2.286794
   2        4.186563      4.179037
   3        5.942936      5.935652
   4        9.758843      9.753093
   5       10.631038     10.625914
   6       14.530580     14.524496
 
 -0.1500000E+00  0.1500000E+00  0.5000000E-01  0.2400000E-01
   1       -1.142355     -1.150286
   2        5.956234      5.948734
   3        6.184656      6.177286
   4        7.360090      7.352751
   5        8.628971      8.623271
   6        9.989735      9.984542
 
  0.2500000E+00  0.2500000E+00  0.5000000E-01  0.2400000E-01
   1        2.935381      2.927706
   2        4.295686      4.288514
   3        5.013946      5.006520
   4        9.820778      9.815043
   5       10.527963     10.522705
   6       14.961188     14.954966
 
  0.3500000E+00  0.2500000E+00  0.5000000E-01  0.2400000E-01
   1        3.116426      3.108787
   2        4.379800      4.372530
   3        5.254667      5.247494
   4       10.060214     10.054560
   5       10.572598     10.567235
   6       14.385732     14.377923
 
 -0.2500000E+00  0.2500000E+00  0.5000000E-01  0.2400000E-01
   1        0.179028      0.171172
   2        5.267794      5.260250
   3        5.613321      5.606210
   4        8.654106      8.648053
   5        8.973192      8.966108
   6       10.185785     10.180587
 
 -0.1500000E+00  0.2500000E+00  0.5000000E-01  0.2400000E-01
   1       -0.060189     -0.068055
   2        5.630994      5.623812
   3        5.701989      5.694496
   4        8.071283      8.065181
   5        8.479463      8.472289
   6       10.388819     10.383702
 
 -0.3500000E+00  0.3500000E+00  0.5000000E-01  0.2400000E-01
   1        1.216614      1.208905
   2        4.673094      4.665517
   3        5.696711      5.689636
   4        9.186969      9.180825
   5       10.413254     10.408097
   6       11.109117     11.102485
 
 -0.2500000E+00  0.3500000E+00  0.5000000E-01  0.4800000E-01
   1        1.243094      1.235335
   2        4.920929      4.913797
   3        5.352907      5.345533
   4        8.373325      8.366985
   5       10.307504     10.301023
   6       10.691943     10.686427
 
 -0.4500000E+00  0.4500000E+00  0.5000000E-01  0.2400000E-01
   1        1.459497      1.451944
   2        4.341030      4.333438
   3        6.699502      6.692308
   4        9.346014      9.340008
   5       10.782599     10.777363
   6       13.055693     13.049742
 
 -0.3500000E+00  0.4500000E+00  0.5000000E-01  0.4800000E-01
   1        1.899433      1.891869
   2        4.619142      4.611703
   3        5.599968      5.592907
   4        8.912626      8.906350
   5       10.726507     10.721017
   6       12.696422     12.690161
 
 -0.2500000E+00  0.4500000E+00  0.5000000E-01  0.2400000E-01
   1        2.365990      2.358337
   2        4.325654      4.318735
   3        5.359026      5.351598
   4        8.679862      8.673479
   5       10.432238     10.426629
   6       12.767897     12.761571
 
 -0.4500000E+00 -0.4500000E+00  0.5000000E-01  0.2400000E-01
   1        1.955245      1.947779
   2        4.517579      4.510052
   3        6.093774      6.086811
   4        8.866276      8.860107
   5       11.234777     11.229128
   6       13.947930     13.942093
 
 -0.3500000E+00 -0.4500000E+00  0.5000000E-01  0.4800000E-01
   1        2.835944      2.828441
   2        4.383726      4.376597
   3        5.223613      5.216573
   4        9.148708      9.142420
   5       10.653000     10.647083
   6       15.057853     15.051910
 
 -0.3500000E+00 -0.3500000E+00  0.5000000E-01  0.8000000E-02
   1        3.495580      3.487840
   2        4.481354      4.474496
   3        4.481355      4.474496
   4       10.111184     10.105054
   5       10.111185     10.105054
   6       14.676595     14.668938
 
  0.1500000E+00  0.1500000E+00  0.1500000E+00  0.8000000E-02
   1        2.236427      2.228640
   2        4.388302      4.380893
   3        4.388302      4.380893
   4       10.054537     10.049159
   5       10.054537     10.049159
   6       12.785412     12.778861
 
  0.2500000E+00  0.1500000E+00  0.1500000E+00  0.2400000E-01
   1        3.143836      3.136242
   2        4.142552      4.135049
   3        4.786528      4.779124
   4       10.221224     10.215845
   5       10.531700     10.526640
   6       14.972278     14.966000
 
  0.3500000E+00  0.1500000E+00  0.1500000E+00  0.1200000E-01
   1        3.151456      3.143957
   2        4.070436      4.062898
   3        5.608883      5.601518
   4       10.281093     10.275708
   5       10.683378     10.678448
   6       14.371803     14.363946
 
 -0.1500000E+00  0.1500000E+00  0.1500000E+00  0.6000000E-02
   1       -0.365227     -0.373096
   2        6.367480      6.360045
   3        6.367481      6.360046
   4        7.171829      7.165892
   5        7.366288      7.358958
   6       10.585040     10.580011
 
  0.2500000E+00  0.2500000E+00  0.1500000E+00  0.2400000E-01
   1        3.745286      3.737719
   2        4.405732      4.398370
   3        4.834479      4.827059
   4       10.534735     10.529587
   5       10.664163     10.659158
   6       13.663808     13.655662
 
 -0.2500000E+00  0.2500000E+00  0.1500000E+00  0.2400000E-01
   1        0.897245      0.889493
   2        5.516055      5.509388
   3        6.009972      6.002518
   4        7.237974      7.231151
   5        8.726980      8.719869
   6       10.789155     10.784029
 
 -0.3500000E+00  0.3500000E+00  0.1500000E+00  0.2400000E-01
   1        1.941648      1.934095
   2        4.890963      4.884286
   3        5.502345      5.494858
   4        8.041923      8.035180
   5       10.854005     10.847329
   6       10.893035     10.887444
 
 -0.2500000E+00  0.3500000E+00  0.1500000E+00  0.2400000E-01
   1        2.066414      2.058850
   2        4.572150      4.565569
   3        6.144210      6.136813
   4        7.519838      7.512869
   5        9.984207      9.977601
   6       10.954140     10.948295
 
 -0.4500000E+00  0.4500000E+00  0.1500000E+00  0.2400000E-01
   1        2.164573      2.157239
   2        5.203825      5.196320
   3        5.261719      5.254988
   4        8.016941      8.010410
   5       11.991126     11.984989
   6       12.853167     12.847168
 
 -0.3500000E+00  0.4500000E+00  0.1500000E+00  0.4800000E-01
   1        2.771407      2.764134
   2        4.187620      4.180933
   3        5.745870      5.738564
   4        8.154279      8.147473
   5       10.723345     10.716980
   6       12.912074     12.905777
 
 -0.4500000E+00 -0.4500000E+00  0.1500000E+00  0.2400000E-01
   1        2.783301      2.776211
   2        4.566019      4.559370
   3        5.298922      5.291545
   4        8.148838      8.142037
   5       11.759290     11.752997
   6       14.566886     14.560721
 
 -0.3500000E+00 -0.4500000E+00  0.1500000E+00  0.2400000E-01
   1        3.651466      3.644455
   2        3.712915      3.706281
   3        4.975132      4.967799
   4        9.417008      9.410296
   5       10.585672     10.579132
   6       15.371368     15.364958
 
  0.2500000E+00  0.2500000E+00  0.2500000E+00  0.2000000E-02
   1        4.475365      4.467926
   2        4.475367      4.467927
   3        4.475367      4.467927
   4       10.742561     10.737656
   5       10.742561     10.737656
   6       12.748596     12.740188
 
 -0.2500000E+00  0.2500000E+00  0.2500000E+00  0.6000000E-02
   1        1.973743      1.966224
   2        4.788679      4.782384
   3        6.957433      6.950095
   4        6.957434      6.950096
   5        8.885359      8.878306
   6       10.687711     10.682055
 
 -0.3500000E+00  0.3500000E+00  0.2500000E+00  0.2400000E-01
   1        2.796444      2.789279
   2        3.859108      3.852645
   3        7.017804      7.010483
   4        7.608607      7.601493
   5       10.548205     10.541498
   6       10.838215     10.831711
 
 -0.4500000E+00  0.4500000E+00  0.2500000E+00  0.2400000E-01
   1        2.831427      2.824612
   2        3.772854      3.766266
   3        6.847803      6.840471
   4        7.492337      7.485222
   5       12.543467     12.537401
   6       12.826834     12.819841
 
 -0.3500000E+00  0.4500000E+00  0.2500000E+00  0.2400000E-01
   1        3.122638      3.115849
   2        3.185219      3.178709
   3        6.859901      6.852567
   4        8.835996      8.828951
   5       10.818455     10.811639
   6       12.930304     12.923669
 
 -0.4500000E+00 -0.4500000E+00  0.2500000E+00  0.2400000E-01
   1        2.913499      2.906907
   2        3.237541      3.230983
   3        6.582568      6.575117
   4        9.351685      9.344695
   5       11.662431     11.655894
   6       15.273551     15.266686
 
 -0.3500000E+00  0.3500000E+00  0.3500000E+00  0.6000000E-02
   1        2.900018      2.893260
   2        2.999621      2.993150
   3        8.615123      8.607971
   4        8.615123      8.607971
   5       10.769622     10.763039
   6       10.947845     10.940549
 
 -0.4500000E+00  0.4500000E+00  0.3500000E+00  0.2400000E-01
   1        2.520404      2.513865
   2        2.682840      2.676271
   3        9.079924      9.072711
   4        9.086553      9.079480
   5       12.262727     12.256613
   6       13.074491     13.066902
 
 -0.4500000E+00 -0.4500000E+00  0.3500000E+00  0.8000000E-02
   1        2.366677      2.360134
   2        2.366677      2.360134
   3        9.011971      9.004760
   4       11.440231     11.433573
   5       11.440235     11.433573
   6       15.582484     15.575122
 
 -0.4500000E+00  0.4500000E+00  0.4500000E+00  0.6000000E-02
   1        2.064644      2.058101
   2        2.111564      2.105011
   3       11.344089     11.337389
   4       11.344090     11.337389
   5       12.251309     12.245252
   6       13.556149     13.548064
