    1    1    1    1
  0.1813235E+02  0.2866544E-09  0.2866544E-09  0.2866544E-09  0.5000000E-15
  1.000000000000000E-004
  CAR 
 unknown system                          
    5   44    6
 
  0.5000000E-01  0.5000000E-01  0.5000000E-01  0.8000000E-02
   1       -1.546333
   2        6.088055
   3        6.088055
   4        7.203196
   5        9.444258
   6        9.444258
 
  0.1500000E+00  0.5000000E-01  0.5000000E-01  0.2400000E-01
   1       -0.423707
   2        5.414672
   3        5.598343
   4        8.551923
   5        9.127869
   6        9.711900
 
  0.2500000E+00  0.5000000E-01  0.5000000E-01  0.2400000E-01
   1        0.902071
   2        4.757820
   3        5.297091
   4        9.346624
   5       10.039573
   6       10.524778
 
  0.3500000E+00  0.5000000E-01  0.5000000E-01  0.2400000E-01
   1        1.530845
   2        4.308213
   3        6.108847
   4        9.669132
   5       10.403016
   6       12.660147
 
  0.4500000E+00  0.5000000E-01  0.5000000E-01  0.1200000E-01
   1        1.588294
   2        4.150009
   3        6.984766
   4        9.650540
   5       10.587387
   6       13.805735
 
 -0.5000000E-01  0.5000000E-01  0.5000000E-01  0.6000000E-02
   1       -1.962153
   2        6.406277
   3        6.406278
   4        6.544377
   5        9.308412
   6        9.804967
 
  0.1500000E+00  0.1500000E+00  0.5000000E-01  0.2400000E-01
   1        0.846623
   2        4.869279
   3        4.941514
   4        9.203108
   5       10.085200
   6       10.449212
 
  0.2500000E+00  0.1500000E+00  0.5000000E-01  0.4800000E-01
   1        2.012835
   2        4.397560
   3        4.974634
   4        9.503969
   5       10.427395
   6       12.674845
 
  0.3500000E+00  0.1500000E+00  0.5000000E-01  0.4800000E-01
   1        2.290944
   2        4.183095
   3        5.939913
   4        9.756204
   5       10.628693
   6       14.527986
 
 -0.1500000E+00  0.1500000E+00  0.5000000E-01  0.2400000E-01
   1       -1.145769
   2        5.952739
   3        6.181243
   4        7.356690
   5        8.626330
   6        9.987343
 
  0.2500000E+00  0.2500000E+00  0.5000000E-01  0.2400000E-01
   1        2.931937
   2        4.292476
   3        5.010712
   4        9.818139
   5       10.525556
   6       14.958564
 
  0.3500000E+00  0.2500000E+00  0.5000000E-01  0.2400000E-01
   1        3.112947
   2        4.376558
   3        5.251612
   4       10.057620
   5       10.570150
   6       14.382401
 
 -0.2500000E+00  0.2500000E+00  0.5000000E-01  0.2400000E-01
   1        0.175655
   2        5.264276
   3        5.610095
   4        8.651310
   5        8.969946
   6       10.183392
 
 -0.1500000E+00  0.2500000E+00  0.5000000E-01  0.2400000E-01
   1       -0.063553
   2        5.627677
   3        5.698515
   4        8.068453
   5        8.476173
   6       10.386468
 
 -0.3500000E+00  0.3500000E+00  0.5000000E-01  0.2400000E-01
   1        1.213214
   2        4.669559
   3        5.693681
   4        9.184165
   5       10.410889
   6       11.106123
 
 -0.2500000E+00  0.3500000E+00  0.5000000E-01  0.4800000E-01
   1        1.239750
   2        4.917656
   3        5.349553
   4        8.370403
   5       10.304565
   6       10.689444
 
 -0.4500000E+00  0.4500000E+00  0.5000000E-01  0.2400000E-01
   1        1.456070
   2        4.337487
   3        6.696601
   4        9.343272
   5       10.780248
   6       13.053041
 
 -0.3500000E+00  0.4500000E+00  0.5000000E-01  0.4800000E-01
   1        1.896052
   2        4.615704
   3        5.596949
   4        8.909761
   5       10.724031
   6       12.693673
 
 -0.2500000E+00  0.4500000E+00  0.5000000E-01  0.2400000E-01
   1        2.362633
   2        4.322514
   3        5.355704
   4        8.676927
   5       10.429682
   6       12.765154
 
 -0.4500000E+00 -0.4500000E+00  0.5000000E-01  0.2400000E-01
   1        1.951857
   2        4.514089
   3        6.090889
   4        8.863442
   5       11.232302
   6       13.945404
 
 -0.3500000E+00 -0.4500000E+00  0.5000000E-01  0.4800000E-01
   1        2.832555
   2        4.380501
   3        5.220560
   4        9.145830
   5       10.650345
   6       15.055364
 
 -0.3500000E+00 -0.3500000E+00  0.5000000E-01  0.8000000E-02
   1        3.492017
   2        4.478344
   3        4.478344
   4       10.108412
   5       10.108413
   6       14.673325
 
  0.1500000E+00  0.1500000E+00  0.1500000E+00  0.8000000E-02
   1        2.233113
   2        4.384905
   3        4.384905
   4       10.052056
   5       10.052056
   6       12.782575
 
  0.2500000E+00  0.1500000E+00  0.1500000E+00  0.2400000E-01
   1        3.140495
   2        4.139123
   3        4.783313
   4       10.218748
   5       10.529370
   6       14.969628
 
  0.3500000E+00  0.1500000E+00  0.1500000E+00  0.1200000E-01
   1        3.148101
   2        4.066996
   3        5.605790
   4       10.278621
   5       10.681110
   6       14.368459
 
 -0.1500000E+00  0.1500000E+00  0.1500000E+00  0.6000000E-02
   1       -0.368590
   2        6.364045
   3        6.364046
   4        7.169070
   5        7.362880
   6       10.582734
 
  0.2500000E+00  0.2500000E+00  0.1500000E+00  0.2400000E-01
   1        3.741878
   2        4.402473
   3        4.831276
   4       10.532367
   5       10.661862
   6       13.660333
 
 -0.2500000E+00  0.2500000E+00  0.1500000E+00  0.2400000E-01
   1        0.893945
   2        5.512989
   3        6.006526
   4        7.234838
   5        8.723710
   6       10.786820
 
 -0.3500000E+00  0.3500000E+00  0.1500000E+00  0.2400000E-01
   1        1.938352
   2        4.887986
   3        5.498880
   4        8.038867
   5       10.850982
   6       10.890547
 
 -0.2500000E+00  0.3500000E+00  0.1500000E+00  0.2400000E-01
   1        2.063177
   2        4.569118
   3        6.140837
   4        7.516649
   5        9.981192
   6       10.951536
 
 -0.4500000E+00  0.4500000E+00  0.1500000E+00  0.2400000E-01
   1        2.161261
   2        5.200349
   3        5.258832
   4        8.013953
   5       11.988551
   6       12.850488
 
 -0.3500000E+00  0.4500000E+00  0.1500000E+00  0.4800000E-01
   1        2.768184
   2        4.184614
   3        5.742545
   4        8.151181
   5       10.720513
   6       12.909359
 
 -0.4500000E+00 -0.4500000E+00  0.1500000E+00  0.2400000E-01
   1        2.780090
   2        4.563112
   3        5.295531
   4        8.145737
   5       11.756558
   6       14.564330
 
 -0.3500000E+00 -0.4500000E+00  0.1500000E+00  0.2400000E-01
   1        3.648342
   2        3.709913
   3        4.971792
   4        9.413993
   5       10.582772
   6       15.368672
 
  0.2500000E+00  0.2500000E+00  0.2500000E+00  0.2000000E-02
   1        4.472086
   2        4.472087
   3        4.472087
   4       10.740305
   5       10.740305
   6       12.744989
 
 -0.2500000E+00  0.2500000E+00  0.2500000E+00  0.6000000E-02
   1        1.970558
   2        4.785746
   3        6.954094
   4        6.954095
   5        8.882099
   6       10.685169
 
 -0.3500000E+00  0.3500000E+00  0.2500000E+00  0.2400000E-01
   1        2.793342
   2        3.856123
   3        7.014471
   4        7.605392
   5       10.545152
   6       10.835388
 
 -0.4500000E+00  0.4500000E+00  0.2500000E+00  0.2400000E-01
   1        2.828331
   2        3.769909
   3        6.844458
   4        7.489121
   5       12.540750
   6       12.823961
 
 -0.3500000E+00  0.4500000E+00  0.2500000E+00  0.2400000E-01
   1        3.119624
   2        3.182208
   3        6.856578
   4        8.832849
   5       10.815447
   6       12.927471
 
 -0.4500000E+00 -0.4500000E+00  0.2500000E+00  0.2400000E-01
   1        2.910476
   2        3.234568
   3        6.579201
   4        9.348575
   5       11.659572
   6       15.270769
 
 -0.3500000E+00  0.3500000E+00  0.3500000E+00  0.6000000E-02
   1        2.897016
   2        2.996604
   3        8.611935
   4        8.611935
   5       10.766614
   6       10.944750
 
 -0.4500000E+00  0.4500000E+00  0.3500000E+00  0.2400000E-01
   1        2.517371
   2        2.679836
   3        9.076743
   4        9.083394
   5       12.259981
   6       13.071378
 
 -0.4500000E+00 -0.4500000E+00  0.3500000E+00  0.8000000E-02
   1        2.363647
   2        2.363647
   3        9.008776
   4       11.437312
   5       11.437313
   6       15.579498
 
 -0.4500000E+00  0.4500000E+00  0.4500000E+00  0.6000000E-02
   1        2.061593
   2        2.108522
   3       11.341150
   4       11.341151
   5       12.248584
   6       13.552869
