       N       E                     dE             d eps       ncg     rms          rms(c)
DAV:   1     0.117702564679E+02    0.11770E+02   -0.19808E+03  1092   0.551E+02
DAV:   2    -0.121189514542E+01   -0.12982E+02   -0.11090E+02  1908   0.769E+01
DAV:   3    -0.131055601032E+01   -0.98661E-01   -0.96457E-01  1074   0.941E+00
DAV:   4    -0.131201684727E+01   -0.14608E-02   -0.14671E-02  1428   0.443E-01
DAV:   5    -0.131202415275E+01   -0.73055E-05   -0.73053E-05   930   0.243E-02    0.768E+00
DAV:   6    -0.117029781478E+02   -0.10391E+02   -0.34355E+00  1104   0.914E+00    0.389E+00
DAV:   7    -0.117807452816E+02   -0.77767E-01   -0.26905E-02  1230   0.148E+00    0.345E+00
DAV:   8    -0.117313355012E+02    0.49410E-01   -0.41173E-01  1152   0.516E+00    0.254E+00
DAV:   9    -0.118454100798E+02   -0.11407E+00   -0.10934E-01  1218   0.297E+00    0.721E-01
DAV:  10    -0.118617722914E+02   -0.16362E-01   -0.25300E-03  1212   0.477E-01    0.214E-01
DAV:  11    -0.118630866834E+02   -0.13144E-02   -0.59406E-03  1164   0.580E-01    0.168E-01
DAV:  12    -0.118630338599E+02    0.52823E-04   -0.13669E-03  1134   0.296E-01    0.306E-02
DAV:  13    -0.118629879302E+02    0.45930E-04   -0.10277E-04   612   0.785E-02
   1 F= -.11862988E+02 E0= -.11863193E+02  d E =0.615447E-03  mag=    -0.0022
