       N       E                     dE             d eps       ncg     rms          rms(c)
DAV:   1    -0.165648009495E+01   -0.16565E+01   -0.15323E+03   528   0.430E+02
DAV:   2    -0.122930624632E+02   -0.10637E+02   -0.10205E+02   936   0.735E+01
DAV:   3    -0.123442870958E+02   -0.51225E-01   -0.51140E-01   534   0.754E+00
DAV:   4    -0.123443756370E+02   -0.88541E-04   -0.88541E-04   750   0.246E-01
DAV:   5    -0.123443757835E+02   -0.14647E-06   -0.14640E-06   444   0.800E-03    0.323E+00
DAV:   6    -0.120154576640E+02    0.32892E+00   -0.20444E-01   618   0.339E+00    0.172E+00
DAV:   7    -0.118639661083E+02    0.15149E+00   -0.30035E-01   636   0.398E+00    0.126E-01
DAV:   8    -0.118629900406E+02    0.97607E-03   -0.86281E-04   570   0.249E-01    0.279E-02
DAV:   9    -0.118630040311E+02   -0.13991E-04   -0.57822E-05   366   0.579E-02
   1 F= -.11863004E+02 E0= -.11863211E+02  d E =0.621890E-03
