    2    2   50    1
  0.5000000E+03  0.1000000E-08  0.1000000E-08  0.1000000E-08  0.5000000E-15
  1.000000000000000E-004
  CAR 
 unknown system                          
   10    1    9
 
  0.0000000E+00  0.0000000E+00  0.0000000E+00  0.1000000E+01
   1      -29.125545
   2      -13.909555
   3      -11.608777
   4      -11.608777
   5       -8.914713
   6       -2.022175
   7       -2.022175
   8       -0.257565
   9        1.084874
