       N       E                     dE             d eps       ncg     rms          rms(c)
DAV:   1     0.785745218482E+02    0.78575E+02   -0.20107E+03    18   0.561E+02
DAV:   2     0.191082177326E+01   -0.76664E+02   -0.76553E+02    35   0.130E+02
DAV:   3    -0.150240365997E+02   -0.16935E+02   -0.16931E+02    36   0.742E+01
DAV:   4    -0.152892075690E+02   -0.26517E+00   -0.26517E+00    28   0.931E+00
DAV:   5    -0.152894070611E+02   -0.19949E-03   -0.19949E-03    28   0.272E-01    0.592E+00
DAV:   6    -0.147706215447E+02    0.51879E+00   -0.46721E+00    19   0.145E+01    0.333E+00
DAV:   7    -0.146447191926E+02    0.12590E+00   -0.91636E-01    27   0.594E+00    0.168E+00
DAV:   8    -0.146059463949E+02    0.38773E-01   -0.13551E-01    18   0.289E+00    0.322E-01
DAV:   9    -0.146055156458E+02    0.43075E-03   -0.59408E-03    20   0.596E-01    0.128E-01
DAV:  10    -0.146062526967E+02   -0.73705E-03   -0.14927E-03    18   0.312E-01    0.310E-02
DAV:  11    -0.146076068259E+02   -0.13541E-02   -0.39658E-04    19   0.124E-01    0.177E-02
DAV:  12    -0.146083512438E+02   -0.74442E-03   -0.95096E-05    18   0.581E-02    0.108E-02
DAV:  13    -0.146093192000E+02   -0.96796E-03   -0.13672E-04    18   0.567E-02    0.495E-03
DAV:  14    -0.146095606477E+02   -0.24145E-03   -0.16182E-05    19   0.218E-02    0.329E-03
DAV:  15    -0.146097525724E+02   -0.19192E-03   -0.14324E-05    20   0.181E-02    0.190E-03
DAV:  16    -0.146097966110E+02   -0.44039E-04   -0.26471E-06    20   0.992E-03
   1 F= -.14609797E+02 E0= -.14610763E+02  d E =-.146098E+02
       N       E                     dE             d eps       ncg     rms          rms(c)
DAV:   1     0.230064100346E+02    0.37616E+02   -0.77340E+02    18   0.296E+02    0.118E+01
DAV:   2     0.247413515480E+02    0.17349E+01   -0.25556E+01    34   0.579E+01    0.833E+00
DAV:   3     0.264256659283E+02    0.16843E+01   -0.12031E+01    36   0.362E+01    0.237E+00
DAV:   4     0.265184492956E+02    0.92783E-01   -0.14245E+00    18   0.120E+01    0.126E+00
DAV:   5     0.265453254376E+02    0.26876E-01   -0.14477E-01    35   0.468E+00    0.188E-01
DAV:   6     0.265433711639E+02   -0.19543E-02   -0.48525E-03    20   0.614E-01    0.103E-01
DAV:   7     0.265412947245E+02   -0.20764E-02   -0.11241E-03    20   0.332E-01    0.402E-02
DAV:   8     0.265375051189E+02   -0.37896E-02   -0.16665E-03    20   0.232E-01    0.420E-02
DAV:   9     0.265356388863E+02   -0.18662E-02   -0.71066E-04    20   0.266E-01    0.344E-02
DAV:  10     0.265340700688E+02   -0.15688E-02   -0.39755E-04    20   0.159E-01    0.103E-02
DAV:  11     0.265337891028E+02   -0.28097E-03   -0.67161E-05    28   0.651E-02    0.118E-02
DAV:  12     0.265335255114E+02   -0.26359E-03   -0.31576E-05    18   0.362E-02    0.583E-03
DAV:  13     0.265334542507E+02   -0.71261E-04   -0.11495E-05    20   0.306E-02
   2 F= 0.26533454E+02 E0= 0.26532488E+02  d E =0.411433E+02
       N       E                     dE             d eps       ncg     rms          rms(c)
DAV:   1    -0.193954868329E+02   -0.45929E+02   -0.75216E+02    18   0.296E+02    0.138E+01
DAV:   2    -0.157424120424E+02    0.36531E+01   -0.21548E+01    34   0.437E+01    0.653E+00
DAV:   3    -0.147888020060E+02    0.95361E+00   -0.48482E+00    28   0.157E+01    0.288E+00
DAV:   4    -0.146478373059E+02    0.14096E+00   -0.68104E-01    28   0.834E+00    0.937E-01
DAV:   5    -0.146473313613E+02    0.50594E-03   -0.47590E-02    19   0.225E+00    0.352E-01
DAV:   6    -0.146475343899E+02   -0.20303E-03   -0.15432E-02    19   0.902E-01    0.879E-02
DAV:   7    -0.146483055815E+02   -0.77119E-03   -0.61088E-04    19   0.212E-01    0.473E-02
DAV:   8    -0.146498012831E+02   -0.14957E-02   -0.11639E-03    19   0.248E-01    0.555E-02
DAV:   9    -0.146505081231E+02   -0.70684E-03   -0.49390E-04    19   0.157E-01    0.134E-02
DAV:  10    -0.146509131575E+02   -0.40503E-03   -0.57389E-05    20   0.587E-02    0.994E-03
DAV:  11    -0.146511166593E+02   -0.20350E-03   -0.19750E-05    20   0.269E-02    0.605E-03
DAV:  12    -0.146512426768E+02   -0.12602E-03   -0.55478E-06    18   0.173E-02    0.217E-03
DAV:  13    -0.146512907803E+02   -0.48103E-04   -0.23910E-06    18   0.887E-03
   3 F= -.14651291E+02 E0= -.14652257E+02  d E =-.411847E+02
       N       E                     dE             d eps       ncg     rms          rms(c)
DAV:   1    -0.146828300663E+02   -0.31587E-01   -0.13347E-01    20   0.384E+00    0.109E-01
DAV:   2    -0.146828031746E+02    0.26892E-04   -0.30682E-03    18   0.523E-01    0.641E-02
DAV:   3    -0.146827083201E+02    0.94855E-04   -0.28213E-04    19   0.159E-01
   4 F= -.14682708E+02 E0= -.14683675E+02  d E =-.314175E-01
       N       E                     dE             d eps       ncg     rms          rms(c)
DAV:   1    -0.147724580953E+02   -0.89655E-01   -0.64576E+00    18   0.269E+01    0.773E-01
DAV:   2    -0.147702111236E+02    0.22470E-02   -0.14098E-01    19   0.372E+00    0.475E-01
DAV:   3    -0.147646291983E+02    0.55819E-02   -0.19147E-02    20   0.130E+00    0.126E-01
DAV:   4    -0.147645434242E+02    0.85774E-04   -0.66901E-04    20   0.254E-01
   5 F= -.14764543E+02 E0= -.14765510E+02  d E =-.818351E-01
       N       E                     dE             d eps       ncg     rms          rms(c)
DAV:   1    -0.147694342201E+02   -0.48050E-02   -0.27548E-01    20   0.559E+00    0.162E-01
DAV:   2    -0.147694705987E+02   -0.36379E-04   -0.61531E-03    20   0.765E-01    0.924E-02
DAV:   3    -0.147694091768E+02    0.61422E-04   -0.75272E-04    20   0.258E-01
   6 F= -.14769409E+02 E0= -.14770375E+02  d E =-.486575E-02
       N       E                     dE             d eps       ncg     rms          rms(c)
DAV:   1    -0.147695992241E+02   -0.12863E-03   -0.47348E-03    20   0.730E-01    0.196E-02
DAV:   2    -0.147696381859E+02   -0.38962E-04   -0.11115E-04    20   0.103E-01
   7 F= -.14769638E+02 E0= -.14770605E+02  d E =-.229009E-03
