<?xml version="1.0" encoding="ISO-8859-1"?>
<modeling>
 <generator>
  <i name="program" type="string">vasp </i>
  <i name="version" type="string">5.2.12  </i>
  <i name="subversion" type="string">11Nov11 complex                                                      parallel </i>
  <i name="platform" type="string">LinuxIFC </i>
  <i name="date" type="string">2012 10 09 </i>
  <i name="time" type="string">20:13:05 </i>
 </generator>
 <incar>
  <i type="string" name="PREC">accurate</i>
  <i type="int" name="IBRION">     1</i>
  <i name="EDIFFG">     -0.05000000</i>
  <i type="int" name="NSW">    50</i>
  <i type="int" name="ISIF">     2</i>
  <i name="ENCUT">    500.00000000</i>
  <i type="logical" name="LREAL"> F  </i>
  <i type="int" name="ISMEAR">     1</i>
  <i name="SIGMA">      0.05000000</i>
 </incar>
 <kpoints>
  <generation param="Monkhorst-Pack">
   <v type="int" name="divisions">       1        1        1 </v>
   <v name="usershift">      0.00000000       0.00000000       0.00000000 </v>
   <v name="genvec1">      1.00000000       0.00000000       0.00000000 </v>
   <v name="genvec2">      0.00000000       1.00000000       0.00000000 </v>
   <v name="genvec3">      0.00000000       0.00000000       1.00000000 </v>
   <v name="shift">      0.00000000       0.00000000       0.00000000 </v>
  </generation>
  <varray name="kpointlist" >
   <v>       0.00000000       0.00000000       0.00000000 </v>
  </varray>
  <varray name="weights" >
   <v>       1.00000000 </v>
  </varray>
 </kpoints>
 <parameters>
  <separator name="general" >
   <i type="string" name="SYSTEM">unknown system</i>
   <i type="logical" name="LCOMPAT"> F  </i>
  </separator>
  <separator name="electronic" >
   <i type="string" name="PREC">accura</i>
   <i name="ENMAX">    500.00000000</i>
   <i name="ENAUG">    644.87300000</i>
   <i name="EDIFF">      0.00010000</i>
   <i type="int" name="IALGO">    38</i>
   <i type="int" name="IWAVPR">    11</i>
   <i type="int" name="NBANDS">     9</i>
   <i name="NELECT">     10.00000000</i>
   <i type="int" name="TURBO">     0</i>
   <i type="int" name="IRESTART">     0</i>
   <i type="int" name="NREBOOT">     0</i>
   <i type="int" name="NMIN">     0</i>
   <i name="EREF">      0.00000000</i>
   <separator name="electronic smearing" >
    <i type="int" name="ISMEAR">     1</i>
    <i name="SIGMA">      0.05000000</i>
    <i name="KSPACING">      0.50000000</i>
    <i type="logical" name="KGAMMA"> T  </i>
   </separator>
   <separator name="electronic projectors" >
    <i type="logical" name="LREAL"> F  </i>
    <v name="ROPT">      0.00000000      0.00000000</v>
    <i type="int" name="LMAXPAW">  -100</i>
    <i type="int" name="LMAXMIX">     2</i>
    <i type="logical" name="NLSPLINE"> F  </i>
   </separator>
   <separator name="electronic startup" >
    <i type="int" name="ISTART">     0</i>
    <i type="int" name="ICHARG">     2</i>
    <i type="int" name="INIWAV">     1</i>
   </separator>
   <separator name="electronic spin" >
    <i type="int" name="ISPIN">     1</i>
    <i type="logical" name="LNONCOLLINEAR"> F  </i>
    <v name="MAGMOM">      1.00000000      1.00000000</v>
    <i name="NUPDOWN">     -1.00000000</i>
    <i type="logical" name="LSORBIT"> F  </i>
    <v name="SAXIS">      0.00000000      0.00000000      1.00000000</v>
    <i type="logical" name="LSPIRAL"> F  </i>
    <v name="QSPIRAL">      0.00000000      0.00000000      0.00000000</v>
    <i type="logical" name="LZEROZ"> F  </i>
   </separator>
   <separator name="electronic exchange-correlation" >
    <i type="logical" name="LASPH"> F  </i>
    <i type="logical" name="LMETAGGA"> F  </i>
   </separator>
   <separator name="electronic convergence" >
    <i type="int" name="NELM">    60</i>
    <i type="int" name="NELMDL">    -5</i>
    <i type="int" name="NELMIN">     2</i>
    <i name="ENINI">    500.00000000</i>
    <separator name="electronic convergence detail" >
     <i type="logical" name="LDIAG"> T  </i>
     <i type="logical" name="LSUBROT"> T  </i>
     <i name="WEIMIN">      0.00100000</i>
     <i name="EBREAK">      0.00000278</i>
     <i name="DEPER">      0.30000000</i>
     <i type="int" name="NRMM">     4</i>
     <i name="TIME">      0.40000000</i>
    </separator>
   </separator>
   <separator name="electronic mixer" >
    <i name="AMIX">      0.40000000</i>
    <i name="BMIX">      1.00000000</i>
    <i name="AMIN">      0.10000000</i>
    <i name="AMIX_MAG">      1.60000000</i>
    <i name="BMIX_MAG">      1.00000000</i>
    <separator name="electronic mixer details" >
     <i type="int" name="IMIX">     4</i>
     <i type="int" name="MAXMIX">   -45</i>
     <i name="WC">    100.00000000</i>
     <i type="int" name="INIMIX">     1</i>
     <i type="int" name="MIXPRE">     1</i>
     <i type="int" name="MREMOVE">     5</i>
    </separator>
   </separator>
   <separator name="electronic dipolcorrection" >
    <i type="logical" name="LDIPOL"> F  </i>
    <i type="logical" name="LMONO"> F  </i>
    <i type="int" name="IDIPOL">     0</i>
    <i name="EPSILON">      1.00000000</i>
    <v name="DIPOL">   -100.00000000   -100.00000000   -100.00000000</v>
    <i name="EFIELD">      0.00000000</i>
   </separator>
  </separator>
  <separator name="grids" >
   <i type="int" name="NGX">    80</i>
   <i type="int" name="NGY">    80</i>
   <i type="int" name="NGZ">    80</i>
   <i type="int" name="NGXF">   160</i>
   <i type="int" name="NGYF">   160</i>
   <i type="int" name="NGZF">   160</i>
   <i type="logical" name="ADDGRID"> F  </i>
  </separator>
  <separator name="ionic" >
   <i type="int" name="NSW">    50</i>
   <i type="int" name="IBRION">     1</i>
   <i type="int" name="ISIF">     2</i>
   <i name="PSTRESS">      0.00000000</i>
   <i name="EDIFFG">     -0.05000000</i>
   <i type="int" name="NFREE">     0</i>
   <i name="POTIM">      0.50000000</i>
   <i name="SMASS">     -3.00000000</i>
   <i name="SCALEE">      1.00000000</i>
  </separator>
  <separator name="ionic md" >
   <i name="TEBEG">      0.00010000</i>
   <i name="TEEND">      0.00010000</i>
   <i type="int" name="NBLOCK">     1</i>
   <i type="int" name="KBLOCK">    50</i>
   <i type="int" name="NPACO">   256</i>
   <i name="APACO">     16.00000000</i>
  </separator>
  <separator name="symmetry" >
   <i type="int" name="ISYM">     2</i>
   <i name="SYMPREC">      0.00001000</i>
  </separator>
  <separator name="dos" >
   <i type="logical" name="LORBIT"> F  </i>
   <v name="RWIGS">     -1.00000000     -1.00000000</v>
   <i type="int" name="NEDOS">   301</i>
   <i name="EMIN">     10.00000000</i>
   <i name="EMAX">    -10.00000000</i>
   <i name="EFERMI">      0.00000000</i>
  </separator>
  <separator name="writing" >
   <i type="int" name="NWRITE">     2</i>
   <i type="logical" name="LWAVE"> T  </i>
   <i type="logical" name="LCHARG"> T  </i>
   <i type="logical" name="LPARD"> F  </i>
   <i type="logical" name="LVTOT"> F  </i>
   <i type="logical" name="LVHAR"> F  </i>
   <i type="logical" name="LELF"> F  </i>
   <i type="logical" name="LOPTICS"> F  </i>
   <v name="STM">      0.00000000      0.00000000      0.00000000      0.00000000      0.00000000      0.00000000      0.00000000</v>
  </separator>
  <separator name="performance" >
   <i type="int" name="NPAR">     1</i>
   <i type="int" name="NSIM">     4</i>
   <i type="int" name="NBLK">    -1</i>
   <i type="logical" name="LPLANE"> T  </i>
   <i type="logical" name="LSCALAPACK"> F  </i>
   <i type="logical" name="LSCAAWARE"> F  </i>
   <i type="logical" name="LSCALU"> F  </i>
   <i type="logical" name="LASYNC"> F  </i>
   <i type="logical" name="LORBITALREAL"> F  </i>
  </separator>
  <separator name="miscellaneous" >
   <i type="int" name="IDIOT">     3</i>
   <i type="logical" name="LMUSIC"> F  </i>
   <v name="POMASS">     12.01100000     16.00000000</v>
   <v name="DARWINR">      0.00000000      0.00000000</v>
   <v name="DARWINV">      1.00000000      1.00000000</v>
   <i type="logical" name="LCORR"> T  </i>
  </separator>
  <i type="logical" name="GGA_COMPAT"> T  </i>
  <i type="logical" name="LBERRY"> F  </i>
  <i type="int" name="ICORELEVEL">     0</i>
  <i type="logical" name="LDAU"> F  </i>
  <i type="int" name="I_CONSTRAINED_M">     0</i>
  <separator name="electronic exchange-correlation" >
   <i type="string" name="GGA">--</i>
   <i type="int" name="VOSKOWN">     0</i>
   <i type="logical" name="LHFCALC"> F  </i>
   <i type="string" name="PRECFOCK"></i>
   <i type="logical" name="LHFONE"> F  </i>
   <i type="logical" name="LRHFCALC"> F  </i>
   <i type="logical" name="LTHOMAS"> F  </i>
   <i type="logical" name="LMODELHF"> F  </i>
   <i name="ENCUT4O">     -1.00000000</i>
   <i type="int" name="EXXOEP">     0</i>
   <i type="int" name="FOURORBIT">     0</i>
   <i name="AEXX">      0.00000000</i>
   <i name="HFALPHA">      0.00000000</i>
   <i name="ALDAX">      1.00000000</i>
   <i name="AGGAX">      1.00000000</i>
   <i name="ALDAC">      1.00000000</i>
   <i name="AGGAC">      1.00000000</i>
   <i type="int" name="NKREDX">     1</i>
   <i type="int" name="NKREDY">     1</i>
   <i type="int" name="NKREDZ">     1</i>
   <i type="logical" name="SHIFTRED"> F  </i>
   <i type="logical" name="ODDONLY"> F  </i>
   <i type="logical" name="EVENONLY"> F  </i>
   <i type="int" name="LMAXFOCK">     0</i>
   <i type="int" name="NMAXFOCKAE">     0</i>
   <i type="logical" name="LFOCKAEDFT"> F  </i>
   <i name="HFSCREEN">      0.00000000</i>
   <i name="HFSCREENC">      0.00000000</i>
  </separator>
  <separator name="vdW DFT" >
   <i type="logical" name="LUSE_VDW"> F  </i>
   <i name="Zab_VDW">     -0.84910000</i>
   <i name="PARAM1">      0.12340000</i>
   <i name="PARAM2">      1.00000000</i>
   <i name="PARAM3">      0.00000000</i>
  </separator>
  <separator name="model GW" >
   <i type="int" name="MODEL_GW">     0</i>
   <i name="MODEL_EPS0">    300.00000000</i>
   <i name="MODEL_ALPHA">      1.00000000</i>
  </separator>
  <separator name="linear response parameters" >
   <i type="logical" name="LEPSILON"> F  </i>
   <i type="logical" name="LRPA"> F  </i>
   <i type="logical" name="LNABLA"> F  </i>
   <i type="logical" name="LVEL"> F  </i>
   <i type="int" name="KINTER">     0</i>
   <i name="CSHIFT">      0.10000000</i>
   <i name="OMEGAMAX">     -1.00000000</i>
  </separator>
  <separator name="orbital magnetization" >
   <i type="logical" name="NUCIND"> F  </i>
   <v name="MAGPOS">      0.00000000      0.00000000      0.00000000</v>
   <i type="logical" name="LNICSALL"> T  </i>
   <i type="logical" name="ORBITALMAG"> F  </i>
   <i type="logical" name="LMAGBLOCH"> F  </i>
   <i type="logical" name="LCHIMAG"> F  </i>
   <i type="logical" name="LGAUGE"> T  </i>
   <i type="int" name="MAGATOM">     0</i>
   <v name="MAGDIPOL">      0.00000000      0.00000000      0.00000000</v>
   <v name="AVECCONST">      0.00000000      0.00000000      0.00000000</v>
  </separator>
  <separator name="response functions" >
   <i type="logical" name="LADDER"> F  </i>
   <i type="logical" name="LHARTREE"> T  </i>
   <i type="int" name="IBSE">     0</i>
   <i type="logical" name="LTCTE"> F  </i>
   <i type="logical" name="LTETE"> F  </i>
   <i type="logical" name="LFXCEPS"> F  </i>
   <i type="logical" name="L2ORDER"> F  </i>
   <i type="logical" name="LUSEW"> F  </i>
   <i name="ENCUTGW">     -2.00000000</i>
   <i name="ENCUTGWSOFT">     -2.00000000</i>
   <i name="ENCUTLF">     -1.00000000</i>
   <i type="int" name="LMAXMP2">    -1</i>
   <i name="SCISSOR">      0.00000000</i>
   <i type="int" name="NOMEGA">     0</i>
   <i type="int" name="NOMEGAR">     0</i>
   <i type="int" name="NBANDSGW">    -1</i>
   <i type="int" name="NBANDSO">    -1</i>
   <i type="int" name="NBANDSV">    -1</i>
   <i name="OPTEMAX">      0.00000000</i>
   <i type="int" name="NELM">     1</i>
   <i type="int" name="DIM">     3</i>
   <i type="int" name="ANTIRES">     0</i>
   <i name="OMEGAMAX">    -30.00000000</i>
   <i name="OMEGATL">   -200.00000000</i>
   <i type="int" name="OMEGAGRID">     0</i>
   <i name="CSHIFT">     -0.10000000</i>
   <i type="logical" name="SELFENERGY"> F  </i>
   <i type="logical" name="LSPECTRAL"> F  </i>
   <i type="logical" name="ODDONLYGW"> F  </i>
   <i type="logical" name="EVENONLYGW"> F  </i>
   <i type="int" name="NKREDLFX">     1</i>
   <i type="int" name="NKREDLFY">     1</i>
   <i type="int" name="NKREDLFZ">     1</i>
   <i type="int" name="MAXMEM">  1800</i>
   <i type="int" name="TELESCOPE">     0</i>
  </separator>
 </parameters>
 <atominfo>
  <atoms>       2 </atoms>
  <types>       2 </types>
  <array name="atoms" >
   <dimension dim="1">ion</dimension>
   <field type="string">element</field>
   <field type="int">atomtype</field>
   <set>
    <rc><c>C </c><c>   1</c></rc>
    <rc><c>O </c><c>   2</c></rc>
   </set>
  </array>
  <array name="atomtypes" >
   <dimension dim="1">type</dimension>
   <field type="int">atomspertype</field>
   <field type="string">element</field>
   <field>mass</field>
   <field>valence</field>
   <field type="string">pseudopotential</field>
   <set>
    <rc><c>   1</c><c>C </c><c>     12.01100000</c><c>      4.00000000</c><c> PAW_PBE C 08Apr2002                    </c></rc>
    <rc><c>   1</c><c>O </c><c>     16.00000000</c><c>      6.00000000</c><c> PAW_PBE O 08Apr2002                    </c></rc>
   </set>
  </array>
 </atominfo>
 <structure name="initialpos" >
  <crystal>
   <varray name="basis" >
    <v>      10.00000000       0.00000000       0.00000000 </v>
    <v>       0.00000000      10.00000000       0.00000000 </v>
    <v>       0.00000000       0.00000000      10.00000000 </v>
   </varray>
   <i name="volume">   1000.00000000 </i>
   <varray name="rec_basis" >
    <v>       0.10000000       0.00000000       0.00000000 </v>
    <v>       0.00000000       0.10000000       0.00000000 </v>
    <v>       0.00000000       0.00000000       0.10000000 </v>
   </varray>
  </crystal>
  <varray name="positions" >
   <v>       0.00000000       0.00000000       0.00000000 </v>
   <v>       0.12000000       0.00000000       0.00000000 </v>
  </varray>
 </structure>
 <calculation>
  <scstep>
   <time name="dav">    2.85    2.85</time>
   <time name="total">    9.95    9.96</time>
   <energy>
    <i name="alphaZ">      0.43525486 </i>
    <i name="ewald">     84.77797003 </i>
    <i name="hartreedc">   -552.03476690 </i>
    <i name="XCdc">     39.59593900 </i>
    <i name="pawpsdc">    283.82984571 </i>
    <i name="pawaedc">   -286.83001101 </i>
    <i name="eentropy">      0.00289895 </i>
    <i name="bandstr">    -70.70746507 </i>
    <i name="atom">    579.50485627 </i>
    <i name="e_fr_energy">     78.57452185 </i>
    <i name="e_wo_entrp">     78.57162290 </i>
    <i name="e_0_energy">     78.57355553 </i>
   </energy>
  </scstep>
  <scstep>
   <time name="dav">    4.59    4.59</time>
   <time name="total">    4.59    4.59</time>
   <energy>
    <i name="e_fr_energy">      1.91082177 </i>
    <i name="e_wo_entrp">      1.90792282 </i>
    <i name="e_0_energy">      1.90985546 </i>
   </energy>
  </scstep>
  <scstep>
   <time name="dav">    4.69    4.69</time>
   <time name="total">    4.69    4.71</time>
   <energy>
    <i name="e_fr_energy">    -15.02403660 </i>
    <i name="e_wo_entrp">    -15.02693555 </i>
    <i name="e_0_energy">    -15.02500292 </i>
   </energy>
  </scstep>
  <scstep>
   <time name="dav">    3.85    3.85</time>
   <time name="total">    3.85    3.87</time>
   <energy>
    <i name="e_fr_energy">    -15.28920757 </i>
    <i name="e_wo_entrp">    -15.29210652 </i>
    <i name="e_0_energy">    -15.29017389 </i>
   </energy>
  </scstep>
  <scstep>
   <time name="dav">    3.84    3.84</time>
   <time name="total">    5.00    5.01</time>
   <energy>
    <i name="e_fr_energy">    -15.28940706 </i>
    <i name="e_wo_entrp">    -15.29230601 </i>
    <i name="e_0_energy">    -15.29037338 </i>
   </energy>
  </scstep>
  <scstep>
   <time name="dav">    2.91    2.91</time>
   <time name="total">   11.00   11.02</time>
   <energy>
    <i name="e_fr_energy">    -14.77062154 </i>
    <i name="e_wo_entrp">    -14.77352050 </i>
    <i name="e_0_energy">    -14.77158786 </i>
   </energy>
  </scstep>
  <scstep>
   <time name="dav">    3.76    3.76</time>
   <time name="total">   11.93   11.95</time>
   <energy>
    <i name="e_fr_energy">    -14.64471919 </i>
    <i name="e_wo_entrp">    -14.64761815 </i>
    <i name="e_0_energy">    -14.64568551 </i>
   </energy>
  </scstep>
  <scstep>
   <time name="dav">    3.68    3.68</time>
   <time name="total">   13.76   13.78</time>
   <energy>
    <i name="e_fr_energy">    -14.60594639 </i>
    <i name="e_wo_entrp">    -14.60884535 </i>
    <i name="e_0_energy">    -14.60691271 </i>
   </energy>
  </scstep>
  <scstep>
   <time name="dav">    3.94    3.94</time>
   <time name="total">   13.90   13.91</time>
   <energy>
    <i name="e_fr_energy">    -14.60551565 </i>
    <i name="e_wo_entrp">    -14.60841460 </i>
    <i name="e_0_energy">    -14.60648196 </i>
   </energy>
  </scstep>
  <scstep>
   <time name="dav">    3.66    3.66</time>
   <time name="total">   13.56   13.58</time>
   <energy>
    <i name="e_fr_energy">    -14.60625270 </i>
    <i name="e_wo_entrp">    -14.60915165 </i>
    <i name="e_0_energy">    -14.60721901 </i>
   </energy>
  </scstep>
  <scstep>
   <time name="dav">    3.80    3.80</time>
   <time name="total">   13.64   13.66</time>
   <energy>
    <i name="e_fr_energy">    -14.60760683 </i>
    <i name="e_wo_entrp">    -14.61050578 </i>
    <i name="e_0_energy">    -14.60857314 </i>
   </energy>
  </scstep>
  <scstep>
   <time name="dav">    3.67    3.67</time>
   <time name="total">   13.59   13.61</time>
   <energy>
    <i name="e_fr_energy">    -14.60835124 </i>
    <i name="e_wo_entrp">    -14.61125020 </i>
    <i name="e_0_energy">    -14.60931756 </i>
   </energy>
  </scstep>
  <scstep>
   <time name="dav">    3.66    3.66</time>
   <time name="total">   13.38   13.40</time>
   <energy>
    <i name="e_fr_energy">    -14.60931920 </i>
    <i name="e_wo_entrp">    -14.61221815 </i>
    <i name="e_0_energy">    -14.61028552 </i>
   </energy>
  </scstep>
  <scstep>
   <time name="dav">    3.80    3.80</time>
   <time name="total">   13.47   13.52</time>
   <energy>
    <i name="e_fr_energy">    -14.60956065 </i>
    <i name="e_wo_entrp">    -14.61245960 </i>
    <i name="e_0_energy">    -14.61052697 </i>
   </energy>
  </scstep>
  <scstep>
   <time name="dav">    2.97    2.97</time>
   <time name="total">   10.63   10.64</time>
   <energy>
    <i name="e_fr_energy">    -14.60975257 </i>
    <i name="e_wo_entrp">    -14.61265153 </i>
    <i name="e_0_energy">    -14.61071889 </i>
   </energy>
  </scstep>
  <scstep>
   <time name="dav">    2.98    2.98</time>
   <time name="total">    9.47    9.47</time>
   <energy>
    <i name="alphaZ">      0.43525486 </i>
    <i name="ewald">     84.77797003 </i>
    <i name="hartreedc">   -569.81265671 </i>
    <i name="XCdc">     40.64811515 </i>
    <i name="pawpsdc">    356.17722543 </i>
    <i name="pawaedc">   -359.24164159 </i>
    <i name="eentropy">      0.00289895 </i>
    <i name="bandstr">   -147.10181899 </i>
    <i name="atom">    579.50485627 </i>
    <i name="e_fr_energy">    -14.60979661 </i>
    <i name="e_wo_entrp">    -14.61269556 </i>
    <i name="e_0_energy">    -14.61076293 </i>
   </energy>
  </scstep>
  <parameters_embedded>
   <separator name="dft+d2" >
    <i type="logical" name="LVDW"> F  </i>
   </separator>
  </parameters_embedded>
  <structure>
   <crystal>
    <varray name="basis" >
     <v>      10.00000000       0.00000000       0.00000000 </v>
     <v>       0.00000000      10.00000000       0.00000000 </v>
     <v>       0.00000000       0.00000000      10.00000000 </v>
    </varray>
    <i name="volume">   1000.00000000 </i>
    <varray name="rec_basis" >
     <v>       0.10000000       0.00000000       0.00000000 </v>
     <v>       0.00000000       0.10000000       0.00000000 </v>
     <v>       0.00000000       0.00000000       0.10000000 </v>
    </varray>
   </crystal>
   <varray name="positions" >
    <v>       0.00000000       0.00000000       0.00000000 </v>
    <v>       0.12000000       0.00000000       0.00000000 </v>
   </varray>
  </structure>
  <varray name="forces" >
   <v>       5.27457385       0.00000000       0.00000000 </v>
   <v>      -5.27457385       0.00000000       0.00000000 </v>
  </varray>
  <varray name="stress" >
   <v>     -10.21933567       0.00000000       0.00000000 </v>
   <v>       0.00000000      -0.08039626       0.00000000 </v>
   <v>       0.00000000       0.00000000      -0.08039626 </v>
  </varray>
  <energy>
   <i name="e_fr_energy">    -14.60979661 </i>
   <i name="e_wo_entrp">    -14.61076293 </i>
   <i name="e_0_energy">      0.00289895 </i>
  </energy>
  <time name="totalsc">  186.64  187.63</time>
 </calculation>
 <calculation>
  <scstep>
   <time name="dav">    2.78    2.78</time>
   <time name="total">   10.33   10.35</time>
   <energy>
    <i name="alphaZ">      0.43525486 </i>
    <i name="ewald">    296.14435949 </i>
    <i name="hartreedc">   -651.96496524 </i>
    <i name="XCdc">     43.40956398 </i>
    <i name="pawpsdc">    356.16555694 </i>
    <i name="pawaedc">   -359.22987471 </i>
    <i name="eentropy">      0.00289895 </i>
    <i name="bandstr">   -241.46124050 </i>
    <i name="atom">    579.50485627 </i>
    <i name="e_fr_energy">     23.00641003 </i>
    <i name="e_wo_entrp">     23.00351108 </i>
    <i name="e_0_energy">     23.00544372 </i>
   </energy>
  </scstep>
  <scstep>
   <time name="dav">    4.50    4.50</time>
   <time name="total">   12.54   12.54</time>
   <energy>
    <i name="e_fr_energy">     24.74135155 </i>
    <i name="e_wo_entrp">     24.73845260 </i>
    <i name="e_0_energy">     24.74038523 </i>
   </energy>
  </scstep>
  <scstep>
   <time name="dav">    4.70    4.70</time>
   <time name="total">   12.79   12.81</time>
   <energy>
    <i name="e_fr_energy">     26.42566593 </i>
    <i name="e_wo_entrp">     26.42276698 </i>
    <i name="e_0_energy">     26.42469961 </i>
   </energy>
  </scstep>
  <scstep>
   <time name="dav">    2.81    2.81</time>
   <time name="total">   10.75   10.77</time>
   <energy>
    <i name="e_fr_energy">     26.51844930 </i>
    <i name="e_wo_entrp">     26.51555034 </i>
    <i name="e_0_energy">     26.51748298 </i>
   </energy>
  </scstep>
  <scstep>
   <time name="dav">    4.60    4.60</time>
   <time name="total">   12.47   12.49</time>
   <energy>
    <i name="e_fr_energy">     26.54532544 </i>
    <i name="e_wo_entrp">     26.54242648 </i>
    <i name="e_0_energy">     26.54435912 </i>
   </energy>
  </scstep>
  <scstep>
   <time name="dav">    3.02    3.02</time>
   <time name="total">   10.84   10.85</time>
   <energy>
    <i name="e_fr_energy">     26.54337116 </i>
    <i name="e_wo_entrp">     26.54047221 </i>
    <i name="e_0_energy">     26.54240485 </i>
   </energy>
  </scstep>
  <scstep>
   <time name="dav">    3.02    3.02</time>
   <time name="total">   10.81   10.83</time>
   <energy>
    <i name="e_fr_energy">     26.54129472 </i>
    <i name="e_wo_entrp">     26.53839577 </i>
    <i name="e_0_energy">     26.54032841 </i>
   </energy>
  </scstep>
  <scstep>
   <time name="dav">    3.02    3.02</time>
   <time name="total">   10.76   10.77</time>
   <energy>
    <i name="e_fr_energy">     26.53750512 </i>
    <i name="e_wo_entrp">     26.53460617 </i>
    <i name="e_0_energy">     26.53653880 </i>
   </energy>
  </scstep>
  <scstep>
   <time name="dav">    3.01    3.01</time>
   <time name="total">   10.71   10.72</time>
   <energy>
    <i name="e_fr_energy">     26.53563889 </i>
    <i name="e_wo_entrp">     26.53273993 </i>
    <i name="e_0_energy">     26.53467257 </i>
   </energy>
  </scstep>
  <scstep>
   <time name="dav">    3.00    3.01</time>
   <time name="total">   10.64   10.66</time>
   <energy>
    <i name="e_fr_energy">     26.53407007 </i>
    <i name="e_wo_entrp">     26.53117112 </i>
    <i name="e_0_energy">     26.53310375 </i>
   </energy>
  </scstep>
  <scstep>
   <time name="dav">    3.83    3.83</time>
   <time name="total">   11.45   11.47</time>
   <energy>
    <i name="e_fr_energy">     26.53378910 </i>
    <i name="e_wo_entrp">     26.53089015 </i>
    <i name="e_0_energy">     26.53282279 </i>
   </energy>
  </scstep>
  <scstep>
   <time name="dav">    2.79    2.79</time>
   <time name="total">   10.36   10.38</time>
   <energy>
    <i name="e_fr_energy">     26.53352551 </i>
    <i name="e_wo_entrp">     26.53062656 </i>
    <i name="e_0_energy">     26.53255919 </i>
   </energy>
  </scstep>
  <scstep>
   <time name="dav">    3.02    3.02</time>
   <time name="total">    9.45    9.46</time>
   <energy>
    <i name="alphaZ">      0.43525486 </i>
    <i name="ewald">    296.14435949 </i>
    <i name="hartreedc">   -711.37754375 </i>
    <i name="XCdc">     46.45448408 </i>
    <i name="pawpsdc">    626.55457047 </i>
    <i name="pawaedc">   -631.86043122 </i>
    <i name="eentropy">      0.00289895 </i>
    <i name="bandstr">   -179.32499490 </i>
    <i name="atom">    579.50485627 </i>
    <i name="e_fr_energy">     26.53345425 </i>
    <i name="e_wo_entrp">     26.53055530 </i>
    <i name="e_0_energy">     26.53248793 </i>
   </energy>
  </scstep>
  <structure>
   <crystal>
    <varray name="basis" >
     <v>      10.00000000       0.00000000       0.00000000 </v>
     <v>       0.00000000      10.00000000       0.00000000 </v>
     <v>       0.00000000       0.00000000      10.00000000 </v>
    </varray>
    <i name="volume">   1000.00000000 </i>
    <varray name="rec_basis" >
     <v>       0.10000000       0.00000000       0.00000000 </v>
     <v>       0.00000000       0.10000000       0.00000000 </v>
     <v>       0.00000000       0.00000000       0.10000000 </v>
    </varray>
   </crystal>
   <varray name="positions" >
    <v>       0.02544594       0.00000000       0.00000000 </v>
    <v>       0.09455406       0.00000000       0.00000000 </v>
   </varray>
  </structure>
  <varray name="forces" >
   <v>    -315.29008218       0.00000000       0.00000000 </v>
   <v>     315.29008218       0.00000000       0.00000000 </v>
  </varray>
  <varray name="stress" >
   <v>     348.86794679       0.00000000       0.00000000 </v>
   <v>       0.00000000      -0.21383688       0.00000000 </v>
   <v>       0.00000000       0.00000000      -0.21383688 </v>
  </varray>
  <energy>
   <i name="e_fr_energy">     26.53345425 </i>
   <i name="e_wo_entrp">     26.53248793 </i>
   <i name="e_0_energy">      0.00289895 </i>
  </energy>
  <time name="totalsc">  156.45  156.70</time>
 </calculation>
 <calculation>
  <scstep>
   <time name="dav">    2.82    2.82</time>
   <time name="total">   10.52   10.52</time>
   <energy>
    <i name="alphaZ">      0.43525486 </i>
    <i name="ewald">     86.78657813 </i>
    <i name="hartreedc">   -615.49987679 </i>
    <i name="XCdc">     43.17080002 </i>
    <i name="pawpsdc">    626.55069145 </i>
    <i name="pawaedc">   -631.85689983 </i>
    <i name="eentropy">      0.00289895 </i>
    <i name="bandstr">   -108.48978989 </i>
    <i name="atom">    579.50485627 </i>
    <i name="e_fr_energy">    -19.39548683 </i>
    <i name="e_wo_entrp">    -19.39838579 </i>
    <i name="e_0_energy">    -19.39645315 </i>
   </energy>
  </scstep>
  <scstep>
   <time name="dav">    4.53    4.53</time>
   <time name="total">   11.48   11.49</time>
   <energy>
    <i name="e_fr_energy">    -15.74241204 </i>
    <i name="e_wo_entrp">    -15.74531100 </i>
    <i name="e_0_energy">    -15.74337836 </i>
   </energy>
  </scstep>
  <scstep>
   <time name="dav">    4.04    4.04</time>
   <time name="total">   11.53   11.55</time>
   <energy>
    <i name="e_fr_energy">    -14.78880201 </i>
    <i name="e_wo_entrp">    -14.79170096 </i>
    <i name="e_0_energy">    -14.78976832 </i>
   </energy>
  </scstep>
  <scstep>
   <time name="dav">    5.05    5.06</time>
   <time name="total">   14.31   14.43</time>
   <energy>
    <i name="e_fr_energy">    -14.64783731 </i>
    <i name="e_wo_entrp">    -14.65073626 </i>
    <i name="e_0_energy">    -14.64880362 </i>
   </energy>
  </scstep>
  <scstep>
   <time name="dav">    3.82    3.82</time>
   <time name="total">   13.12   13.15</time>
   <energy>
    <i name="e_fr_energy">    -14.64733136 </i>
    <i name="e_wo_entrp">    -14.65023031 </i>
    <i name="e_0_energy">    -14.64829768 </i>
   </energy>
  </scstep>
  <scstep>
   <time name="dav">    3.81    3.81</time>
   <time name="total">   13.18   13.21</time>
   <energy>
    <i name="e_fr_energy">    -14.64753439 </i>
    <i name="e_wo_entrp">    -14.65043334 </i>
    <i name="e_0_energy">    -14.64850071 </i>
   </energy>
  </scstep>
  <scstep>
   <time name="dav">    3.80    3.81</time>
   <time name="total">   13.25   13.30</time>
   <energy>
    <i name="e_fr_energy">    -14.64830558 </i>
    <i name="e_wo_entrp">    -14.65120453 </i>
    <i name="e_0_energy">    -14.64927190 </i>
   </energy>
  </scstep>
  <scstep>
   <time name="dav">    3.79    3.80</time>
   <time name="total">   13.31   13.33</time>
   <energy>
    <i name="e_fr_energy">    -14.64980128 </i>
    <i name="e_wo_entrp">    -14.65270024 </i>
    <i name="e_0_energy">    -14.65076760 </i>
   </energy>
  </scstep>
  <scstep>
   <time name="dav">    3.79    3.79</time>
   <time name="total">   13.42   13.43</time>
   <energy>
    <i name="e_fr_energy">    -14.65050812 </i>
    <i name="e_wo_entrp">    -14.65340708 </i>
    <i name="e_0_energy">    -14.65147444 </i>
   </energy>
  </scstep>
  <scstep>
   <time name="dav">    3.72    3.72</time>
   <time name="total">   13.22   13.25</time>
   <energy>
    <i name="e_fr_energy">    -14.65091316 </i>
    <i name="e_wo_entrp">    -14.65381211 </i>
    <i name="e_0_energy">    -14.65187948 </i>
   </energy>
  </scstep>
  <scstep>
   <time name="dav">    3.71    3.72</time>
   <time name="total">   12.96   13.01</time>
   <energy>
    <i name="e_fr_energy">    -14.65111666 </i>
    <i name="e_wo_entrp">    -14.65401561 </i>
    <i name="e_0_energy">    -14.65208298 </i>
   </energy>
  </scstep>
  <scstep>
   <time name="dav">    3.43    3.43</time>
   <time name="total">   12.78   12.79</time>
   <energy>
    <i name="e_fr_energy">    -14.65124268 </i>
    <i name="e_wo_entrp">    -14.65414163 </i>
    <i name="e_0_energy">    -14.65220899 </i>
   </energy>
  </scstep>
  <scstep>
   <time name="dav">    3.43    3.43</time>
   <time name="total">   11.35   11.38</time>
   <energy>
    <i name="alphaZ">      0.43525486 </i>
    <i name="ewald">     86.78657813 </i>
    <i name="hartreedc">   -571.44812031 </i>
    <i name="XCdc">     40.70724450 </i>
    <i name="pawpsdc">    358.44731734 </i>
    <i name="pawaedc">   -361.52192712 </i>
    <i name="eentropy">      0.00289895 </i>
    <i name="bandstr">   -147.56539341 </i>
    <i name="atom">    579.50485627 </i>
    <i name="e_fr_energy">    -14.65129078 </i>
    <i name="e_wo_entrp">    -14.65418973 </i>
    <i name="e_0_energy">    -14.65225710 </i>
   </energy>
  </scstep>
  <structure>
   <crystal>
    <varray name="basis" >
     <v>      10.00000000       0.00000000       0.00000000 </v>
     <v>       0.00000000      10.00000000       0.00000000 </v>
     <v>       0.00000000       0.00000000      10.00000000 </v>
    </varray>
    <i name="volume">   1000.00000000 </i>
    <varray name="rec_basis" >
     <v>       0.10000000       0.00000000       0.00000000 </v>
     <v>       0.00000000       0.10000000       0.00000000 </v>
     <v>       0.00000000       0.00000000       0.10000000 </v>
    </varray>
   </crystal>
   <varray name="positions" >
    <v>       0.00041867       0.00000000       0.00000000 </v>
    <v>       0.11958133       0.00000000       0.00000000 </v>
   </varray>
  </structure>
  <varray name="forces" >
   <v>       4.63042607       0.00000000       0.00000000 </v>
   <v>      -4.63042607       0.00000000       0.00000000 </v>
  </varray>
  <varray name="stress" >
   <v>      -8.91061208       0.00000000       0.00000000 </v>
   <v>       0.00000000      -0.06999832       0.00000000 </v>
   <v>       0.00000000       0.00000000      -0.06999832 </v>
  </varray>
  <energy>
   <i name="e_fr_energy">    -14.65129078 </i>
   <i name="e_wo_entrp">    -14.65225710 </i>
   <i name="e_0_energy">      0.00289895 </i>
  </energy>
  <time name="totalsc">  179.30  179.75</time>
 </calculation>
 <calculation>
  <scstep>
   <time name="dav">    3.64    3.64</time>
   <time name="total">   12.93   12.93</time>
   <energy>
    <i name="alphaZ">      0.43525486 </i>
    <i name="ewald">     88.54761268 </i>
    <i name="hartreedc">   -572.53020027 </i>
    <i name="XCdc">     40.73783514 </i>
    <i name="pawpsdc">    358.45702678 </i>
    <i name="pawaedc">   -361.53171589 </i>
    <i name="eentropy">      0.00289895 </i>
    <i name="bandstr">   -148.30639858 </i>
    <i name="atom">    579.50485627 </i>
    <i name="e_fr_energy">    -14.68283007 </i>
    <i name="e_wo_entrp">    -14.68572902 </i>
    <i name="e_0_energy">    -14.68379638 </i>
   </energy>
  </scstep>
  <scstep>
   <time name="dav">    3.43    3.43</time>
   <time name="total">   12.72   12.72</time>
   <energy>
    <i name="e_fr_energy">    -14.68280317 </i>
    <i name="e_wo_entrp">    -14.68570213 </i>
    <i name="e_0_energy">    -14.68376949 </i>
   </energy>
  </scstep>
  <scstep>
   <time name="dav">    3.55    3.55</time>
   <time name="total">   11.45   11.47</time>
   <energy>
    <i name="alphaZ">      0.43525486 </i>
    <i name="ewald">     88.54761268 </i>
    <i name="hartreedc">   -572.85693898 </i>
    <i name="XCdc">     40.75776214 </i>
    <i name="pawpsdc">    360.03490270 </i>
    <i name="pawaedc">   -363.11739127 </i>
    <i name="eentropy">      0.00289895 </i>
    <i name="bandstr">   -147.99166567 </i>
    <i name="atom">    579.50485627 </i>
    <i name="e_fr_energy">    -14.68270832 </i>
    <i name="e_wo_entrp">    -14.68560727 </i>
    <i name="e_0_energy">    -14.68367464 </i>
   </energy>
  </scstep>
  <structure>
   <crystal>
    <varray name="basis" >
     <v>      10.00000000       0.00000000       0.00000000 </v>
     <v>       0.00000000      10.00000000       0.00000000 </v>
     <v>       0.00000000       0.00000000      10.00000000 </v>
    </varray>
    <i name="volume">   1000.00000000 </i>
    <varray name="rec_basis" >
     <v>       0.10000000       0.00000000       0.00000000 </v>
     <v>       0.00000000       0.10000000       0.00000000 </v>
     <v>       0.00000000       0.00000000       0.10000000 </v>
    </varray>
   </crystal>
   <varray name="positions" >
    <v>       0.00078091       0.00000000       0.00000000 </v>
    <v>       0.11921909       0.00000000       0.00000000 </v>
   </varray>
  </structure>
  <varray name="forces" >
   <v>       4.04368286       0.00000000       0.00000000 </v>
   <v>      -4.04368286       0.00000000       0.00000000 </v>
  </varray>
  <varray name="stress" >
   <v>      -7.75351677       0.00000000       0.00000000 </v>
   <v>       0.00000000      -0.03537464       0.00000000 </v>
   <v>       0.00000000       0.00000000      -0.03537464 </v>
  </varray>
  <energy>
   <i name="e_fr_energy">    -14.68270832 </i>
   <i name="e_wo_entrp">    -14.68367464 </i>
   <i name="e_0_energy">      0.00289895 </i>
  </energy>
  <time name="totalsc">   52.70   52.78</time>
 </calculation>
 <calculation>
  <scstep>
   <time name="dav">    3.70    3.70</time>
   <time name="total">   13.66   13.68</time>
   <energy>
    <i name="alphaZ">      0.43525486 </i>
    <i name="ewald">    101.30269295 </i>
    <i name="hartreedc">   -580.46119365 </i>
    <i name="XCdc">     40.97891775 </i>
    <i name="pawpsdc">    360.31747289 </i>
    <i name="pawaedc">   -363.40106133 </i>
    <i name="eentropy">      0.00289895 </i>
    <i name="bandstr">   -153.45229678 </i>
    <i name="atom">    579.50485627 </i>
    <i name="e_fr_energy">    -14.77245810 </i>
    <i name="e_wo_entrp">    -14.77535705 </i>
    <i name="e_0_energy">    -14.77342441 </i>
   </energy>
  </scstep>
  <scstep>
   <time name="dav">    3.81    3.81</time>
   <time name="total">   13.65   13.65</time>
   <energy>
    <i name="e_fr_energy">    -14.77021112 </i>
    <i name="e_wo_entrp">    -14.77311008 </i>
    <i name="e_0_energy">    -14.77117744 </i>
   </energy>
  </scstep>
  <scstep>
   <time name="dav">    3.93    3.93</time>
   <time name="total">   13.68   13.70</time>
   <energy>
    <i name="e_fr_energy">    -14.76462920 </i>
    <i name="e_wo_entrp">    -14.76752815 </i>
    <i name="e_0_energy">    -14.76559552 </i>
   </energy>
  </scstep>
  <scstep>
   <time name="dav">    3.93    3.93</time>
   <time name="total">   12.05   12.10</time>
   <energy>
    <i name="alphaZ">      0.43525486 </i>
    <i name="ewald">    101.30269295 </i>
    <i name="hartreedc">   -583.15578316 </i>
    <i name="XCdc">     41.13847797 </i>
    <i name="pawpsdc">    374.63235585 </i>
    <i name="pawaedc">   -377.78787537 </i>
    <i name="eentropy">      0.00289895 </i>
    <i name="bandstr">   -150.83742173 </i>
    <i name="atom">    579.50485627 </i>
    <i name="e_fr_energy">    -14.76454342 </i>
    <i name="e_wo_entrp">    -14.76744238 </i>
    <i name="e_0_energy">    -14.76550974 </i>
   </energy>
  </scstep>
  <structure>
   <crystal>
    <varray name="basis" >
     <v>      10.00000000       0.00000000       0.00000000 </v>
     <v>       0.00000000      10.00000000       0.00000000 </v>
     <v>       0.00000000       0.00000000      10.00000000 </v>
    </varray>
    <i name="volume">   1000.00000000 </i>
    <varray name="rec_basis" >
     <v>       0.10000000       0.00000000       0.00000000 </v>
     <v>       0.00000000       0.10000000       0.00000000 </v>
     <v>       0.00000000       0.00000000       0.10000000 </v>
    </varray>
   </crystal>
   <varray name="positions" >
    <v>       0.00327735       0.00000000       0.00000000 </v>
    <v>       0.11672265       0.00000000       0.00000000 </v>
   </varray>
  </structure>
  <varray name="forces" >
   <v>      -1.03928137       0.00000000       0.00000000 </v>
   <v>       1.03928137       0.00000000       0.00000000 </v>
  </varray>
  <varray name="stress" >
   <v>       1.74609606       0.00000000       0.00000000 </v>
   <v>       0.00000000      -0.06440409       0.00000000 </v>
   <v>       0.00000000       0.00000000      -0.06440409 </v>
  </varray>
  <energy>
   <i name="e_fr_energy">    -14.76454342 </i>
   <i name="e_wo_entrp">    -14.76550974 </i>
   <i name="e_0_energy">      0.00289895 </i>
  </energy>
  <time name="totalsc">   68.36   68.51</time>
 </calculation>
 <calculation>
  <scstep>
   <time name="dav">    3.65    3.65</time>
   <time name="total">   12.74   12.75</time>
   <energy>
    <i name="alphaZ">      0.43525486 </i>
    <i name="ewald">     98.60329866 </i>
    <i name="hartreedc">   -581.56034250 </i>
    <i name="XCdc">     41.09091613 </i>
    <i name="pawpsdc">    375.62998984 </i>
    <i name="pawaedc">   -378.78631931 </i>
    <i name="eentropy">      0.00289895 </i>
    <i name="bandstr">   -149.68998712 </i>
    <i name="atom">    579.50485627 </i>
    <i name="e_fr_energy">    -14.76943422 </i>
    <i name="e_wo_entrp">    -14.77233317 </i>
    <i name="e_0_energy">    -14.77040054 </i>
   </energy>
  </scstep>
  <scstep>
   <time name="dav">    3.64    3.64</time>
   <time name="total">   12.68   12.69</time>
   <energy>
    <i name="e_fr_energy">    -14.76947060 </i>
    <i name="e_wo_entrp">    -14.77236955 </i>
    <i name="e_0_energy">    -14.77043692 </i>
   </energy>
  </scstep>
  <scstep>
   <time name="dav">    3.64    3.64</time>
   <time name="total">   11.24   11.26</time>
   <energy>
    <i name="alphaZ">      0.43525486 </i>
    <i name="ewald">     98.60329866 </i>
    <i name="hartreedc">   -581.02448132 </i>
    <i name="XCdc">     41.05939103 </i>
    <i name="pawpsdc">    373.10163082 </i>
    <i name="pawaedc">   -376.24278276 </i>
    <i name="eentropy">      0.00289895 </i>
    <i name="bandstr">   -150.20947569 </i>
    <i name="atom">    579.50485627 </i>
    <i name="e_fr_energy">    -14.76940918 </i>
    <i name="e_wo_entrp">    -14.77230813 </i>
    <i name="e_0_energy">    -14.77037549 </i>
   </energy>
  </scstep>
  <structure>
   <crystal>
    <varray name="basis" >
     <v>      10.00000000       0.00000000       0.00000000 </v>
     <v>       0.00000000      10.00000000       0.00000000 </v>
     <v>       0.00000000       0.00000000      10.00000000 </v>
    </varray>
    <i name="volume">   1000.00000000 </i>
    <varray name="rec_basis" >
     <v>       0.10000000       0.00000000       0.00000000 </v>
     <v>       0.00000000       0.10000000       0.00000000 </v>
     <v>       0.00000000       0.00000000       0.10000000 </v>
    </varray>
   </crystal>
   <varray name="positions" >
    <v>       0.00276692       0.00000000       0.00000000 </v>
    <v>       0.11723308       0.00000000       0.00000000 </v>
   </varray>
  </structure>
  <varray name="forces" >
   <v>       0.15430631       0.00000000       0.00000000 </v>
   <v>      -0.15430631       0.00000000       0.00000000 </v>
  </varray>
  <varray name="stress" >
   <v>      -0.35890094       0.00000000       0.00000000 </v>
   <v>       0.00000000      -0.11305153       0.00000000 </v>
   <v>       0.00000000       0.00000000      -0.11305153 </v>
  </varray>
  <energy>
   <i name="e_fr_energy">    -14.76940918 </i>
   <i name="e_wo_entrp">    -14.77037549 </i>
   <i name="e_0_energy">      0.00289895 </i>
  </energy>
  <time name="totalsc">   51.07   51.14</time>
 </calculation>
 <calculation>
  <scstep>
   <time name="dav">    3.92    3.92</time>
   <time name="total">   13.59   13.60</time>
   <energy>
    <i name="alphaZ">      0.43525486 </i>
    <i name="ewald">     98.94953463 </i>
    <i name="hartreedc">   -581.21299132 </i>
    <i name="XCdc">     41.06451114 </i>
    <i name="pawpsdc">    372.79183497 </i>
    <i name="pawaedc">   -375.93161160 </i>
    <i name="eentropy">      0.00289895 </i>
    <i name="bandstr">   -150.37388713 </i>
    <i name="atom">    579.50485627 </i>
    <i name="e_fr_energy">    -14.76959922 </i>
    <i name="e_wo_entrp">    -14.77249818 </i>
    <i name="e_0_energy">    -14.77056554 </i>
   </energy>
  </scstep>
  <scstep>
   <time name="dav">    3.92    3.92</time>
   <time name="total">   12.01   12.02</time>
   <energy>
    <i name="alphaZ">      0.43525486 </i>
    <i name="ewald">     98.94953463 </i>
    <i name="hartreedc">   -581.25394476 </i>
    <i name="XCdc">     41.06693491 </i>
    <i name="pawpsdc">    372.88171066 </i>
    <i name="pawaedc">   -376.02215048 </i>
    <i name="eentropy">      0.00289895 </i>
    <i name="bandstr">   -150.33473323 </i>
    <i name="atom">    579.50485627 </i>
    <i name="e_fr_energy">    -14.76963819 </i>
    <i name="e_wo_entrp">    -14.77253714 </i>
    <i name="e_0_energy">    -14.77060450 </i>
   </energy>
  </scstep>
  <structure>
   <crystal>
    <varray name="basis" >
     <v>      10.00000000       0.00000000       0.00000000 </v>
     <v>       0.00000000      10.00000000       0.00000000 </v>
     <v>       0.00000000       0.00000000      10.00000000 </v>
    </varray>
    <i name="volume">   1000.00000000 </i>
    <varray name="rec_basis" >
     <v>       0.10000000       0.00000000       0.00000000 </v>
     <v>       0.00000000       0.10000000       0.00000000 </v>
     <v>       0.00000000       0.00000000       0.10000000 </v>
    </varray>
   </crystal>
   <varray name="positions" >
    <v>       0.00283291       0.00000000       0.00000000 </v>
    <v>       0.11716709       0.00000000       0.00000000 </v>
   </varray>
  </structure>
  <varray name="forces" >
   <v>       0.01488653       0.00000000       0.00000000 </v>
   <v>      -0.01488653       0.00000000       0.00000000 </v>
  </varray>
  <varray name="stress" >
   <v>      -0.08840937       0.00000000       0.00000000 </v>
   <v>       0.00000000      -0.02346808       0.00000000 </v>
   <v>       0.00000000       0.00000000      -0.02346808 </v>
  </varray>
  <energy>
   <i name="e_fr_energy">    -14.76963819 </i>
   <i name="e_wo_entrp">    -14.77060450 </i>
   <i name="e_0_energy">      0.00289895 </i>
  </energy>
  <time name="totalsc">   39.43   39.56</time>
  <eigenvalues>
   <array>
    <dimension dim="1">band</dimension>
    <dimension dim="2">kpoint</dimension>
    <dimension dim="3">spin</dimension>
    <field>eigene</field>
    <field>occ</field>
    <set>
     <set comment="spin 1">
      <set comment="kpoint 1">
       <r>  -29.1255    1.0000 </r>
       <r>  -13.9096    1.0000 </r>
       <r>  -11.6088    1.0000 </r>
       <r>  -11.6088    1.0000 </r>
       <r>   -8.9147    1.0000 </r>
       <r>   -2.0222    0.0000 </r>
       <r>   -2.0222    0.0000 </r>
       <r>   -0.2576    0.0000 </r>
       <r>    1.0849    0.0000 </r>
      </set>
     </set>
    </set>
   </array>
  </eigenvalues>
  <separator name="orbital magnetization" >
   <v name="MAGDIPOLOUT">      0.00000000      0.00000000      0.00000000</v>
  </separator>
 </calculation>
 <structure name="finalpos" >
  <crystal>
   <varray name="basis" >
    <v>      10.00000000       0.00000000       0.00000000 </v>
    <v>       0.00000000      10.00000000       0.00000000 </v>
    <v>       0.00000000       0.00000000      10.00000000 </v>
   </varray>
   <i name="volume">   1000.00000000 </i>
   <varray name="rec_basis" >
    <v>       0.10000000       0.00000000       0.00000000 </v>
    <v>       0.00000000       0.10000000       0.00000000 </v>
    <v>       0.00000000       0.00000000       0.10000000 </v>
   </varray>
  </crystal>
  <varray name="positions" >
   <v>       0.00283291       0.00000000       0.00000000 </v>
   <v>       0.11716709       0.00000000       0.00000000 </v>
  </varray>
 </structure>
</modeling>
