   4   4   1   0
  0.8797333E+01  0.2461200E-09  0.2461200E-09  0.6707900E-09  0.5000000E-15
  1.000000000000000E-004
  CAR 
 unknown system                          
     19.05005700    -16.39342004  301      2.85561814      1.00000000
    -16.393  0.0000E+00  0.0000E+00  0.0000E+00  0.0000E+00
    -16.275  0.0000E+00  0.0000E+00  0.0000E+00  0.0000E+00
    -16.157  0.0000E+00  0.0000E+00  0.0000E+00  0.0000E+00
    -16.039  0.0000E+00  0.0000E+00  0.0000E+00  0.0000E+00
    -15.921  0.0000E+00  0.0000E+00  0.0000E+00  0.0000E+00
    -15.803  0.0000E+00  0.0000E+00  0.0000E+00  0.0000E+00
    -15.685  0.0000E+00  0.0000E+00  0.0000E+00  0.0000E+00
    -15.566  0.0000E+00  0.0000E+00  0.0000E+00  0.0000E+00
    -15.448  0.0000E+00  0.0000E+00  0.0000E+00  0.0000E+00
    -15.330  0.0000E+00  0.0000E+00  0.0000E+00  0.0000E+00
    -15.212 -0.2216E-31 -0.6042E-33 -0.2619E-32 -0.7138E-34
    -15.094 -0.2606E-16 -0.1920E-17 -0.3079E-17 -0.2269E-18
    -14.976 -0.3470E-06 -0.7029E-07 -0.4099E-07 -0.8305E-08
    -14.858 -0.2908E-01 -0.1907E-01 -0.3436E-02 -0.2253E-02
    -14.739  0.1079E+01  0.1010E+01  0.1241E+00  0.1171E+00
    -14.621  0.1499E+01  0.1205E+01  0.3012E+00  0.2595E+00
    -14.503  0.7233E+00  0.9986E+00  0.3867E+00  0.3774E+00
    -14.385  0.9750E+00  0.1062E+01  0.5019E+00  0.5030E+00
    -14.267 -0.1573E-01 -0.2510E-01  0.5000E+00  0.5000E+00
    -14.149 -0.3820E-07 -0.1869E-06  0.5000E+00  0.5000E+00
    -14.031  0.0000E+00  0.0000E+00  0.5000E+00  0.5000E+00
    -13.912  0.0000E+00  0.0000E+00  0.5000E+00  0.5000E+00
    -13.794  0.0000E+00  0.0000E+00  0.5000E+00  0.5000E+00
    -13.676  0.0000E+00  0.0000E+00  0.5000E+00  0.5000E+00
    -13.558  0.0000E+00  0.0000E+00  0.5000E+00  0.5000E+00
    -13.440  0.0000E+00  0.0000E+00  0.5000E+00  0.5000E+00
    -13.322  0.0000E+00  0.0000E+00  0.5000E+00  0.5000E+00
    -13.204  0.0000E+00  0.0000E+00  0.5000E+00  0.5000E+00
    -13.085  0.0000E+00  0.0000E+00  0.5000E+00  0.5000E+00
    -12.967  0.0000E+00  0.0000E+00  0.5000E+00  0.5000E+00
    -12.849  0.0000E+00  0.0000E+00  0.5000E+00  0.5000E+00
    -12.731  0.0000E+00  0.0000E+00  0.5000E+00  0.5000E+00
    -12.613  0.0000E+00  0.0000E+00  0.5000E+00  0.5000E+00
    -12.495  0.0000E+00  0.0000E+00  0.5000E+00  0.5000E+00
    -12.376  0.0000E+00  0.0000E+00  0.5000E+00  0.5000E+00
    -12.258  0.0000E+00  0.0000E+00  0.5000E+00  0.5000E+00
    -12.140  0.0000E+00  0.0000E+00  0.5000E+00  0.5000E+00
    -12.022  0.0000E+00  0.0000E+00  0.5000E+00  0.5000E+00
    -11.904  0.0000E+00  0.0000E+00  0.5000E+00  0.5000E+00
    -11.786  0.0000E+00  0.0000E+00  0.5000E+00  0.5000E+00
    -11.668  0.0000E+00  0.0000E+00  0.5000E+00  0.5000E+00
    -11.549  0.0000E+00  0.0000E+00  0.5000E+00  0.5000E+00
    -11.431  0.0000E+00  0.0000E+00  0.5000E+00  0.5000E+00
    -11.313  0.0000E+00  0.0000E+00  0.5000E+00  0.5000E+00
    -11.195  0.0000E+00  0.0000E+00  0.5000E+00  0.5000E+00
    -11.077  0.0000E+00  0.0000E+00  0.5000E+00  0.5000E+00
    -10.959  0.0000E+00  0.0000E+00  0.5000E+00  0.5000E+00
    -10.841  0.0000E+00  0.0000E+00  0.5000E+00  0.5000E+00
    -10.722  0.0000E+00  0.0000E+00  0.5000E+00  0.5000E+00
    -10.604  0.0000E+00  0.0000E+00  0.5000E+00  0.5000E+00
    -10.486  0.0000E+00  0.0000E+00  0.5000E+00  0.5000E+00
    -10.368  0.0000E+00  0.0000E+00  0.5000E+00  0.5000E+00
    -10.250  0.0000E+00  0.0000E+00  0.5000E+00  0.5000E+00
    -10.132  0.0000E+00  0.0000E+00  0.5000E+00  0.5000E+00
    -10.014  0.0000E+00  0.0000E+00  0.5000E+00  0.5000E+00
     -9.895 -0.8154E-42 -0.1231E-43  0.5000E+00  0.5000E+00
     -9.777 -0.6313E-24 -0.2581E-25  0.5000E+00  0.5000E+00
     -9.659 -0.6017E-11 -0.6719E-12  0.5000E+00  0.5000E+00
     -9.541 -0.6145E-03 -0.1930E-03  0.4999E+00  0.5000E+00
     -9.423  0.3019E+00  0.5678E-01  0.5356E+00  0.5067E+00
     -9.305  0.9337E+01  0.8501E+01  0.1639E+01  0.1511E+01
     -9.187  0.3090E+01  0.4198E+01  0.2004E+01  0.2007E+01
     -9.068 -0.3175E-01 -0.5939E-01  0.2000E+01  0.2000E+01
     -8.950 -0.3447E-07 -0.2116E-06  0.2000E+01  0.2000E+01
     -8.832 -0.2198E-40 -0.1414E-41  0.2000E+01  0.2000E+01
     -8.714 -0.7662E-23 -0.9592E-24  0.2000E+01  0.2000E+01
     -8.596 -0.3272E-10 -0.8015E-11  0.2000E+01  0.2000E+01
     -8.478 -0.1534E-02 -0.7450E-03  0.2000E+01  0.2000E+01
     -8.360  0.5888E+00  0.2348E+00  0.2069E+01  0.2028E+01
     -8.241  0.1156E+02  0.1158E+02  0.3435E+01  0.3396E+01
     -8.123  0.5538E+00  0.8851E+00  0.3500E+01  0.3500E+01
     -8.005 -0.1574E-02 -0.3206E-02  0.3500E+01  0.3500E+01
     -7.887 -0.3844E-10 -0.1664E-09  0.3500E+01  0.3500E+01
     -7.769  0.0000E+00  0.0000E+00  0.3500E+01  0.3500E+01
     -7.651  0.0000E+00  0.0000E+00  0.3500E+01  0.3500E+01
     -7.533  0.0000E+00  0.0000E+00  0.3500E+01  0.3500E+01
     -7.414  0.0000E+00  0.0000E+00  0.3500E+01  0.3500E+01
     -7.296  0.0000E+00  0.0000E+00  0.3500E+01  0.3500E+01
     -7.178  0.0000E+00  0.0000E+00  0.3500E+01  0.3500E+01
     -7.060  0.0000E+00  0.0000E+00  0.3500E+01  0.3500E+01
     -6.942  0.0000E+00  0.0000E+00  0.3500E+01  0.3500E+01
     -6.824  0.0000E+00  0.0000E+00  0.3500E+01  0.3500E+01
     -6.706  0.0000E+00  0.0000E+00  0.3500E+01  0.3500E+01
     -6.587  0.0000E+00  0.0000E+00  0.3500E+01  0.3500E+01
     -6.469  0.0000E+00  0.0000E+00  0.3500E+01  0.3500E+01
     -6.351  0.0000E+00  0.0000E+00  0.3500E+01  0.3500E+01
     -6.233  0.0000E+00  0.0000E+00  0.3500E+01  0.3500E+01
     -6.115  0.0000E+00  0.0000E+00  0.3500E+01  0.3500E+01
     -5.997  0.0000E+00  0.0000E+00  0.3500E+01  0.3500E+01
     -5.879  0.0000E+00  0.0000E+00  0.3500E+01  0.3500E+01
     -5.760  0.0000E+00  0.0000E+00  0.3500E+01  0.3500E+01
     -5.642  0.0000E+00  0.0000E+00  0.3500E+01  0.3500E+01
     -5.524  0.0000E+00  0.0000E+00  0.3500E+01  0.3500E+01
     -5.406  0.0000E+00  0.0000E+00  0.3500E+01  0.3500E+01
     -5.288  0.0000E+00  0.0000E+00  0.3500E+01  0.3500E+01
     -5.170  0.0000E+00  0.0000E+00  0.3500E+01  0.3500E+01
     -5.052  0.0000E+00  0.0000E+00  0.3500E+01  0.3500E+01
     -4.933  0.0000E+00  0.0000E+00  0.3500E+01  0.3500E+01
     -4.815  0.0000E+00  0.0000E+00  0.3500E+01  0.3500E+01
     -4.697  0.0000E+00  0.0000E+00  0.3500E+01  0.3500E+01
     -4.579  0.0000E+00  0.0000E+00  0.3500E+01  0.3500E+01
     -4.461  0.0000E+00  0.0000E+00  0.3500E+01  0.3500E+01
     -4.343  0.0000E+00  0.0000E+00  0.3500E+01  0.3500E+01
     -4.224 -0.5302E-45  0.0000E+00  0.3500E+01  0.3500E+01
     -4.106 -0.1794E-26 -0.1750E-29  0.3500E+01  0.3500E+01
     -3.988 -0.7562E-13 -0.5952E-15  0.3500E+01  0.3500E+01
     -3.870 -0.3564E-04 -0.2235E-05  0.3500E+01  0.3500E+01
     -3.752  0.7017E-02 -0.3746E-01  0.3501E+01  0.3496E+01
     -3.634  0.1078E+01  0.1131E+01  0.3628E+01  0.3629E+01
     -3.516 -0.2688E-01 -0.3542E-01  0.3625E+01  0.3625E+01
     -3.397 -0.2462E-06 -0.5188E-05  0.3625E+01  0.3625E+01
     -3.279 -0.1189E-36 -0.2465E-40  0.3625E+01  0.3625E+01
     -3.161 -0.4345E-20 -0.7565E-23  0.3625E+01  0.3625E+01
     -3.043 -0.1892E-08 -0.2834E-10  0.3625E+01  0.3625E+01
     -2.925 -0.7666E-02 -0.1100E-02  0.3624E+01  0.3625E+01
     -2.807  0.1311E+01  0.5342E+00  0.3779E+01  0.3688E+01
     -2.689  0.8154E+00  0.1597E+01  0.3875E+01  0.3877E+01
     -2.570 -0.2437E-02 -0.1415E-01  0.3875E+01  0.3875E+01
     -2.452 -0.1477E-09 -0.8432E-08  0.3875E+01  0.3875E+01
     -2.334  0.0000E+00  0.0000E+00  0.3875E+01  0.3875E+01
     -2.216 -0.1981E-44  0.0000E+00  0.3875E+01  0.3875E+01
     -2.098 -0.4927E-26 -0.2286E-29  0.3875E+01  0.3875E+01
     -1.980 -0.1524E-12 -0.7198E-15  0.3875E+01  0.3875E+01
     -1.862 -0.5223E-04 -0.2498E-05  0.3875E+01  0.3875E+01
     -1.743  0.2572E-01 -0.3751E-01  0.3878E+01  0.3871E+01
     -1.625  0.1056E+01  0.1132E+01  0.4003E+01  0.4004E+01
     -1.507 -0.1649E+00 -0.1523E+00  0.3983E+01  0.3986E+01
     -1.389  0.8983E+01  0.8202E+01  0.5045E+01  0.4955E+01
     -1.271  0.3874E+01  0.4639E+01  0.5502E+01  0.5503E+01
     -1.153 -0.1967E-01 -0.2818E-01  0.5500E+01  0.5500E+01
     -1.035 -0.6167E-08 -0.1422E-07  0.5500E+01  0.5500E+01
     -0.916  0.0000E+00  0.0000E+00  0.5500E+01  0.5500E+01
     -0.798  0.0000E+00  0.0000E+00  0.5500E+01  0.5500E+01
     -0.680  0.0000E+00  0.0000E+00  0.5500E+01  0.5500E+01
     -0.562  0.0000E+00  0.0000E+00  0.5500E+01  0.5500E+01
     -0.444  0.0000E+00  0.0000E+00  0.5500E+01  0.5500E+01
     -0.326  0.0000E+00  0.0000E+00  0.5500E+01  0.5500E+01
     -0.208  0.0000E+00  0.0000E+00  0.5500E+01  0.5500E+01
     -0.089  0.0000E+00  0.0000E+00  0.5500E+01  0.5500E+01
      0.029  0.0000E+00  0.0000E+00  0.5500E+01  0.5500E+01
      0.147  0.0000E+00  0.0000E+00  0.5500E+01  0.5500E+01
      0.265  0.0000E+00  0.0000E+00  0.5500E+01  0.5500E+01
      0.383  0.0000E+00  0.0000E+00  0.5500E+01  0.5500E+01
      0.501  0.0000E+00  0.0000E+00  0.5500E+01  0.5500E+01
      0.619  0.0000E+00  0.0000E+00  0.5500E+01  0.5500E+01
      0.738  0.0000E+00  0.0000E+00  0.5500E+01  0.5500E+01
      0.856  0.0000E+00  0.0000E+00  0.5500E+01  0.5500E+01
      0.974  0.0000E+00  0.0000E+00  0.5500E+01  0.5500E+01
      1.092  0.0000E+00  0.0000E+00  0.5500E+01  0.5500E+01
      1.210  0.0000E+00  0.0000E+00  0.5500E+01  0.5500E+01
      1.328  0.0000E+00  0.0000E+00  0.5500E+01  0.5500E+01
      1.446  0.0000E+00  0.0000E+00  0.5500E+01  0.5500E+01
      1.565 -0.9572E-35 -0.1597E-35  0.5500E+01  0.5500E+01
      1.683 -0.1401E-18 -0.3727E-19  0.5500E+01  0.5500E+01
      1.801 -0.2544E-07 -0.1084E-07  0.5500E+01  0.5500E+01
      1.919 -0.4606E-01 -0.3233E-01  0.5495E+01  0.5496E+01
      2.037  0.5820E+01  0.5079E+01  0.6182E+01  0.6096E+01
      2.155  0.5963E+01  0.6690E+01  0.6887E+01  0.6887E+01
      2.273 -0.9917E-01 -0.9790E-01  0.6875E+01  0.6875E+01
      2.392 -0.1976E-01 -0.2089E-02  0.6873E+01  0.6875E+01
      2.510  0.3722E+01  0.1191E+01  0.7312E+01  0.7015E+01
      2.628  0.2654E+01  0.5217E+01  0.7626E+01  0.7632E+01
      2.746 -0.4862E-01 -0.1489E+00  0.7620E+01  0.7614E+01
      2.864  0.3308E+01  0.3294E+01  0.8011E+01  0.8003E+01
      2.982 -0.9384E-01 -0.2865E-01  0.8000E+01  0.8000E+01
      3.100 -0.1482E-05 -0.6857E-04  0.8000E+01  0.8000E+01
      3.219  0.0000E+00 -0.1015E-12  0.8000E+01  0.8000E+01
      3.337  0.0000E+00  0.0000E+00  0.8000E+01  0.8000E+01
      3.455  0.0000E+00  0.0000E+00  0.8000E+01  0.8000E+01
      3.573  0.0000E+00  0.0000E+00  0.8000E+01  0.8000E+01
      3.691  0.0000E+00  0.0000E+00  0.8000E+01  0.8000E+01
      3.809  0.0000E+00  0.0000E+00  0.8000E+01  0.8000E+01
      3.928  0.0000E+00  0.0000E+00  0.8000E+01  0.8000E+01
      4.046  0.0000E+00  0.0000E+00  0.8000E+01  0.8000E+01
      4.164  0.0000E+00  0.0000E+00  0.8000E+01  0.8000E+01
      4.282  0.0000E+00  0.0000E+00  0.8000E+01  0.8000E+01
      4.400  0.0000E+00  0.0000E+00  0.8000E+01  0.8000E+01
      4.518  0.0000E+00  0.0000E+00  0.8000E+01  0.8000E+01
      4.636  0.0000E+00  0.0000E+00  0.8000E+01  0.8000E+01
      4.755  0.0000E+00  0.0000E+00  0.8000E+01  0.8000E+01
      4.873  0.0000E+00  0.0000E+00  0.8000E+01  0.8000E+01
      4.991  0.0000E+00  0.0000E+00  0.8000E+01  0.8000E+01
      5.109  0.0000E+00  0.0000E+00  0.8000E+01  0.8000E+01
      5.227  0.0000E+00  0.0000E+00  0.8000E+01  0.8000E+01
      5.345  0.0000E+00  0.0000E+00  0.8000E+01  0.8000E+01
      5.463  0.0000E+00  0.0000E+00  0.8000E+01  0.8000E+01
      5.582  0.0000E+00  0.0000E+00  0.8000E+01  0.8000E+01
      5.700  0.0000E+00  0.0000E+00  0.8000E+01  0.8000E+01
      5.818  0.0000E+00  0.0000E+00  0.8000E+01  0.8000E+01
      5.936 -0.1804E-36 -0.7524E-40  0.8000E+01  0.8000E+01
      6.054 -0.6572E-20 -0.1940E-22  0.8000E+01  0.8000E+01
      6.172 -0.2854E-08 -0.6092E-10  0.8000E+01  0.8000E+01
      6.290 -0.1153E-01 -0.1968E-02  0.7999E+01  0.8000E+01
      6.409  0.1962E+01  0.8866E+00  0.8230E+01  0.8105E+01
      6.527  0.3290E+01  0.2585E+01  0.8619E+01  0.8410E+01
      6.645  0.4312E+01  0.6177E+01  0.9129E+01  0.9140E+01
      6.763 -0.3025E-01 -0.1253E+00  0.9125E+01  0.9125E+01
      6.881 -0.2306E-06 -0.5754E-06  0.9125E+01  0.9125E+01
      6.999 -0.5791E-01 -0.9730E-02  0.9118E+01  0.9124E+01
      7.117  0.3053E+01  0.1851E+01  0.9479E+01  0.9343E+01
      7.236  0.1795E+00  0.1337E+01  0.9500E+01  0.9501E+01
      7.354 -0.2667E-03 -0.4426E-02  0.9500E+01  0.9500E+01
      7.472 -0.1228E-11 -0.3336E-09  0.9500E+01  0.9500E+01
      7.590  0.0000E+00  0.0000E+00  0.9500E+01  0.9500E+01
      7.708  0.0000E+00  0.0000E+00  0.9500E+01  0.9500E+01
      7.826  0.0000E+00  0.0000E+00  0.9500E+01  0.9500E+01
      7.944  0.0000E+00  0.0000E+00  0.9500E+01  0.9500E+01
      8.063  0.0000E+00  0.0000E+00  0.9500E+01  0.9500E+01
      8.181  0.0000E+00  0.0000E+00  0.9500E+01  0.9500E+01
      8.299  0.0000E+00  0.0000E+00  0.9500E+01  0.9500E+01
      8.417  0.0000E+00  0.0000E+00  0.9500E+01  0.9500E+01
      8.535 -0.5087E-34 -0.8735E-36  0.9500E+01  0.9500E+01
      8.653 -0.3156E-18 -0.1590E-19  0.9500E+01  0.9500E+01
      8.771 -0.2280E-07 -0.3420E-08  0.9500E+01  0.9500E+01
      8.890 -0.1322E-01 -0.6513E-02  0.9498E+01  0.9499E+01
      9.008  0.9398E+00  0.7792E+00  0.9609E+01  0.9591E+01
      9.126  0.1317E+00  0.2859E+00  0.9625E+01  0.9625E+01
      9.244 -0.1972E-03 -0.6183E-03  0.9625E+01  0.9625E+01
      9.362 -0.1866E-11 -0.1799E-10  0.9625E+01  0.9625E+01
      9.480  0.0000E+00  0.0000E+00  0.9625E+01  0.9625E+01
      9.598  0.0000E+00  0.0000E+00  0.9625E+01  0.9625E+01
      9.717  0.0000E+00  0.0000E+00  0.9625E+01  0.9625E+01
      9.835  0.0000E+00  0.0000E+00  0.9625E+01  0.9625E+01
      9.953  0.0000E+00  0.0000E+00  0.9625E+01  0.9625E+01
     10.071  0.0000E+00  0.0000E+00  0.9625E+01  0.9625E+01
     10.189  0.0000E+00  0.0000E+00  0.9625E+01  0.9625E+01
     10.307  0.0000E+00  0.0000E+00  0.9625E+01  0.9625E+01
     10.425  0.0000E+00  0.0000E+00  0.9625E+01  0.9625E+01
     10.544  0.0000E+00  0.0000E+00  0.9625E+01  0.9625E+01
     10.662  0.0000E+00  0.0000E+00  0.9625E+01  0.9625E+01
     10.780  0.0000E+00  0.0000E+00  0.9625E+01  0.9625E+01
     10.898  0.0000E+00  0.0000E+00  0.9625E+01  0.9625E+01
     11.016  0.0000E+00  0.0000E+00  0.9625E+01  0.9625E+01
     11.134  0.0000E+00  0.0000E+00  0.9625E+01  0.9625E+01
     11.252 -0.3749E-28 -0.3649E-30  0.9625E+01  0.9625E+01
     11.371 -0.6160E-14 -0.2370E-15  0.9625E+01  0.9625E+01
     11.489 -0.1185E-04 -0.1723E-05  0.9625E+01  0.9625E+01
     11.607 -0.6895E-01 -0.6878E-01  0.9617E+01  0.9617E+01
     11.725  0.2260E+01  0.2234E+01  0.9884E+01  0.9881E+01
     11.843 -0.7456E-01 -0.4938E-01  0.9875E+01  0.9875E+01
     11.961 -0.4677E-05 -0.2510E-04  0.9875E+01  0.9875E+01
     12.080 -0.8183E-01 -0.4654E-01  0.9865E+01  0.9870E+01
     12.198  0.3241E+01  0.2921E+01  0.1025E+02  0.1021E+02
     12.316  0.1643E+00  0.1379E+00  0.1027E+02  0.1023E+02
     12.434  0.6340E+01  0.6720E+01  0.1102E+02  0.1102E+02
     12.552  0.7460E+00  0.1674E+00  0.1110E+02  0.1104E+02
     12.670  0.2306E+01  0.2837E+01  0.1138E+02  0.1138E+02
     12.788 -0.1867E-01 -0.4079E-01  0.1138E+02  0.1138E+02
     12.907 -0.9154E-08 -0.7423E-07  0.1138E+02  0.1138E+02
     13.025 -0.1509E-18 -0.3925E-19  0.1138E+02  0.1138E+02
     13.143 -0.2270E-07 -0.9567E-08  0.1137E+02  0.1137E+02
     13.261 -0.3654E-01 -0.2565E-01  0.1137E+02  0.1137E+02
     13.379  0.4465E+01  0.3934E+01  0.1190E+02  0.1184E+02
     13.497  0.4103E+01  0.4633E+01  0.1238E+02  0.1238E+02
     13.615 -0.6645E-01 -0.7701E-01  0.1238E+02  0.1238E+02
     13.734 -0.9182E-06 -0.1862E-05  0.1238E+02  0.1238E+02
     13.852  0.0000E+00  0.0000E+00  0.1238E+02  0.1238E+02
     13.970  0.0000E+00  0.0000E+00  0.1238E+02  0.1238E+02
     14.088  0.0000E+00  0.0000E+00  0.1238E+02  0.1238E+02
     14.206  0.0000E+00  0.0000E+00  0.1238E+02  0.1238E+02
     14.324  0.0000E+00  0.0000E+00  0.1238E+02  0.1238E+02
     14.442  0.0000E+00  0.0000E+00  0.1238E+02  0.1238E+02
     14.561  0.0000E+00  0.0000E+00  0.1238E+02  0.1238E+02
     14.679  0.0000E+00  0.0000E+00  0.1238E+02  0.1238E+02
     14.797  0.0000E+00  0.0000E+00  0.1238E+02  0.1238E+02
     14.915 -0.1154E-38 -0.1367E-41  0.1238E+02  0.1238E+02
     15.033 -0.1148E-21 -0.7170E-24  0.1238E+02  0.1238E+02
     15.151 -0.1378E-09 -0.4612E-11  0.1237E+02  0.1237E+02
     15.269 -0.1629E-02 -0.3135E-03  0.1237E+02  0.1237E+02
     15.388  0.4662E+00  0.1866E+00  0.1243E+02  0.1240E+02
     15.506  0.5964E+00  0.8819E+00  0.1250E+02  0.1250E+02
     15.624 -0.2964E-02 -0.1017E-01  0.1250E+02  0.1250E+02
     15.742 -0.5217E-09 -0.1094E-07  0.1250E+02  0.1250E+02
     15.860 -0.5025E-04 -0.2140E-04  0.1250E+02  0.1250E+02
     15.978 -0.5487E-01 -0.9837E-01  0.1249E+02  0.1249E+02
     16.096  0.3285E+01  0.3369E+01  0.1288E+02  0.1289E+02
     16.215  0.2747E+01  0.2004E+01  0.1321E+02  0.1312E+02
     16.333  0.3715E+00  0.1076E+01  0.1325E+02  0.1325E+02
     16.451 -0.5493E-03 -0.2823E-02  0.1325E+02  0.1325E+02
     16.569 -0.4851E-11 -0.1285E-09  0.1325E+02  0.1325E+02
     16.687  0.0000E+00  0.0000E+00  0.1325E+02  0.1325E+02
     16.805  0.0000E+00  0.0000E+00  0.1325E+02  0.1325E+02
     16.923 -0.2127E-41 -0.1245E-44  0.1325E+02  0.1325E+02
     17.042 -0.1545E-23 -0.5237E-26  0.1325E+02  0.1325E+02
     17.160 -0.1381E-10 -0.2752E-12  0.1325E+02  0.1325E+02
     17.278 -0.1319E-02 -0.1623E-03  0.1325E+02  0.1325E+02
     17.396  0.8615E+00 -0.2325E-01  0.1335E+02  0.1325E+02
     17.514  0.5563E+01  0.6546E+01  0.1401E+02  0.1402E+02
     17.632 -0.7483E-01 -0.1745E+00  0.1400E+02  0.1400E+02
     17.750 -0.1157E-06 -0.2082E-05  0.1400E+02  0.1400E+02
     17.869  0.0000E+00  0.0000E+00  0.1400E+02  0.1400E+02
     17.987  0.0000E+00  0.0000E+00  0.1400E+02  0.1400E+02
     18.105  0.0000E+00  0.0000E+00  0.1400E+02  0.1400E+02
     18.223  0.0000E+00  0.0000E+00  0.1400E+02  0.1400E+02
     18.341  0.0000E+00  0.0000E+00  0.1400E+02  0.1400E+02
     18.459  0.0000E+00  0.0000E+00  0.1400E+02  0.1400E+02
     18.577  0.0000E+00  0.0000E+00  0.1400E+02  0.1400E+02
     18.696  0.0000E+00  0.0000E+00  0.1400E+02  0.1400E+02
     18.814  0.0000E+00  0.0000E+00  0.1400E+02  0.1400E+02
     18.932  0.0000E+00  0.0000E+00  0.1400E+02  0.1400E+02
     19.050  0.0000E+00  0.0000E+00  0.1400E+02  0.1400E+02
     19.05005700    -16.39342004  301      2.85561814      1.00000000
    -16.393  0.0000E+00  0.0000E+00  0.0000E+00  0.0000E+00  0.0000E+00  0.0000E+00  0.0000E+00  0.0000E+00  0.0000E+00  0.0000E+00  0.0000E+00  0.0000E+00  0.0000E+00  0.0000E+00  0.0000E+00  0.0000E+00  0.0000E+00  0.0000E+00
    -16.275  0.0000E+00  0.0000E+00  0.0000E+00  0.0000E+00  0.0000E+00  0.0000E+00  0.0000E+00  0.0000E+00  0.0000E+00  0.0000E+00  0.0000E+00  0.0000E+00  0.0000E+00  0.0000E+00  0.0000E+00  0.0000E+00  0.0000E+00  0.0000E+00
    -16.157  0.0000E+00  0.0000E+00  0.0000E+00  0.0000E+00  0.0000E+00  0.0000E+00  0.0000E+00  0.0000E+00  0.0000E+00  0.0000E+00  0.0000E+00  0.0000E+00  0.0000E+00  0.0000E+00  0.0000E+00  0.0000E+00  0.0000E+00  0.0000E+00
    -16.039  0.0000E+00  0.0000E+00  0.0000E+00  0.0000E+00  0.0000E+00  0.0000E+00  0.0000E+00  0.0000E+00  0.0000E+00  0.0000E+00  0.0000E+00  0.0000E+00  0.0000E+00  0.0000E+00  0.0000E+00  0.0000E+00  0.0000E+00  0.0000E+00
    -15.921  0.0000E+00  0.0000E+00  0.0000E+00  0.0000E+00  0.0000E+00  0.0000E+00  0.0000E+00  0.0000E+00  0.0000E+00  0.0000E+00  0.0000E+00  0.0000E+00  0.0000E+00  0.0000E+00  0.0000E+00  0.0000E+00  0.0000E+00  0.0000E+00
    -15.803  0.0000E+00  0.0000E+00  0.0000E+00  0.0000E+00  0.0000E+00  0.0000E+00  0.0000E+00  0.0000E+00  0.0000E+00  0.0000E+00  0.0000E+00  0.0000E+00  0.0000E+00  0.0000E+00  0.0000E+00  0.0000E+00  0.0000E+00  0.0000E+00
    -15.685  0.0000E+00  0.0000E+00  0.0000E+00  0.0000E+00  0.0000E+00  0.0000E+00  0.0000E+00  0.0000E+00  0.0000E+00  0.0000E+00  0.0000E+00  0.0000E+00  0.0000E+00  0.0000E+00  0.0000E+00  0.0000E+00  0.0000E+00  0.0000E+00
    -15.566  0.0000E+00  0.0000E+00  0.0000E+00  0.0000E+00  0.0000E+00  0.0000E+00  0.0000E+00  0.0000E+00  0.0000E+00  0.0000E+00  0.0000E+00  0.0000E+00  0.0000E+00  0.0000E+00  0.0000E+00  0.0000E+00  0.0000E+00  0.0000E+00
    -15.448  0.0000E+00  0.0000E+00  0.0000E+00  0.0000E+00  0.0000E+00  0.0000E+00  0.0000E+00  0.0000E+00  0.0000E+00  0.0000E+00  0.0000E+00  0.0000E+00  0.0000E+00  0.0000E+00  0.0000E+00  0.0000E+00  0.0000E+00  0.0000E+00
    -15.330  0.0000E+00  0.0000E+00  0.0000E+00  0.0000E+00  0.0000E+00  0.0000E+00  0.0000E+00  0.0000E+00  0.0000E+00  0.0000E+00  0.0000E+00  0.0000E+00  0.0000E+00  0.0000E+00  0.0000E+00  0.0000E+00  0.0000E+00  0.0000E+00
    -15.212 -0.3504E-32 -0.9547E-34 -0.4658E-46 -0.2603E-48 -0.1410E-45 -0.1190E-49 -0.1819E-45 -0.7696E-48  0.0000E+00  0.0000E+00  0.0000E+00  0.0000E+00  0.0000E+00  0.0000E+00  0.0000E+00  0.0000E+00  0.0000E+00  0.0000E+00
    -15.094 -0.4120E-17 -0.3034E-18 -0.5478E-31 -0.8274E-33 -0.1658E-30 -0.3781E-34 -0.2139E-30 -0.2446E-32  0.0000E+00  0.0000E+00  0.0000E+00  0.0000E+00  0.0000E+00  0.0000E+00  0.0000E+00  0.0000E+00  0.0000E+00  0.0000E+00
    -14.976 -0.5485E-07 -0.1111E-07 -0.7292E-21 -0.3029E-22 -0.2208E-20 -0.1418E-23 -0.2848E-20 -0.8954E-22  0.0000E+00  0.0000E+00  0.0000E+00  0.0000E+00  0.0000E+00  0.0000E+00  0.0000E+00  0.0000E+00  0.0000E+00  0.0000E+00
    -14.858 -0.4598E-02 -0.3013E-02 -0.6112E-16 -0.8215E-17 -0.1486E-12 -0.2354E-13 -0.2387E-15 -0.2429E-16  0.0000E+00  0.0000E+00  0.0000E+00  0.0000E+00  0.0000E+00  0.0000E+00  0.0000E+00  0.0000E+00  0.0000E+00  0.0000E+00
    -14.739  0.1706E+00  0.1596E+00  0.2272E-14  0.4354E-15 -0.3370E-06 -0.1538E-06  0.8897E-14  0.1287E-14  0.0000E+00  0.0000E+00  0.0000E+00  0.0000E+00  0.0000E+00  0.0000E+00  0.0000E+00  0.0000E+00  0.0000E+00  0.0000E+00
    -14.621  0.2414E+00  0.1938E+00  0.2733E-14  0.4527E-15  0.4376E-04  0.3313E-04  0.7476E-14  0.1348E-14  0.0000E+00  0.0000E+00  0.0000E+00  0.0000E+00  0.0000E+00  0.0000E+00  0.0000E+00  0.0000E+00  0.0000E+00  0.0000E+00
    -14.503  0.1167E+00  0.1608E+00  0.1167E-14  0.3744E-15  0.1822E-04  0.2844E-04  0.3276E-14  0.1107E-14  0.0000E+00  0.0000E+00  0.0000E+00  0.0000E+00  0.0000E+00  0.0000E+00  0.0000E+00  0.0000E+00  0.0000E+00  0.0000E+00
    -14.385  0.1600E+00  0.1743E+00  0.2504E-15  0.5417E-15 -0.4232E-07 -0.1062E-06  0.1500E-14  0.1105E-14  0.0000E+00  0.0000E+00  0.0000E+00  0.0000E+00  0.0000E+00  0.0000E+00  0.0000E+00  0.0000E+00  0.0000E+00  0.0000E+00
    -14.267 -0.2581E-02 -0.4116E-02 -0.4076E-17 -0.1278E-16 -0.3699E-14 -0.1033E-13 -0.2428E-16 -0.2611E-16  0.0000E+00  0.0000E+00  0.0000E+00  0.0000E+00  0.0000E+00  0.0000E+00  0.0000E+00  0.0000E+00  0.0000E+00  0.0000E+00
    -14.149 -0.6268E-08 -0.3065E-07 -0.9900E-23 -0.9521E-22 -0.5441E-20 -0.5797E-22 -0.5898E-22 -0.1944E-21  0.0000E+00  0.0000E+00  0.0000E+00  0.0000E+00  0.0000E+00  0.0000E+00  0.0000E+00  0.0000E+00  0.0000E+00  0.0000E+00
    -14.031  0.0000E+00  0.0000E+00  0.0000E+00  0.0000E+00  0.0000E+00  0.0000E+00  0.0000E+00  0.0000E+00  0.0000E+00  0.0000E+00  0.0000E+00  0.0000E+00  0.0000E+00  0.0000E+00  0.0000E+00  0.0000E+00  0.0000E+00  0.0000E+00
    -13.912  0.0000E+00  0.0000E+00  0.0000E+00  0.0000E+00  0.0000E+00  0.0000E+00  0.0000E+00  0.0000E+00  0.0000E+00  0.0000E+00  0.0000E+00  0.0000E+00  0.0000E+00  0.0000E+00  0.0000E+00  0.0000E+00  0.0000E+00  0.0000E+00
    -13.794  0.0000E+00  0.0000E+00  0.0000E+00  0.0000E+00  0.0000E+00  0.0000E+00  0.0000E+00  0.0000E+00  0.0000E+00  0.0000E+00  0.0000E+00  0.0000E+00  0.0000E+00  0.0000E+00  0.0000E+00  0.0000E+00  0.0000E+00  0.0000E+00
    -13.676  0.0000E+00  0.0000E+00  0.0000E+00  0.0000E+00  0.0000E+00  0.0000E+00  0.0000E+00  0.0000E+00  0.0000E+00  0.0000E+00  0.0000E+00  0.0000E+00  0.0000E+00  0.0000E+00  0.0000E+00  0.0000E+00  0.0000E+00  0.0000E+00
    -13.558  0.0000E+00  0.0000E+00  0.0000E+00  0.0000E+00  0.0000E+00  0.0000E+00  0.0000E+00  0.0000E+00  0.0000E+00  0.0000E+00  0.0000E+00  0.0000E+00  0.0000E+00  0.0000E+00  0.0000E+00  0.0000E+00  0.0000E+00  0.0000E+00
    -13.440  0.0000E+00  0.0000E+00  0.0000E+00  0.0000E+00  0.0000E+00  0.0000E+00  0.0000E+00  0.0000E+00  0.0000E+00  0.0000E+00  0.0000E+00  0.0000E+00  0.0000E+00  0.0000E+00  0.0000E+00  0.0000E+00  0.0000E+00  0.0000E+00
    -13.322  0.0000E+00  0.0000E+00  0.0000E+00  0.0000E+00  0.0000E+00  0.0000E+00  0.0000E+00  0.0000E+00  0.0000E+00  0.0000E+00  0.0000E+00  0.0000E+00  0.0000E+00  0.0000E+00  0.0000E+00  0.0000E+00  0.0000E+00  0.0000E+00
    -13.204  0.0000E+00  0.0000E+00  0.0000E+00  0.0000E+00  0.0000E+00  0.0000E+00  0.0000E+00  0.0000E+00  0.0000E+00  0.0000E+00  0.0000E+00  0.0000E+00  0.0000E+00  0.0000E+00  0.0000E+00  0.0000E+00  0.0000E+00  0.0000E+00
    -13.085  0.0000E+00  0.0000E+00  0.0000E+00  0.0000E+00  0.0000E+00  0.0000E+00  0.0000E+00  0.0000E+00  0.0000E+00  0.0000E+00  0.0000E+00  0.0000E+00  0.0000E+00  0.0000E+00  0.0000E+00  0.0000E+00  0.0000E+00  0.0000E+00
    -12.967  0.0000E+00  0.0000E+00  0.0000E+00  0.0000E+00  0.0000E+00  0.0000E+00  0.0000E+00  0.0000E+00  0.0000E+00  0.0000E+00  0.0000E+00  0.0000E+00  0.0000E+00  0.0000E+00  0.0000E+00  0.0000E+00  0.0000E+00  0.0000E+00
    -12.849  0.0000E+00  0.0000E+00  0.0000E+00  0.0000E+00  0.0000E+00  0.0000E+00  0.0000E+00  0.0000E+00  0.0000E+00  0.0000E+00  0.0000E+00  0.0000E+00  0.0000E+00  0.0000E+00  0.0000E+00  0.0000E+00  0.0000E+00  0.0000E+00
    -12.731  0.0000E+00  0.0000E+00  0.0000E+00  0.0000E+00  0.0000E+00  0.0000E+00  0.0000E+00  0.0000E+00  0.0000E+00  0.0000E+00  0.0000E+00  0.0000E+00  0.0000E+00  0.0000E+00  0.0000E+00  0.0000E+00  0.0000E+00  0.0000E+00
    -12.613  0.0000E+00  0.0000E+00  0.0000E+00  0.0000E+00  0.0000E+00  0.0000E+00  0.0000E+00  0.0000E+00  0.0000E+00  0.0000E+00  0.0000E+00  0.0000E+00  0.0000E+00  0.0000E+00  0.0000E+00  0.0000E+00  0.0000E+00  0.0000E+00
    -12.495  0.0000E+00  0.0000E+00  0.0000E+00  0.0000E+00  0.0000E+00  0.0000E+00  0.0000E+00  0.0000E+00  0.0000E+00  0.0000E+00  0.0000E+00  0.0000E+00  0.0000E+00  0.0000E+00  0.0000E+00  0.0000E+00  0.0000E+00  0.0000E+00
    -12.376  0.0000E+00  0.0000E+00  0.0000E+00  0.0000E+00  0.0000E+00  0.0000E+00  0.0000E+00  0.0000E+00  0.0000E+00  0.0000E+00  0.0000E+00  0.0000E+00  0.0000E+00  0.0000E+00  0.0000E+00  0.0000E+00  0.0000E+00  0.0000E+00
    -12.258  0.0000E+00  0.0000E+00  0.0000E+00  0.0000E+00  0.0000E+00  0.0000E+00  0.0000E+00  0.0000E+00  0.0000E+00  0.0000E+00  0.0000E+00  0.0000E+00  0.0000E+00  0.0000E+00  0.0000E+00  0.0000E+00  0.0000E+00  0.0000E+00
    -12.140  0.0000E+00  0.0000E+00  0.0000E+00  0.0000E+00  0.0000E+00  0.0000E+00  0.0000E+00  0.0000E+00  0.0000E+00  0.0000E+00  0.0000E+00  0.0000E+00  0.0000E+00  0.0000E+00  0.0000E+00  0.0000E+00  0.0000E+00  0.0000E+00
    -12.022  0.0000E+00  0.0000E+00  0.0000E+00  0.0000E+00  0.0000E+00  0.0000E+00  0.0000E+00  0.0000E+00  0.0000E+00  0.0000E+00  0.0000E+00  0.0000E+00  0.0000E+00  0.0000E+00  0.0000E+00  0.0000E+00  0.0000E+00  0.0000E+00
    -11.904  0.0000E+00  0.0000E+00  0.0000E+00  0.0000E+00  0.0000E+00  0.0000E+00  0.0000E+00  0.0000E+00  0.0000E+00  0.0000E+00  0.0000E+00  0.0000E+00  0.0000E+00  0.0000E+00  0.0000E+00  0.0000E+00  0.0000E+00  0.0000E+00
    -11.786  0.0000E+00  0.0000E+00  0.0000E+00  0.0000E+00  0.0000E+00  0.0000E+00  0.0000E+00  0.0000E+00  0.0000E+00  0.0000E+00  0.0000E+00  0.0000E+00  0.0000E+00  0.0000E+00  0.0000E+00  0.0000E+00  0.0000E+00  0.0000E+00
    -11.668  0.0000E+00  0.0000E+00  0.0000E+00  0.0000E+00  0.0000E+00  0.0000E+00  0.0000E+00  0.0000E+00  0.0000E+00  0.0000E+00  0.0000E+00  0.0000E+00  0.0000E+00  0.0000E+00  0.0000E+00  0.0000E+00  0.0000E+00  0.0000E+00
    -11.549  0.0000E+00  0.0000E+00  0.0000E+00  0.0000E+00  0.0000E+00  0.0000E+00  0.0000E+00  0.0000E+00  0.0000E+00  0.0000E+00  0.0000E+00  0.0000E+00  0.0000E+00  0.0000E+00  0.0000E+00  0.0000E+00  0.0000E+00  0.0000E+00
    -11.431  0.0000E+00  0.0000E+00  0.0000E+00  0.0000E+00  0.0000E+00  0.0000E+00  0.0000E+00  0.0000E+00  0.0000E+00  0.0000E+00  0.0000E+00  0.0000E+00  0.0000E+00  0.0000E+00  0.0000E+00  0.0000E+00  0.0000E+00  0.0000E+00
    -11.313  0.0000E+00  0.0000E+00  0.0000E+00  0.0000E+00  0.0000E+00  0.0000E+00  0.0000E+00  0.0000E+00  0.0000E+00  0.0000E+00  0.0000E+00  0.0000E+00  0.0000E+00  0.0000E+00  0.0000E+00  0.0000E+00  0.0000E+00  0.0000E+00
    -11.195  0.0000E+00  0.0000E+00  0.0000E+00  0.0000E+00  0.0000E+00  0.0000E+00  0.0000E+00  0.0000E+00  0.0000E+00  0.0000E+00  0.0000E+00  0.0000E+00  0.0000E+00  0.0000E+00  0.0000E+00  0.0000E+00  0.0000E+00  0.0000E+00
    -11.077  0.0000E+00  0.0000E+00  0.0000E+00  0.0000E+00  0.0000E+00  0.0000E+00  0.0000E+00  0.0000E+00  0.0000E+00  0.0000E+00  0.0000E+00  0.0000E+00  0.0000E+00  0.0000E+00  0.0000E+00  0.0000E+00  0.0000E+00  0.0000E+00
    -10.959  0.0000E+00  0.0000E+00  0.0000E+00  0.0000E+00  0.0000E+00  0.0000E+00  0.0000E+00  0.0000E+00  0.0000E+00  0.0000E+00  0.0000E+00  0.0000E+00  0.0000E+00  0.0000E+00  0.0000E+00  0.0000E+00  0.0000E+00  0.0000E+00
    -10.841  0.0000E+00  0.0000E+00  0.0000E+00  0.0000E+00  0.0000E+00  0.0000E+00  0.0000E+00  0.0000E+00  0.0000E+00  0.0000E+00  0.0000E+00  0.0000E+00  0.0000E+00  0.0000E+00  0.0000E+00  0.0000E+00  0.0000E+00  0.0000E+00
    -10.722  0.0000E+00  0.0000E+00  0.0000E+00  0.0000E+00  0.0000E+00  0.0000E+00  0.0000E+00  0.0000E+00  0.0000E+00  0.0000E+00  0.0000E+00  0.0000E+00  0.0000E+00  0.0000E+00  0.0000E+00  0.0000E+00  0.0000E+00  0.0000E+00
    -10.604  0.0000E+00  0.0000E+00  0.0000E+00  0.0000E+00  0.0000E+00  0.0000E+00  0.0000E+00  0.0000E+00  0.0000E+00  0.0000E+00  0.0000E+00  0.0000E+00  0.0000E+00  0.0000E+00  0.0000E+00  0.0000E+00  0.0000E+00  0.0000E+00
    -10.486  0.0000E+00  0.0000E+00  0.0000E+00  0.0000E+00  0.0000E+00  0.0000E+00  0.0000E+00  0.0000E+00  0.0000E+00  0.0000E+00  0.0000E+00  0.0000E+00  0.0000E+00  0.0000E+00  0.0000E+00  0.0000E+00  0.0000E+00  0.0000E+00