    4    4    1    2
  0.8797333E+01  0.2461200E-09  0.2461200E-09  0.6707900E-09  0.5000000E-15
  1.000000000000000E-004
  CAR 
 unknown system                          
   16    4   14
 
  0.0000000E+00  0.0000000E+00  0.0000000E+00  0.1250000E+00
   1      -14.782353    -14.771928
   2      -14.474397    -14.464249
   3       -3.711242     -3.689727
   4       -1.706014     -1.682072
   5        2.028146      2.033082
   6        2.028215      2.033151
   7        2.033820      2.038741
   8        2.033890      2.038810
   9        8.982220      8.993511
  10       13.359413     13.364453
  11       13.359467     13.364507
  12       13.423926     13.428796
  13       13.423980     13.428848
  14       15.391173     15.408635
 
  0.5000000E+00 -0.2775558E-16  0.0000000E+00  0.3750000E+00
   1       -9.397704     -9.387231
   2       -9.283359     -9.272166
   3       -8.342785     -8.335791
   4       -8.257372     -8.249836
   5       -1.437063     -1.432176
   6       -1.377823     -1.373014
   7        2.081823      2.104203
   8        2.791409      2.819862
   9        6.401606      6.422160
  10        7.084622      7.112668
  11       12.156568     12.169206
  12       12.565654     12.578106
  13       16.025142     16.031827
  14       16.188365     16.204815
 
  0.0000000E+00  0.0000000E+00  0.5000000E+00  0.1250000E+00
   1      -14.633780    -14.623483
   2      -14.633778    -14.623481
   3       -2.813669     -2.791312
   4       -2.813668     -2.791311
   5        2.020236      2.025149
   6        2.020238      2.025151
   7        2.020306      2.025218
   8        2.020309      2.025220
   9       11.661882     11.675889
  10       11.661883     11.675889
  11       13.370126     13.375056
  12       13.370129     13.375059
  13       13.370182     13.375111
  14       13.370184     13.375113
 
  0.5000000E+00 -0.2775558E-16  0.5000000E+00  0.3750000E+00
   1       -9.335392     -9.324586
   2       -9.335390     -9.324583
   3       -8.311552     -8.304257
   4       -8.311549     -8.304255
   5       -1.402863     -1.398004
   6       -1.402861     -1.398002
   7        2.504823      2.529950
   8        2.504824      2.529951
   9        6.537297      6.561193
  10        6.537298      6.561194
  11       12.353355     12.366007
  12       12.353358     12.366009
  13       17.420523     17.438990
  14       17.420523     17.438990
