       N       E                     dE             d eps       ncg     rms          rms(c)
DAV:   1     0.216618190021E+02    0.21662E+02   -0.66199E+03   224   0.763E+02
DAV:   2    -0.322275201195E+02   -0.53889E+02   -0.48337E+02   302   0.164E+02
DAV:   3    -0.339636226478E+02   -0.17361E+01   -0.17305E+01   320   0.299E+01
DAV:   4    -0.339786928672E+02   -0.15070E-01   -0.15069E-01   256   0.318E+00
DAV:   5    -0.339790016356E+02   -0.30877E-03   -0.30876E-03   308   0.425E-01    0.129E+01
DAV:   6    -0.328279884919E+02    0.11510E+01   -0.24629E+00   248   0.999E+00    0.523E+00
DAV:   7    -0.328200408873E+02    0.79476E-02   -0.17229E+00   230   0.812E+00    0.209E+00
DAV:   8    -0.327690424740E+02    0.50998E-01   -0.31527E-01   266   0.393E+00    0.718E-01
DAV:   9    -0.327831767961E+02   -0.14134E-01   -0.22380E-02   236   0.119E+00    0.362E-01
DAV:  10    -0.327845931737E+02   -0.14164E-02   -0.21468E-03   254   0.449E-01    0.133E-01
DAV:  11    -0.327849924239E+02   -0.39925E-03   -0.77179E-04   248   0.234E-01    0.464E-02
DAV:  12    -0.327850294132E+02   -0.36989E-04   -0.12903E-04   230   0.901E-02
   1 F= -.32785029E+02 E0= -.32785431E+02  d E =0.120449E-02  mag=     0.0252
