 vasp.5.2.12 11Nov11 complex                                                    
  
 executed on             LinuxIFC date 2012.10.17  09:39:30
 running on    1 nodes
 distr:  one band on    1 nodes,    1 groups


--------------------------------------------------------------------------------------------------------


 INCAR:
 POTCAR:   PAW_PBE C 08Apr2002                    
 POTCAR:   PAW_PBE C 08Apr2002                    
   VRHFIN =C: s2p2                                                              
   LEXCH  = PE                                                                  
   EATOM  =   147.1560 eV,   10.8157 Ry                                         
                                                                                
   TITEL  = PAW_PBE C 08Apr2002                                                 
   LULTRA =        F    use ultrasoft PP ?                                      
   IUNSCR =        0    unscreen: 0-lin 1-nonlin 2-no                           
   RPACOR =     .000    partial core radius                                     
   POMASS =   12.011; ZVAL   =    4.000    mass and valenz                      
   RCORE  =    1.500    outmost cutoff radius                                   
   RWIGS  =    1.630; RWIGS  =     .863    wigner-seitz radius (au A)           
   ENMAX  =  400.000; ENMIN  =  300.000 eV                                      
   ICORE  =        2    local potential                                         
   LCOR   =        T    correct aug charges                                     
   LPAW   =        T    paw PP                                                  
   EAUG   =  644.873                                                            
   DEXC   =     .000                                                            
   RMAX   =    2.266    core radius for proj-oper                               
   RAUG   =    1.300    factor for augmentation sphere                          
   RDEP   =    1.501    radius for radial grids                                 
   RDEPT  =    1.300    core radius for aug-charge                              
   QCUT   =   -5.516; QGAM   =   11.032    optimization parameters              
                                                                                
   Description                                                                  
     l     E      TYP  RCUT    TYP  RCUT                                        
     0   .000     23  1.200                                                     
     0   .000     23  1.200                                                     
     1   .000     23  1.500                                                     
     1  2.500     23  1.500                                                     
     2   .000      7  1.500                                                     
  local pseudopotential read in
  atomic valenz-charges read in
  non local Contribution for L=           0  read in
    real space projection operators read in
  non local Contribution for L=           0  read in
    real space projection operators read in
  non local Contribution for L=           1  read in
    real space projection operators read in
  non local Contribution for L=           1  read in
    real space projection operators read in
    PAW grid and wavefunctions read in
 
   number of l-projection  operators is LMAX  =           4
   number of lm-projection operators is LMMAX =           8
 
 PAW_PBE C 08Apr2002                    :
 energy of atom  1       EATOM= -147.1560
 kinetic energy error for atom=    0.0854 (will be added to EATOM!!)
 
 
 POSCAR:  C                                      
  positions in cartesian coordinates
  No initial velocities read in
 exchange correlation table for  LEXCH =        8
   RHO(1)=    0.500       N(1)  =     2000
   RHO(2)=  100.500       N(2)  =     4000
 


--------------------------------------------------------------------------------------------------------


 ion  position               nearest neighbor table
   1  0.000  0.000  0.000-   2 1.42   2 1.42   2 1.42
   2  0.333  0.667  0.000-   1 1.42   1 1.42   1 1.42
   3  0.333  0.667  0.500-   4 1.42   4 1.42   4 1.42
   4  0.667  0.333  0.500-   3 1.42   3 1.42   3 1.42
 
  LATTYP: Found a hexagonal cell.
 ALAT       =     2.4612000000
 C/A-ratio  =     2.7254591256
  
  Lattice vectors:
  
 A1 = (   2.4612000000,   0.0000000000,   0.0000000000)
 A2 = (  -1.2306000000,   2.1314617238,   0.0000000000)
 A3 = (   0.0000000000,   0.0000000000,   6.7079000000)
 Subroutine PRICEL returns:
 Original cell was already a primitive cell.
 

Analysis of symmetry for initial positions (statically):

 Routine SETGRP: Setting up the symmetry group for a 
 hexagonal supercell.


 Subroutine GETGRP returns: Found 24 space group operations
 (whereof 12 operations were pure point group operations)
 out of a pool of 24 trial point group operations.


The static configuration has the point symmetry D_3h.
 The point group associated with its full space group is D_6h.

Analysis of symmetry for dynamics (positions and initial velocities):

 Subroutine DYNSYM returns: Found 24 space group operations
 (whereof 12 operations were pure point group operations)
 out of a pool of 24 trial space group operations
 (whereof 12 operations were pure point group operations)
 and found also     1 'primitive' translations


The dynamic configuration has the point symmetry D_3h.
 The point group associated with its full space group is D_6h.

Analysis of magnetic symmetry:

 Subroutine MAGSYM returns: Found 24 space group operations
 (whereof 12 operations were pure point group operations)
 out of a pool of 24 trial space group operations
 (whereof 12 operations were pure point group operations)
 and found also     1 'primitive' translations


The magnetic configuration has the point symmetry D_3h.
 The point group associated with its full space group is D_6h.
 
 
 KPOINTS: KPOINTS created by Atomic Simulation Env

Automatic generation of k-mesh.
 
 Subroutine IBZKPT returns following result:
 ===========================================
 
 Found      4 irreducible k-points:
 
 Following reciprocal coordinates:
            Coordinates               Weight
  0.000000  0.000000  0.000000      1.000000
  0.500000  0.000000  0.000000      3.000000
  0.000000  0.000000  0.500000      1.000000
  0.500000  0.000000  0.500000      3.000000
 
 Following cartesian coordinates:
            Coordinates               Weight
  0.000000  0.000000  0.000000      1.000000
  0.203153  0.117290  0.000000      3.000000
  0.000000  0.000000  0.074539      1.000000
  0.203153  0.117290  0.074539      3.000000
 


--------------------------------------------------------------------------------------------------------




 Dimension of arrays:
   k-points           NKPTS =      4   k-points in BZ     NKDIM =      4   number of bands    NBANDS=     14
   number of dos      NEDOS =    301   number of ions     NIONS =      4
   non local maximal  LDIM  =      4   non local SUM 2l+1 LMDIM =      8
   total plane-waves  NPLWV =  10752
   max r-space proj   IRMAX =      1   max aug-charges    IRDMAX=   3805
   dimension x,y,z NGX =    16 NGY =   16 NGZ =   42
   dimension x,y,z NGXF=    32 NGYF=   32 NGZF=   84
   support grid    NGXF=    32 NGYF=   32 NGZF=   84
   ions per type =               4
 NGX,Y,Z   is equivalent  to a cutoff of  10.81, 10.81, 10.41 a.u.
 NGXF,Y,Z  is equivalent  to a cutoff of  21.61, 21.61, 20.82 a.u.


 I would recommend the setting:
   dimension x,y,z NGX =    15 NGY =   15 NGZ =   41
 SYSTEM =  unknown system                          
 POSCAR =   C                                      

 Startparameter for this run:
   NWRITE =      2    write-flag & timer
   PREC   = accura    normal or accurate (medium, high low for compatibility)
   ISTART =      0    job   : 0-new  1-cont  2-samecut
   ICHARG =      2    charge: 1-file 2-atom 10-const
   ISPIN  =      2    spin polarized calculation?
   LNONCOLLINEAR =      F non collinear calculations
   LSORBIT =      F    spin-orbit coupling
   INIWAV =      1    electr: 0-lowe 1-rand  2-diag
   LASPH  =      F    aspherical Exc in radial PAW
   METAGGA=      F    non-selfconsistent MetaGGA calc.

 Electronic Relaxation 1
   ENCUT  =  350.0 eV  25.72 Ry    5.07 a.u.   3.75  3.75 10.23*2*pi/ulx,y,z
   ENINI  =  350.0     initial cutoff
   ENAUG  =  644.9 eV  augmentation charge cutoff
   NELM   =     60;   NELMIN=  2; NELMDL= -5     # of ELM steps 
   EDIFF  = 0.1E-03   stopping-criterion for ELM
   LREAL  =      F    real-space projection
   NLSPLINE    = F    spline interpolate recip. space projectors
   LCOMPAT=      F    compatible to vasp.4.4
   GGA_COMPAT  = T    GGA compatible to vasp.4.4-vasp.4.6
   LMAXPAW     = -100 max onsite density
   LMAXMIX     =    2 max onsite mixed and CHGCAR
   VOSKOWN=      0    Vosko Wilk Nusair interpolation
   ROPT   =    0.00000
 Ionic relaxation
   EDIFFG = 0.1E-02   stopping-criterion for IOM
   NSW    =      0    number of steps for IOM
   NBLOCK =      1;   KBLOCK =      1    inner block; outer block 
   IBRION =     -1    ionic relax: 0-MD 1-quasi-New 2-CG
   NFREE  =      0    steps in history (QN), initial steepest desc. (CG)
   ISIF   =      2    stress and relaxation
   IWAVPR =     10    prediction:  0-non 1-charg 2-wave 3-comb
   ISYM   =      2    0-nonsym 1-usesym 2-fastsym
   LCORR  =      T    Harris-Foulkes like correction to forces

   POTIM  = 0.5000    time-step for ionic-motion
   TEIN   =    0.0    initial temperature
   TEBEG  =    0.0;   TEEND  =   0.0 temperature during run
   SMASS  =  -3.00    Nose mass-parameter (am)
   estimated Nose-frequenzy (Omega)   =  0.10E-29 period in steps =****** mass=  -0.138E-27a.u.
   SCALEE = 1.0000    scale energy and forces
   NPACO  =    256;   APACO  = 16.0  distance and # of slots for P.C.
   PSTRESS=    0.0 pullay stress

  Mass of Ions in am
   POMASS =  12.01
  Ionic Valenz
   ZVAL   =   4.00
  Atomic Wigner-Seitz radii
   RWIGS  =  -1.00
  virtual crystal weights 
   VCA    =   1.00
   NELECT =      16.0000    total number of electrons
   NUPDOWN=      -1.0000    fix difference up-down

 DOS related values:
   EMIN   =  10.00;   EMAX   =-10.00  energy-range for DOS
   EFERMI =   0.00
   ISMEAR =     1;   SIGMA  =   0.05  broadening in eV -4-tet -1-fermi 0-gaus

 Electronic relaxation 2 (details)
   IALGO  =     38    algorithm
   LDIAG  =      T    sub-space diagonalisation (order eigenvalues)
   LSUBROT=      T    optimize rotation matrix (better conditioning)
   TURBO    =      0    0=normal 1=particle mesh
   IRESTART =      0    0=no restart 2=restart with 2 vectors
   NREBOOT  =      0    no. of reboots
   NMIN     =      0    reboot dimension
   EREF     =   0.00    reference energy to select bands
   IMIX   =      4    mixing-type and parameters
     AMIX     =   0.40;   BMIX     =  1.00
     AMIX_MAG =   1.60;   BMIX_MAG =  1.00
     AMIN     =   0.10
     WC   =   100.;   INIMIX=   1;  MIXPRE=   1

 Intra band minimization:
   WEIMIN = 0.0000     energy-eigenvalue tresh-hold
   EBREAK =  0.18E-05  absolut break condition
   DEPER  =   0.30     relativ break condition  

   TIME   =   0.40     timestep for ELM

  volume/ion in A,a.u.               =       8.80        59.37
  Fermi-wavevector in a.u.,A,eV,Ry     =   1.258861  2.378903 21.561578  1.584731
  Thomas-Fermi vector in A             =   2.392450
 
 Write flags
   LWAVE  =      T    write WAVECAR
   LCHARG =      T    write CHGCAR
   LVTOT  =      F    write LOCPOT, total local potential
   LVHAR  =      F    write LOCPOT, Hartree potential only
   LELF   =      F    write electronic localiz. function (ELF)
   LORBIT =     11    0 simple, 1 ext, 2 COOP (PROOUT)


 Dipole corrections
   LMONO  =      F    monopole corrections only (constant potential shift)
   LDIPOL =      F    correct potential (dipole corrections)
   IDIPOL =      0    1-x, 2-y, 3-z, 4-all directions 
   EPSILON=  1.0000000 bulk dielectric constant

 Exchange correlation treatment:
   GGA     =    --    GGA type
   LEXCH   =     8    internal setting for exchange type
   VOSKOWN=      0    Vosko Wilk Nusair interpolation
   LHFCALC =     F    Hartree Fock is set to
   LHFONE  =     F    Hartree Fock one center treatment
   AEXX    =    0.0000 exact exchange contribution

 Linear response parameters
   LEPSILON=     F    determine dielectric tensor
   LRPA    =     F    only Hartree local field effects (RPA)
   LNABLA  =     F    use nabla operator in PAW spheres
   LVEL    =     F    velocity operator in full k-point grid
   LINTERFAST=   F  fast interpolation
   KINTER  =     0    interpolate to denser k-point grid
   CSHIFT  =0.1000    complex shift for real part using Kramers Kronig
   OMEGAMAX=  -1.0    maximum frequency
   RTIME   =    0.100 relaxation time in fs

 Orbital magnetization related:
   ORBITALMAG=     F  switch on orbital magnetization
   LCHIMAG   =     F  perturbation theory with respect to B field
   DQ        =  0.001000  dq finite difference perturbation B field



--------------------------------------------------------------------------------------------------------


 Static calculation
 charge density and potential will be updated during run
 spin polarized calculation
 Variant of blocked Davidson
 Davidson routine will perform the subspace rotation
 perform sub-space diagonalisation
    after iterative eigenvector-optimisation
 modified Broyden-mixing scheme, WC =      100.0
 initial mixing is a Kerker type mixing with AMIX =  0.4000 and BMIX =      1.0000
 Hartree-type preconditioning will be used
 using additional bands            6
 reciprocal scheme for non local part
 calculate Harris-corrections to forces 
   (improved forces if not selfconsistent)
 use gradient corrections 
 use of overlap-Matrix (Vanderbilt PP)
 Methfessel and Paxton  Order N= 1 SIGMA  =   0.05


--------------------------------------------------------------------------------------------------------


  energy-cutoff  :      350.00
  volume of cell :       35.19
      direct lattice vectors                 reciprocal lattice vectors
     2.461200000  0.000000000  0.000000000     0.406305867  0.234580802  0.000000000
    -1.230600000  2.131461724  0.000000000     0.000000000  0.469161603  0.000000000
     0.000000000  0.000000000  6.707900000     0.000000000  0.000000000  0.149077953

  length of vectors
     2.461200000  2.461200000  6.707900000     0.469161603  0.469161603  0.149077953


 
 k-points in units of 2pi/SCALE and weight: KPOINTS created by Atomic Simulation Env
   0.00000000  0.00000000  0.00000000       0.125
   0.20315293  0.11729040  0.00000000       0.375
   0.00000000  0.00000000  0.07453898       0.125
   0.20315293  0.11729040  0.07453898       0.375
 
 k-points in reciprocal lattice and weights: KPOINTS created by Atomic Simulation Env
   0.00000000  0.00000000  0.00000000       0.125
   0.50000000  0.00000000  0.00000000       0.375
   0.00000000  0.00000000  0.50000000       0.125
   0.50000000  0.00000000  0.50000000       0.375
 
 position of ions in fractional coordinates (direct lattice) 
   0.00000000  0.00000000  0.00000000
   0.33333333  0.66666667  0.00000000
   0.33333333  0.66666667  0.50000000
   0.66666667  0.33333333  0.50000000
 
 position of ions in cartesian coordinates  (Angst):
   0.00000000  0.00000000  0.00000000
   0.00000000  1.42097448  0.00000000
   0.00000000  1.42097448  3.35395000
   1.23060000  0.71048724  3.35395000
 


--------------------------------------------------------------------------------------------------------


 k-point  1 :  0.00000.00000.0000  plane waves:     513
 k-point  2 :  0.50000.00000.0000  plane waves:     526
 k-point  3 :  0.00000.00000.5000  plane waves:     536
 k-point  4 :  0.50000.00000.5000  plane waves:     528

 maximum and minimum number of plane-waves per node :       536      513

 maximum number of plane-waves:       536
 maximum index in each direction: 
   IXMAX=    3   IYMAX=    3   IZMAX=   10
   IXMIN=   -4   IYMIN=   -3   IZMIN=  -10

 NGX is ok and might be reduce to  16
 NGY is ok and might be reduce to  14
 NGZ is ok and might be reduce to  42

 serial   3D FFT for wavefunctions
 parallel 3D FFT for charge:
    minimum data exchange during FFTs selected (reduces bandwidth)


 total amount of memory used by VASP on root node    41384. kBytes
========================================================================

   base      :      30000. kBytes
   nonl-proj :        171. kBytes
   fftplans  :       2996. kBytes
   grid      :       7176. kBytes
   one-center:         24. kBytes
   wavefun   :       1017. kBytes
 
 Broyden mixing: mesh for mixing (old mesh)
   NGX =  7   NGY =  7   NGZ = 21
  (NGX  = 32   NGY  = 32   NGZ  = 84)
  gives a total of   1029 points

 initial charge density was supplied:
 charge density of overlapping atoms calculated
 number of electron      16.0000000 magnetization       4.0000000
 keeping initial charge density in first step


--------------------------------------------------------------------------------------------------------


 Maximum index for augmentation-charges         3509 (set IRDMAX)


--------------------------------------------------------------------------------------------------------


 First call to EWALD:  gamma=   0.541
 Maximum number of real-space cells 4x 4x 2
 Maximum number of reciprocal cells 2x 2x 5

    FEWALD:  cpu time    0.00: real time    0.00


----------------------------------------- Iteration    1(   1)  ---------------------------------------


    POTLOK:  cpu time    0.30: real time    0.30
    SETDIJ:  cpu time    0.04: real time    0.04
     EDDAV:  cpu time    0.42: real time    0.43
       DOS:  cpu time    0.00: real time    0.00
    --------------------------------------------
      LOOP:  cpu time    0.77: real time    0.77

 eigenvalue-minimisations  :   224
 total energy-change (2. order) : 0.2166182E+02  (-0.6619857E+03)
 number of electron      16.0000000 magnetization       4.0000000
 augmentation part       16.0000000 magnetization       4.0000000

 Free energy of the ion-electron system (eV)
  ---------------------------------------------------
  alpha Z        PSCENC =        37.04766603
  Ewald energy   TEWEN  =      -460.60042082
  -1/2 Hartree   DENC   =      -148.78490797
  -exchange  EXHF       =         0.00000000
  -V(xc)+E(xc)   XCENC  =        56.10990993
  PAW double counting   =       150.95130483     -155.51722924
  entropy T*S    EENTRO =        -0.00159114
  eigenvalues    EBANDS =       -45.82537649
  atomic energy  EATOM  =       588.28246388
  ---------------------------------------------------
  free energy    TOTEN  =        21.66181900 eV

  energy without entropy =       21.66341014  energy(sigma->0) =       21.66234938


--------------------------------------------------------------------------------------------------------




----------------------------------------- Iteration    1(   2)  ---------------------------------------


     EDDAV:  cpu time    0.53: real time    0.53
       DOS:  cpu time    0.00: real time    0.00
    --------------------------------------------
      LOOP:  cpu time    0.53: real time    0.54

 eigenvalue-minimisations  :   302
 total energy-change (2. order) :-0.5388934E+02  (-0.4833680E+02)
 number of electron      16.0000000 magnetization       4.0000000
 augmentation part       16.0000000 magnetization       4.0000000

 Free energy of the ion-electron system (eV)
  ---------------------------------------------------
  alpha Z        PSCENC =        37.04766603
  Ewald energy   TEWEN  =      -460.60042082
  -1/2 Hartree   DENC   =      -148.78490797
  -exchange  EXHF       =         0.00000000
  -V(xc)+E(xc)   XCENC  =        56.10990993
  PAW double counting   =       150.95130483     -155.51722924
  entropy T*S    EENTRO =         0.00054355
  eigenvalues    EBANDS =       -99.71685031
  atomic energy  EATOM  =       588.28246388
  ---------------------------------------------------
  free energy    TOTEN  =       -32.22752012 eV

  energy without entropy =      -32.22806367  energy(sigma->0) =      -32.22770130


--------------------------------------------------------------------------------------------------------




----------------------------------------- Iteration    1(   3)  ---------------------------------------


     EDDAV:  cpu time    0.60: real time    0.60
       DOS:  cpu time    0.00: real time    0.00
    --------------------------------------------
      LOOP:  cpu time    0.61: real time    0.92

 eigenvalue-minimisations  :   320
 total energy-change (2. order) :-0.1736103E+01  (-0.1730519E+01)
 number of electron      16.0000000 magnetization       4.0000000
 augmentation part       16.0000000 magnetization       4.0000000

 Free energy of the ion-electron system (eV)
  ---------------------------------------------------
  alpha Z        PSCENC =        37.04766603
  Ewald energy   TEWEN  =      -460.60042082
  -1/2 Hartree   DENC   =      -148.78490797
  -exchange  EXHF       =         0.00000000
  -V(xc)+E(xc)   XCENC  =        56.10990993
  PAW double counting   =       150.95130483     -155.51722924
  entropy T*S    EENTRO =         0.00054355
  eigenvalues    EBANDS =      -101.45295284
  atomic energy  EATOM  =       588.28246388
  ---------------------------------------------------
  free energy    TOTEN  =       -33.96362265 eV

  energy without entropy =      -33.96416620  energy(sigma->0) =      -33.96380383


--------------------------------------------------------------------------------------------------------




----------------------------------------- Iteration    1(   4)  ---------------------------------------


     EDDAV:  cpu time    0.51: real time    0.51
       DOS:  cpu time    0.00: real time    0.00
    --------------------------------------------
      LOOP:  cpu time    0.51: real time    0.52

 eigenvalue-minimisations  :   256
 total energy-change (2. order) :-0.1507022E-01  (-0.1506892E-01)
 number of electron      16.0000000 magnetization       4.0000000
 augmentation part       16.0000000 magnetization       4.0000000

 Free energy of the ion-electron system (eV)
  ---------------------------------------------------
  alpha Z        PSCENC =        37.04766603
  Ewald energy   TEWEN  =      -460.60042082
  -1/2 Hartree   DENC   =      -148.78490797
  -exchange  EXHF       =         0.00000000
  -V(xc)+E(xc)   XCENC  =        56.10990993
  PAW double counting   =       150.95130483     -155.51722924
  entropy T*S    EENTRO =         0.00054355
  eigenvalues    EBANDS =      -101.46802306
  atomic energy  EATOM  =       588.28246388
  ---------------------------------------------------
  free energy    TOTEN  =       -33.97869287 eV

  energy without entropy =      -33.97923642  energy(sigma->0) =      -33.97887405


--------------------------------------------------------------------------------------------------------




----------------------------------------- Iteration    1(   5)  ---------------------------------------


     EDDAV:  cpu time    0.58: real time    0.58
       DOS:  cpu time    0.00: real time    0.00
    CHARGE:  cpu time    0.06: real time    0.06
    MIXING:  cpu time    0.01: real time    0.01
    --------------------------------------------
      LOOP:  cpu time    0.65: real time    0.66

 eigenvalue-minimisations  :   308
 total energy-change (2. order) :-0.3087684E-03  (-0.3087596E-03)
 number of electron      15.9999998 magnetization       1.0090104
 augmentation part        0.4777434 magnetization       1.0100630

 Broyden mixing:
  rms(total) = 0.12854E+01    rms(broyden)= 0.12848E+01
  rms(prec ) = 0.16777E+01
  weight for this iteration     100.00

 Free energy of the ion-electron system (eV)
  ---------------------------------------------------
  alpha Z        PSCENC =        37.04766603
  Ewald energy   TEWEN  =      -460.60042082
  -1/2 Hartree   DENC   =      -148.78490797
  -exchange  EXHF       =         0.00000000
  -V(xc)+E(xc)   XCENC  =        56.10990993
  PAW double counting   =       150.95130483     -155.51722924
  entropy T*S    EENTRO =         0.00054355
  eigenvalues    EBANDS =      -101.46833183
  atomic energy  EATOM  =       588.28246388
  ---------------------------------------------------
  free energy    TOTEN  =       -33.97900164 eV

  energy without entropy =      -33.97954519  energy(sigma->0) =      -33.97918282


--------------------------------------------------------------------------------------------------------




----------------------------------------- Iteration    1(   6)  ---------------------------------------


    POTLOK:  cpu time    0.31: real time    0.31
    SETDIJ:  cpu time    0.04: real time    0.04
     EDDAV:  cpu time    0.47: real time    0.47
       DOS:  cpu time    0.00: real time    0.00
    CHARGE:  cpu time    0.06: real time    0.06
    MIXING:  cpu time    0.01: real time    0.01
    --------------------------------------------
      LOOP:  cpu time    0.89: real time    0.90

 eigenvalue-minimisations  :   248
 total energy-change (2. order) : 0.1151013E+01  (-0.2462950E+00)
 number of electron      15.9999998 magnetization       0.0198527
 augmentation part        0.4619449 magnetization       0.0134923

 Broyden mixing:
  rms(total) = 0.52317E+00    rms(broyden)= 0.52308E+00
  rms(prec ) = 0.77452E+00
  weight for this iteration     100.00

 eigenvalues of (default mixing * dielectric matrix)
  average eigenvalue GAMMA=   0.9583
  0.9583

 Free energy of the ion-electron system (eV)
  ---------------------------------------------------
  alpha Z        PSCENC =        37.04766603
  Ewald energy   TEWEN  =      -460.60042082
  -1/2 Hartree   DENC   =      -166.68355486
  -exchange  EXHF       =         0.00000000
  -V(xc)+E(xc)   XCENC  =        56.94003766
  PAW double counting   =       209.15384376     -214.12710984
  entropy T*S    EENTRO =         0.00054355
  eigenvalues    EBANDS =       -82.84145785
  atomic energy  EATOM  =       588.28246388
  ---------------------------------------------------
  free energy    TOTEN  =       -32.82798849 eV

  energy without entropy =      -32.82853205  energy(sigma->0) =      -32.82816968


--------------------------------------------------------------------------------------------------------




----------------------------------------- Iteration    1(   7)  ---------------------------------------


    POTLOK:  cpu time    0.31: real time    0.31
    SETDIJ:  cpu time    0.04: real time    0.04
     EDDAV:  cpu time    0.47: real time    0.47
       DOS:  cpu time    0.00: real time    0.00
    CHARGE:  cpu time    0.06: real time    0.06
    MIXING:  cpu time    0.01: real time    0.01
    --------------------------------------------
      LOOP:  cpu time    0.90: real time    0.92

 eigenvalue-minimisations  :   230
 total energy-change (2. order) : 0.7947605E-02  (-0.1722929E+00)
 number of electron      15.9999999 magnetization      -0.1717810
 augmentation part        0.4487570 magnetization      -0.1555365

 Broyden mixing:
  rms(total) = 0.20903E+00    rms(broyden)= 0.20896E+00
  rms(prec ) = 0.29407E+00
  weight for this iteration     100.00

 eigenvalues of (default mixing * dielectric matrix)
  average eigenvalue GAMMA=   1.2122
  0.8315  1.5928

 Free energy of the ion-electron system (eV)
  ---------------------------------------------------
  alpha Z        PSCENC =        37.04766603
  Ewald energy   TEWEN  =      -460.60042082
  -1/2 Hartree   DENC   =      -179.91966264
  -exchange  EXHF       =         0.00000000
  -V(xc)+E(xc)   XCENC  =        57.48522260
  PAW double counting   =       255.82290289     -261.01010910
  entropy T*S    EENTRO =         0.00113289
  eigenvalues    EBANDS =       -69.92923662
  atomic energy  EATOM  =       588.28246388
  ---------------------------------------------------
  free energy    TOTEN  =       -32.82004089 eV

  energy without entropy =      -32.82117378  energy(sigma->0) =      -32.82041852


--------------------------------------------------------------------------------------------------------




----------------------------------------- Iteration    1(   8)  ---------------------------------------


    POTLOK:  cpu time    0.31: real time    0.31
    SETDIJ:  cpu time    0.04: real time    0.04
     EDDAV:  cpu time    0.53: real time    0.53
       DOS:  cpu time    0.00: real time    0.00
    CHARGE:  cpu time    0.06: real time    0.06
    MIXING:  cpu time    0.01: real time    0.01
    --------------------------------------------
      LOOP:  cpu time    0.95: real time    0.96

 eigenvalue-minimisations  :   266
 total energy-change (2. order) : 0.5099841E-01  (-0.3152721E-01)
 number of electron      15.9999999 magnetization      -0.0538881
 augmentation part        0.4424119 magnetization      -0.0313018

 Broyden mixing:
  rms(total) = 0.71847E-01    rms(broyden)= 0.71773E-01
  rms(prec ) = 0.84665E-01
  weight for this iteration     100.00

 eigenvalues of (default mixing * dielectric matrix)
  average eigenvalue GAMMA=   1.2035
  1.8620  0.9747  0.7738

 Free energy of the ion-electron system (eV)
  ---------------------------------------------------
  alpha Z        PSCENC =        37.04766603
  Ewald energy   TEWEN  =      -460.60042082
  -1/2 Hartree   DENC   =      -186.53923935
  -exchange  EXHF       =         0.00000000
  -V(xc)+E(xc)   XCENC  =        57.93838281
  PAW double counting   =       281.99043427     -287.25241799
  entropy T*S    EENTRO =         0.00115155
  eigenvalues    EBANDS =       -63.63706285
  atomic energy  EATOM  =       588.28246388
  ---------------------------------------------------
  free energy    TOTEN  =       -32.76904247 eV

  energy without entropy =      -32.77019402  energy(sigma->0) =      -32.76942632


--------------------------------------------------------------------------------------------------------




----------------------------------------- Iteration    1(   9)  ---------------------------------------


    POTLOK:  cpu time    0.31: real time    0.31
    SETDIJ:  cpu time    0.04: real time    0.04
     EDDAV:  cpu time    0.45: real time    0.45
       DOS:  cpu time    0.00: real time    0.00
    CHARGE:  cpu time    0.06: real time    0.06
    MIXING:  cpu time    0.01: real time    0.01
    --------------------------------------------
      LOOP:  cpu time    0.87: real time    0.89

 eigenvalue-minimisations  :   236
 total energy-change (2. order) :-0.1413432E-01  (-0.2238048E-02)
 number of electron      15.9999999 magnetization       0.0132245
 augmentation part        0.4411274 magnetization       0.0195893

 Broyden mixing:
  rms(total) = 0.36239E-01    rms(broyden)= 0.36230E-01
  rms(prec ) = 0.43109E-01
  weight for this iteration     100.00

 eigenvalues of (default mixing * dielectric matrix)
  average eigenvalue GAMMA=   1.2824
  2.1680  1.4148  0.8657  0.6809

 Free energy of the ion-electron system (eV)
  ---------------------------------------------------
  alpha Z        PSCENC =        37.04766603
  Ewald energy   TEWEN  =      -460.60042082
  -1/2 Hartree   DENC   =      -187.13686528
  -exchange  EXHF       =         0.00000000
  -V(xc)+E(xc)   XCENC  =        57.97498799
  PAW double counting   =       286.00938135     -291.25114031
  entropy T*S    EENTRO =         0.00078121
  eigenvalues    EBANDS =       -63.11003084
  atomic energy  EATOM  =       588.28246388
  ---------------------------------------------------
  free energy    TOTEN  =       -32.78317680 eV

  energy without entropy =      -32.78395801  energy(sigma->0) =      -32.78343720


--------------------------------------------------------------------------------------------------------




----------------------------------------- Iteration    1(  10)  ---------------------------------------


    POTLOK:  cpu time    0.31: real time    0.31
    SETDIJ:  cpu time    0.04: real time    0.04
     EDDAV:  cpu time    0.51: real time    0.51
       DOS:  cpu time    0.00: real time    0.00
    CHARGE:  cpu time    0.06: real time    0.06
    MIXING:  cpu time    0.01: real time    0.01
    --------------------------------------------
      LOOP:  cpu time    0.93: real time    0.95

 eigenvalue-minimisations  :   254
 total energy-change (2. order) :-0.1416378E-02  (-0.2146751E-03)
 number of electron      15.9999999 magnetization       0.0275685
 augmentation part        0.4410919 magnetization       0.0136366

 Broyden mixing:
  rms(total) = 0.13266E-01    rms(broyden)= 0.13256E-01
  rms(prec ) = 0.15991E-01
  weight for this iteration     100.00

 eigenvalues of (default mixing * dielectric matrix)
  average eigenvalue GAMMA=   1.2647
  2.3091  1.6186  0.8648  0.8648  0.6661

 Free energy of the ion-electron system (eV)
  ---------------------------------------------------
  alpha Z        PSCENC =        37.04766603
  Ewald energy   TEWEN  =      -460.60042082
  -1/2 Hartree   DENC   =      -187.29981339
  -exchange  EXHF       =         0.00000000
  -V(xc)+E(xc)   XCENC  =        57.99197784
  PAW double counting   =       287.87650465     -293.09665118
  entropy T*S    EENTRO =         0.00112144
  eigenvalues    EBANDS =       -62.98744162
  atomic energy  EATOM  =       588.28246388
  ---------------------------------------------------
  free energy    TOTEN  =       -32.78459317 eV

  energy without entropy =      -32.78571462  energy(sigma->0) =      -32.78496699


--------------------------------------------------------------------------------------------------------




----------------------------------------- Iteration    1(  11)  ---------------------------------------


    POTLOK:  cpu time    0.31: real time    0.31
    SETDIJ:  cpu time    0.04: real time    0.04
     EDDAV:  cpu time    0.50: real time    0.50
       DOS:  cpu time    0.00: real time    0.00
    CHARGE:  cpu time    0.06: real time    0.06
    MIXING:  cpu time    0.01: real time    0.01
    --------------------------------------------
      LOOP:  cpu time    0.92: real time    0.93

 eigenvalue-minimisations  :   248
 total energy-change (2. order) :-0.3992502E-03  (-0.7717878E-04)
 number of electron      15.9999999 magnetization       0.0294250
 augmentation part        0.4411288 magnetization       0.0047113

 Broyden mixing:
  rms(total) = 0.46433E-02    rms(broyden)= 0.46187E-02
  rms(prec ) = 0.54314E-02
  weight for this iteration     100.00

 eigenvalues of (default mixing * dielectric matrix)
  average eigenvalue GAMMA=   1.3138
  2.4932  1.9243  1.1608  0.9169  0.7572  0.6300

 Free energy of the ion-electron system (eV)
  ---------------------------------------------------
  alpha Z        PSCENC =        37.04766603
  Ewald energy   TEWEN  =      -460.60042082
  -1/2 Hartree   DENC   =      -187.31911182
  -exchange  EXHF       =         0.00000000
  -V(xc)+E(xc)   XCENC  =        57.99640736
  PAW double counting   =       288.33191176     -293.54169781
  entropy T*S    EENTRO =         0.00120320
  eigenvalues    EBANDS =       -62.98341421
  atomic energy  EATOM  =       588.28246388
  ---------------------------------------------------
  free energy    TOTEN  =       -32.78499242 eV

  energy without entropy =      -32.78619563  energy(sigma->0) =      -32.78539349


--------------------------------------------------------------------------------------------------------




----------------------------------------- Iteration    1(  12)  ---------------------------------------


    POTLOK:  cpu time    0.31: real time    0.31
    SETDIJ:  cpu time    0.04: real time    0.04
     EDDAV:  cpu time    0.47: real time    0.47
       DOS:  cpu time    0.00: real time    0.00
    --------------------------------------------
      LOOP:  cpu time    0.83: real time    0.84

 eigenvalue-minimisations  :   230
 total energy-change (2. order) :-0.3698931E-04  (-0.1290272E-04)
 number of electron      15.9999999 magnetization       0.0294250
 augmentation part        0.4411288 magnetization       0.0047113

 Free energy of the ion-electron system (eV)
  ---------------------------------------------------
  alpha Z        PSCENC =        37.04766603
  Ewald energy   TEWEN  =      -460.60042082
  -1/2 Hartree   DENC   =      -187.32434662
  -exchange  EXHF       =         0.00000000
  -V(xc)+E(xc)   XCENC  =        57.99781435
  PAW double counting   =       288.34743558     -293.55458716
  entropy T*S    EENTRO =         0.00120449
  eigenvalues    EBANDS =       -62.98225914
  atomic energy  EATOM  =       588.28246388
  ---------------------------------------------------
  free energy    TOTEN  =       -32.78502941 eV

  energy without entropy =      -32.78623390  energy(sigma->0) =      -32.78543091


--------------------------------------------------------------------------------------------------------




 average (electrostatic) potential at core
  the test charge radii are     0.6991
  (the norm of the test charge is              1.0000)
       1 -50.2398       2 -50.3061       3 -50.3061       4 -50.2398
 
 
 
 E-fermi :   2.8556     XC(G=0): -10.2525     alpha+bet :-11.4114


 spin component 1

 k-point   1 :       0.0000    0.0000    0.0000
  band No.  band energies     occupation 
      1     -14.7824      1.00000
      2     -14.4744      1.00000
      3      -3.7112      1.00000
      4      -1.7060      1.00000
      5       2.0281      1.00000
      6       2.0282      1.00000
      7       2.0338      1.00000
      8       2.0339      1.00000
      9       8.9822      0.00000
     10      13.3594      0.00000
     11      13.3595      0.00000
     12      13.4239      0.00000
     13      13.4240      0.00000
     14      15.3912      0.00000

 k-point   2 :       0.5000    0.0000    0.0000
  band No.  band energies     occupation 
      1      -9.3977      1.00000
      2      -9.2834      1.00000
      3      -8.3428      1.00000
      4      -8.2574      1.00000
      5      -1.4371      1.00000
      6      -1.3778      1.00000
      7       2.0818      1.00000
      8       2.7914      1.03496
      9       6.4016      0.00000
     10       7.0846      0.00000
     11      12.1566      0.00000
     12      12.5657      0.00000
     13      16.0251      0.00000
     14      16.1884      0.00000

 k-point   3 :       0.0000    0.0000    0.5000
  band No.  band energies     occupation 
      1     -14.6338      1.00000
      2     -14.6338      1.00000
      3      -2.8137      1.00000
      4      -2.8137      1.00000
      5       2.0202      1.00000
      6       2.0202      1.00000
      7       2.0203      1.00000
      8       2.0203      1.00000
      9      11.6619      0.00000
     10      11.6619      0.00000
     11      13.3701      0.00000
     12      13.3701      0.00000
     13      13.3702      0.00000
     14      13.3702      0.00000

 k-point   4 :       0.5000    0.0000    0.5000
  band No.  band energies     occupation 
      1      -9.3354      1.00000
      2      -9.3354      1.00000
      3      -8.3116      1.00000
      4      -8.3115      1.00000
      5      -1.4029      1.00000
      6      -1.4029      1.00000
      7       2.5048      1.00000
      8       2.5048      1.00000
      9       6.5373      0.00000
     10       6.5373      0.00000
     11      12.3534      0.00000
     12      12.3534      0.00000
     13      17.4205      0.00000
     14      17.4205      0.00000

 spin component 2

 k-point   1 :       0.0000    0.0000    0.0000
  band No.  band energies     occupation 
      1     -14.7719      1.00000
      2     -14.4642      1.00000
      3      -3.6897      1.00000
      4      -1.6821      1.00000
      5       2.0331      1.00000
      6       2.0332      1.00000
      7       2.0387      1.00000
      8       2.0388      1.00000
      9       8.9935      0.00000
     10      13.3645      0.00000
     11      13.3645      0.00000
     12      13.4288      0.00000
     13      13.4288      0.00000
     14      15.4086      0.00000

 k-point   2 :       0.5000    0.0000    0.0000
  band No.  band energies     occupation 
      1      -9.3872      1.00000
      2      -9.2722      1.00000
      3      -8.3358      1.00000
      4      -8.2498      1.00000
      5      -1.4322      1.00000
      6      -1.3730      1.00000
      7       2.1042      1.00000
      8       2.8199      0.96504
      9       6.4222      0.00000
     10       7.1127      0.00000
     11      12.1692      0.00000
     12      12.5781      0.00000
     13      16.0318      0.00000
     14      16.2048      0.00000

 k-point   3 :       0.0000    0.0000    0.5000
  band No.  band energies     occupation 
      1     -14.6235      1.00000
      2     -14.6235      1.00000
      3      -2.7913      1.00000
      4      -2.7913      1.00000
      5       2.0251      1.00000
      6       2.0252      1.00000
      7       2.0252      1.00000
      8       2.0252      1.00000
      9      11.6759      0.00000
     10      11.6759      0.00000
     11      13.3751      0.00000
     12      13.3751      0.00000
     13      13.3751      0.00000
     14      13.3751      0.00000

 k-point   4 :       0.5000    0.0000    0.5000
  band No.  band energies     occupation 
      1      -9.3246      1.00000
      2      -9.3246      1.00000
      3      -8.3043      1.00000
      4      -8.3043      1.00000
      5      -1.3980      1.00000
      6      -1.3980      1.00000
      7       2.5300      1.00000
      8       2.5300      1.00000
      9       6.5612      0.00000
     10       6.5612      0.00000
     11      12.3660      0.00000
     12      12.3660      0.00000
     13      17.4390      0.00000
     14      17.4390      0.00000


--------------------------------------------------------------------------------------------------------


 soft charge-density along one line, spin component           1
         0         1         2         3         4         5         6         7         8         9
 total charge-density along one line
 
 soft charge-density along one line, spin component           2
         0         1         2         3         4         5         6         7         8         9
 total charge-density along one line
 
 pseudopotential strength for first ion, spin component:           1
  9.746   0.004   0.000   0.000   0.000   0.000   0.000   0.000
  0.004  -0.002   0.000   0.000   0.000   0.000   0.000   0.000
  0.000   0.000  -3.915   0.000   0.000  -0.015   0.000   0.000
  0.000   0.000   0.000  -3.912   0.000   0.000  -0.012   0.000
  0.000   0.000   0.000   0.000  -3.915   0.000   0.000  -0.015
  0.000   0.000  -0.015   0.000   0.000  -0.763   0.000   0.000
  0.000   0.000   0.000  -0.012   0.000   0.000  -0.763   0.000
  0.000   0.000   0.000   0.000  -0.015   0.000   0.000  -0.763
 pseudopotential strength for first ion, spin component:           2
  9.744   0.004   0.000   0.000   0.000   0.000   0.000   0.000
  0.004  -0.002   0.000   0.000   0.000   0.000   0.000   0.000
  0.000   0.000  -3.915   0.000   0.000  -0.015   0.000   0.000
  0.000   0.000   0.000  -3.910   0.000   0.000  -0.012   0.000
  0.000   0.000   0.000   0.000  -3.915   0.000   0.000  -0.015
  0.000   0.000  -0.015   0.000   0.000  -0.763   0.000   0.000
  0.000   0.000   0.000  -0.012   0.000   0.000  -0.763   0.000
  0.000   0.000   0.000   0.000  -0.015   0.000   0.000  -0.763
 total augmentation occupancy for first ion, spin component:           1
  1.367  -1.211   0.000   0.000   0.000   0.000   0.000   0.000
 -1.211   1.141   0.000   0.000   0.000   0.000   0.000   0.000
  0.000   0.000   1.291   0.000   0.000   0.243   0.000   0.000
  0.000   0.000   0.000   0.953   0.000   0.000   0.127   0.000
  0.000   0.000   0.000   0.000   1.291   0.000   0.000   0.243
  0.000   0.000   0.243   0.000   0.000   0.054   0.000   0.000
  0.000   0.000   0.000   0.127   0.000   0.000   0.019   0.000
  0.000   0.000   0.000   0.000   0.243   0.000   0.000   0.054
 total augmentation occupancy for first ion, spin component:           2
  0.000  -0.002   0.000   0.000   0.000   0.000   0.000   0.000
 -0.002   0.003   0.000   0.000   0.000   0.000   0.000   0.000
  0.000   0.000   0.000   0.000   0.000   0.000   0.000   0.000
  0.000   0.000   0.000   0.009   0.000   0.000   0.001   0.000
  0.000   0.000   0.000   0.000   0.000   0.000   0.000   0.000
  0.000   0.000   0.000   0.000   0.000   0.000   0.000   0.000
  0.000   0.000   0.000   0.001   0.000   0.000   0.000   0.000
  0.000   0.000   0.000   0.000   0.000   0.000   0.000   0.000


------------------------ aborting loop because EDIFF is reached ----------------------------------------


 


 total charge     
 
# of ion     s       p       d       tot
----------------------------------------
  1        0.816   1.886   0.000   2.702
  2        0.818   1.877   0.000   2.696
  3        0.818   1.877   0.000   2.696
  4        0.816   1.886   0.000   2.702
------------------------------------------------
tot        3.270   7.526   0.000  10.796
 


 magnetization (x)
 
# of ion     s       p       d       tot
----------------------------------------
  1        0.000   0.005   0.000   0.005
  2        0.000   0.002   0.000   0.002
  3        0.000   0.002   0.000   0.002
  4        0.000   0.005   0.000   0.005
------------------------------------------------
tot        0.000   0.013   0.000   0.014
 
    CHARGE:  cpu time    0.06: real time    0.06
    FORLOC:  cpu time    0.01: real time    0.01
    FORNL :  cpu time    0.08: real time    0.08
    STRESS:  cpu time    0.12: real time    0.12
    FORHAR:  cpu time    0.04: real time    0.04
    MIXING:  cpu time    0.01: real time    0.01

  FORCE on cell =-STRESS in cart. coord.  units (eV):
  Direction    XX          YY          ZZ          XY          YZ          ZX
  --------------------------------------------------------------------------------------
  Alpha Z    37.04767    37.04767    37.04767
  Ewald      78.34827    78.34827  -617.29730     0.00000     0.00000     0.00000
  Hartree   163.21929   163.21929  -139.08173     0.00000     0.00000     0.00000
  E(xc)     -58.93211   -58.93211   -60.98431     0.00000     0.00000     0.00000
  Local    -445.90621  -445.90626   520.80117    -0.00005     0.00000     0.00000
  n-local   -20.00040   -20.36402   -18.01954     0.31490     0.00000     0.00000
  augment    -1.80419    -1.80415    -1.65784     0.00004     0.00000     0.00000
  Kinetic   254.03176   250.56440   276.96889     3.00282     0.00000     0.00000
  Fock        0.00000     0.00000     0.00000     0.00000     0.00000     0.00000
  -------------------------------------------------------------------------------------
  Total       4.08859     4.08859    -2.22299     0.00000     0.00000     0.00000
  in kB     186.15441   186.15441  -101.21331     0.00000     0.00000     0.00000
  external pressure =       90.37 kB  Pullay stress =        0.00 kB


 VOLUME and BASIS-vectors are now :
 -----------------------------------------------------------------------------
  energy-cutoff  :      350.00
  volume of cell :       35.19
      direct lattice vectors                 reciprocal lattice vectors
     2.461200000  0.000000000  0.000000000     0.406305867  0.234580802  0.000000000
    -1.230600000  2.131461724  0.000000000     0.000000000  0.469161603  0.000000000
     0.000000000  0.000000000  6.707900000     0.000000000  0.000000000  0.149077953

  length of vectors
     2.461200000  2.461200000  6.707900000     0.469161603  0.469161603  0.149077953


 FORCES acting on ions
    electron-ion (+dipol)            ewald-force                    non-local-force                 convergence-correction
 -----------------------------------------------------------------------------------------------
   0.161E-06 -.928E-07 0.188E-13   0.624E-11 -.358E-11 -.182E-13   0.139E-16 0.111E-15 0.000E+00   0.225E-06 -.130E-06 -.758E-13
   -.202E-05 0.117E-05 -.294E-12   -.624E-11 0.358E-11 -.182E-13   0.416E-16 0.000E+00 0.000E+00   -.272E-06 0.157E-06 -.734E-13
   -.193E-05 0.112E-05 -.101E-12   -.126E-10 0.731E-11 0.182E-13   0.694E-16 0.000E+00 0.000E+00   0.272E-06 -.157E-06 0.129E-12
   0.195E-05 -.112E-05 -.906E-12   0.126E-10 -.731E-11 0.182E-13   0.694E-16 -.111E-15 0.000E+00   -.225E-06 0.130E-06 0.129E-12
 -----------------------------------------------------------------------------------------------
   -.185E-05 0.107E-05 -.128E-11   0.658E-14 -.737E-15 0.316E-29   0.194E-15 0.000E+00 0.000E+00   0.863E-10 -.498E-10 0.108E-12
 
 
 POSITION                                       TOTAL-FORCE (eV/Angst)
 -----------------------------------------------------------------------------------
      0.00000      0.00000      0.00000         0.000000      0.000000      0.000000
      0.00000      1.42097      0.00000         0.000000      0.000000      0.000000
      0.00000      1.42097      3.35395         0.000000      0.000000      0.000000
      1.23060      0.71049      3.35395         0.000000      0.000000      0.000000
 -----------------------------------------------------------------------------------
    total drift:                               -0.000002      0.000001      0.000000


--------------------------------------------------------------------------------------------------------



  FREE ENERGIE OF THE ION-ELECTRON SYSTEM (eV)
  ---------------------------------------------------
  free  energy   TOTEN  =       -32.785029 eV

  energy  without entropy=      -32.786234  energy(sigma->0) =      -32.785431
 


--------------------------------------------------------------------------------------------------------


    POTLOK:  cpu time    0.34: real time    0.34


--------------------------------------------------------------------------------------------------------


 writing wavefunctions
     LOOP+:  cpu time   10.41: real time   10.94
    4ORBIT:  cpu time    0.00: real time    0.00
 


 total charge     
 
# of ion     s       p       d       tot
----------------------------------------
  1        0.816   1.886   0.000   2.702
  2        0.818   1.877   0.000   2.696
  3        0.818   1.877   0.000   2.696
  4        0.816   1.886   0.000   2.702
------------------------------------------------
tot        3.270   7.526   0.000  10.796
 


 magnetization (x)
 
# of ion     s       p       d       tot
----------------------------------------
  1        0.000   0.005   0.000   0.005
  2        0.000   0.002   0.000   0.002
  3        0.000   0.002   0.000   0.002
  4        0.000   0.005   0.000   0.005
------------------------------------------------
tot        0.000   0.013   0.000   0.014
 

 total amount of memory used by VASP on root node    41384. kBytes
========================================================================

   base      :      30000. kBytes
   nonl-proj :        171. kBytes
   fftplans  :       2996. kBytes
   grid      :       7176. kBytes
   one-center:         24. kBytes
   wavefun   :       1017. kBytes
 
  
  
 General timing and accounting informations for this job:
 ========================================================
  
                  Total CPU time used (sec):       11.260
                            User time (sec):       10.933
                          System time (sec):        0.327
                         Elapsed time (sec):       11.896
  
                   Maximum memory used (kb):           0.
                   Average memory used (kb):           0.
  
                          Minor page faults:        22332
                          Major page faults:            0
                 Voluntary context switches:         6680
