PROCAR lm decomposed
# of k-points:    4         # of bands:  14         # of ions:   4

 k-point    1 :    0.00000000 0.00000000 0.00000000     weight = 0.12500000

band   1 # energy  -14.78235290 # occ.  1.00000000
 
ion      s     py     pz     px    dxy    dyz    dz2    dxz    dx2    tot
  1  0.158  0.000  0.000  0.000  0.000  0.000  0.000  0.000  0.000  0.158
  2  0.158  0.000  0.000  0.000  0.000  0.000  0.000  0.000  0.000  0.158
  3  0.158  0.000  0.000  0.000  0.000  0.000  0.000  0.000  0.000  0.158
  4  0.158  0.000  0.000  0.000  0.000  0.000  0.000  0.000  0.000  0.158
tot  0.633  0.000  0.000  0.000  0.000  0.000  0.000  0.000  0.000  0.633
 
band   2 # energy  -14.47439696 # occ.  1.00000000
 
ion      s     py     pz     px    dxy    dyz    dz2    dxz    dx2    tot
  1  0.164  0.000  0.000  0.000  0.000  0.000  0.000  0.000  0.000  0.164
  2  0.164  0.000  0.000  0.000  0.000  0.000  0.000  0.000  0.000  0.164
  3  0.164  0.000  0.000  0.000  0.000  0.000  0.000  0.000  0.000  0.164
  4  0.164  0.000  0.000  0.000  0.000  0.000  0.000  0.000  0.000  0.164
tot  0.657  0.000  0.000  0.000  0.000  0.000  0.000  0.000  0.000  0.657
 
band   3 # energy   -3.71124231 # occ.  1.00000000
 
ion      s     py     pz     px    dxy    dyz    dz2    dxz    dx2    tot
  1  0.000  0.000  0.095  0.000  0.000  0.000  0.000  0.000  0.000  0.095
  2  0.000  0.000  0.096  0.000  0.000  0.000  0.000  0.000  0.000  0.096
  3  0.000  0.000  0.096  0.000  0.000  0.000  0.000  0.000  0.000  0.096
  4  0.000  0.000  0.095  0.000  0.000  0.000  0.000  0.000  0.000  0.095
tot  0.000  0.000  0.382  0.000  0.000  0.000  0.000  0.000  0.000  0.382
 
band   4 # energy   -1.70601427 # occ.  1.00000000
 
ion      s     py     pz     px    dxy    dyz    dz2    dxz    dx2    tot
  1  0.000  0.000  0.126  0.000  0.000  0.000  0.000  0.000  0.000  0.126
  2  0.000  0.000  0.126  0.000  0.000  0.000  0.000  0.000  0.000  0.126
  3  0.000  0.000  0.126  0.000  0.000  0.000  0.000  0.000  0.000  0.126
  4  0.000  0.000  0.126  0.000  0.000  0.000  0.000  0.000  0.000  0.126
tot  0.000  0.000  0.503  0.000  0.000  0.000  0.000  0.000  0.000  0.503
 
band   5 # energy    2.02814587 # occ.  1.00000000
 
ion      s     py     pz     px    dxy    dyz    dz2    dxz    dx2    tot
  1  0.000  0.052  0.000  0.155  0.000  0.000  0.000  0.000  0.000  0.207
  2  0.000  0.052  0.000  0.156  0.000  0.000  0.000  0.000  0.000  0.208
  3  0.000  0.052  0.000  0.156  0.000  0.000  0.000  0.000  0.000  0.208
  4  0.000  0.052  0.000  0.155  0.000  0.000  0.000  0.000  0.000  0.207
tot  0.000  0.207  0.000  0.622  0.000  0.000  0.000  0.000  0.000  0.829
 
band   6 # energy    2.02821511 # occ.  1.00000000
 
ion      s     py     pz     px    dxy    dyz    dz2    dxz    dx2    tot
  1  0.000  0.155  0.000  0.052  0.000  0.000  0.000  0.000  0.000  0.207
  2  0.000  0.156  0.000  0.052  0.000  0.000  0.000  0.000  0.000  0.208
  3  0.000  0.156  0.000  0.052  0.000  0.000  0.000  0.000  0.000  0.208
  4  0.000  0.155  0.000  0.052  0.000  0.000  0.000  0.000  0.000  0.207
tot  0.000  0.622  0.000  0.207  0.000  0.000  0.000  0.000  0.000  0.829
 
band   7 # energy    2.03381995 # occ.  1.00000000
 
ion      s     py     pz     px    dxy    dyz    dz2    dxz    dx2    tot
  1  0.000  0.052  0.000  0.155  0.000  0.000  0.000  0.000  0.000  0.207
  2  0.000  0.052  0.000  0.156  0.000  0.000  0.000  0.000  0.000  0.208
  3  0.000  0.052  0.000  0.156  0.000  0.000  0.000  0.000  0.000  0.208
  4  0.000  0.052  0.000  0.156  0.000  0.000  0.000  0.000  0.000  0.207
tot  0.000  0.208  0.000  0.623  0.000  0.000  0.000  0.000  0.000  0.830
 
band   8 # energy    2.03389013 # occ.  1.00000000
 
ion      s     py     pz     px    dxy    dyz    dz2    dxz    dx2    tot
  1  0.000  0.155  0.000  0.052  0.000  0.000  0.000  0.000  0.000  0.207
  2  0.000  0.156  0.000  0.052  0.000  0.000  0.000  0.000  0.000  0.208
  3  0.000  0.156  0.000  0.052  0.000  0.000  0.000  0.000  0.000  0.208
  4  0.000  0.156  0.000  0.052  0.000  0.000  0.000  0.000  0.000  0.207
tot  0.000  0.623  0.000  0.208  0.000  0.000  0.000  0.000  0.000  0.830
 
band   9 # energy    8.98221986 # occ.  0.00000000
 
ion      s     py     pz     px    dxy    dyz    dz2    dxz    dx2    tot
  1  0.021  0.000  0.000  0.000  0.000  0.000  0.000  0.000  0.000  0.021
  2  0.021  0.000  0.000  0.000  0.000  0.000  0.000  0.000  0.000  0.021
  3  0.021  0.000  0.000  0.000  0.000  0.000  0.000  0.000  0.000  0.021
  4  0.021  0.000  0.000  0.000  0.000  0.000  0.000  0.000  0.000  0.021
tot  0.083  0.000  0.000  0.000  0.000  0.000  0.000  0.000  0.000  0.083
 
band  10 # energy   13.35941262 # occ.  0.00000000
 
ion      s     py     pz     px    dxy    dyz    dz2    dxz    dx2    tot
  1  0.000  0.032  0.000  0.097  0.000  0.000  0.000  0.000  0.000  0.130
  2  0.000  0.033  0.000  0.099  0.000  0.000  0.000  0.000  0.000  0.132
  3  0.000  0.033  0.000  0.099  0.000  0.000  0.000  0.000  0.000  0.131
  4  0.000  0.032  0.000  0.097  0.000  0.000  0.000  0.000  0.000  0.130
tot  0.000  0.131  0.000  0.392  0.000  0.000  0.000  0.000  0.000  0.523
 
band  11 # energy   13.35946723 # occ.  0.00000000
 
ion      s     py     pz     px    dxy    dyz    dz2    dxz    dx2    tot
  1  0.000  0.097  0.000  0.032  0.000  0.000  0.000  0.000  0.000  0.130
  2  0.000  0.099  0.000  0.033  0.000  0.000  0.000  0.000  0.000  0.132
  3  0.000  0.099  0.000  0.033  0.000  0.000  0.000  0.000  0.000  0.131
  4  0.000  0.097  0.000  0.032  0.000  0.000  0.000  0.000  0.000  0.130
tot  0.000  0.392  0.000  0.131  0.000  0.000  0.000  0.000  0.000  0.523
 
band  12 # energy   13.42392643 # occ.  0.00000000
 
ion      s     py     pz     px    dxy    dyz    dz2    dxz    dx2    tot
  1  0.000  0.033  0.000  0.100  0.000  0.000  0.000  0.000  0.000  0.133
  2  0.000  0.033  0.000  0.098  0.000  0.000  0.000  0.000  0.000  0.130
  3  0.000  0.033  0.000  0.098  0.000  0.000  0.000  0.000  0.000  0.130
  4  0.000  0.033  0.000  0.100  0.000  0.000  0.000  0.000  0.000  0.133
tot  0.000  0.132  0.000  0.395  0.000  0.000  0.000  0.000  0.000  0.526
 
band  13 # energy   13.42398009 # occ.  0.00000000
 
ion      s     py     pz     px    dxy    dyz    dz2    dxz    dx2    tot
  1  0.000  0.100  0.000  0.033  0.000  0.000  0.000  0.000  0.000  0.133
  2  0.000  0.098  0.000  0.033  0.000  0.000  0.000  0.000  0.000  0.130
  3  0.000  0.098  0.000  0.033  0.000  0.000  0.000  0.000  0.000  0.130
  4  0.000  0.100  0.000  0.033  0.000  0.000  0.000  0.000  0.000  0.133
tot  0.000  0.395  0.000  0.132  0.000  0.000  0.000  0.000  0.000  0.526
 
band  14 # energy   15.39117279 # occ.  0.00000000
 
ion      s     py     pz     px    dxy    dyz    dz2    dxz    dx2    tot
  1  0.000  0.000  0.065  0.000  0.000  0.000  0.000  0.000  0.000  0.065
  2  0.000  0.000  0.088  0.000  0.000  0.000  0.000  0.000  0.000  0.088
  3  0.000  0.000  0.090  0.000  0.000  0.000  0.000  0.000  0.000  0.090
  4  0.000  0.000  0.064  0.000  0.000  0.000  0.000  0.000  0.000  0.064
tot  0.000  0.000  0.307  0.000  0.000  0.000  0.000  0.000  0.000  0.307
 

 k-point    2 :    0.50000000 0.00000000 0.00000000     weight = 0.37500000

band   1 # energy   -9.39770375 # occ.  1.00000000
 
ion      s     py     pz     px    dxy    dyz    dz2    dxz    dx2    tot
  1  0.133  0.010  0.000  0.030  0.000  0.000  0.000  0.000  0.000  0.173
  2  0.164  0.006  0.000  0.018  0.000  0.000  0.000  0.000  0.000  0.187
  3  0.164  0.006  0.000  0.018  0.000  0.000  0.000  0.000  0.000  0.187
  4  0.133  0.010  0.000  0.030  0.000  0.000  0.000  0.000  0.000  0.173
tot  0.592  0.032  0.000  0.095  0.000  0.000  0.000  0.000  0.000  0.720
 
band   2 # energy   -9.28335861 # occ.  1.00000000
 
ion      s     py     pz     px    dxy    dyz    dz2    dxz    dx2    tot
  1  0.167  0.006  0.000  0.017  0.000  0.000  0.000  0.000  0.000  0.190
  2  0.132  0.011  0.000  0.032  0.000  0.000  0.000  0.000  0.000  0.174
  3  0.132  0.011  0.000  0.032  0.000  0.000  0.000  0.000  0.000  0.174
  4  0.167  0.006  0.000  0.017  0.000  0.000  0.000  0.000  0.000  0.190
tot  0.599  0.032  0.000  0.097  0.000  0.000  0.000  0.000  0.000  0.729
 
band   3 # energy   -8.34278528 # occ.  1.00000000
 
ion      s     py     pz     px    dxy    dyz    dz2    dxz    dx2    tot
  1  0.050  0.027  0.000  0.081  0.000  0.000  0.000  0.000  0.000  0.158
  2  0.089  0.022  0.000  0.065  0.000  0.000  0.000  0.000  0.000  0.175
  3  0.089  0.022  0.000  0.065  0.000  0.000  0.000  0.000  0.000  0.175
  4  0.050  0.027  0.000  0.081  0.000  0.000  0.000  0.000  0.000  0.158
tot  0.277  0.097  0.000  0.292  0.000  0.000  0.000  0.000  0.000  0.667
 
band   4 # energy   -8.25737242 # occ.  1.00000000
 
ion      s     py     pz     px    dxy    dyz    dz2    dxz    dx2    tot
  1  0.087  0.022  0.000  0.066  0.000  0.000  0.000  0.000  0.000  0.176
  2  0.052  0.027  0.000  0.081  0.000  0.000  0.000  0.000  0.000  0.161
  3  0.052  0.027  0.000  0.081  0.000  0.000  0.000  0.000  0.000  0.161
  4  0.088  0.022  0.000  0.066  0.000  0.000  0.000  0.000  0.000  0.176
tot  0.280  0.099  0.000  0.296  0.000  0.000  0.000  0.000  0.000  0.674
 
band   5 # energy   -1.43706272 # occ.  1.00000000
 
ion      s     py     pz     px    dxy    dyz    dz2    dxz    dx2    tot
  1  0.000  0.147  0.000  0.049  0.000  0.000  0.000  0.000  0.000  0.196
  2  0.000  0.148  0.000  0.049  0.000  0.000  0.000  0.000  0.000  0.197
  3  0.000  0.148  0.000  0.049  0.000  0.000  0.000  0.000  0.000  0.197
  4  0.000  0.147  0.000  0.049  0.000  0.000  0.000  0.000  0.000  0.196
tot  0.000  0.590  0.000  0.197  0.000  0.000  0.000  0.000  0.000  0.786
 
band   6 # energy   -1.37782342 # occ.  1.00000000
 
ion      s     py     pz     px    dxy    dyz    dz2    dxz    dx2    tot
  1  0.000  0.148  0.000  0.049  0.000  0.000  0.000  0.000  0.000  0.198
  2  0.000  0.149  0.000  0.050  0.000  0.000  0.000  0.000  0.000  0.198
  3  0.000  0.149  0.000  0.050  0.000  0.000  0.000  0.000  0.000  0.198
  4  0.000  0.148  0.000  0.049  0.000  0.000  0.000  0.000  0.000  0.198
tot  0.000  0.594  0.000  0.198  0.000  0.000  0.000  0.000  0.000  0.791
 
band   7 # energy    2.08182309 # occ.  1.00000000
 
ion      s     py     pz     px    dxy    dyz    dz2    dxz    dx2    tot
  1  0.000  0.000  0.097  0.000  0.000  0.000  0.000  0.000  0.000  0.097
  2  0.000  0.000  0.142  0.000  0.000  0.000  0.000  0.000  0.000  0.142
  3  0.000  0.000  0.142  0.000  0.000  0.000  0.000  0.000  0.000  0.142
  4  0.000  0.000  0.097  0.000  0.000  0.000  0.000  0.000  0.000  0.097
tot  0.000  0.000  0.477  0.000  0.000  0.000  0.000  0.000  0.000  0.477
 
band   8 # energy    2.79140874 # occ.  1.03495618
 
ion      s     py     pz     px    dxy    dyz    dz2    dxz    dx2    tot
  1  0.000  0.000  0.163  0.000  0.000  0.000  0.000  0.000  0.000  0.163
  2  0.000  0.000  0.096  0.000  0.000  0.000  0.000  0.000  0.000  0.096
  3  0.000  0.000  0.096  0.000  0.000  0.000  0.000  0.000  0.000  0.096
  4  0.000  0.000  0.163  0.000  0.000  0.000  0.000  0.000  0.000  0.163
tot  0.000  0.000  0.516  0.000  0.000  0.000  0.000  0.000  0.000  0.516
 
band   9 # energy    6.40160555 # occ.  0.00000000
 
ion      s     py     pz     px    dxy    dyz    dz2    dxz    dx2    tot
  1  0.000  0.000  0.052  0.000  0.000  0.000  0.000  0.000  0.000  0.052
  2  0.000  0.000  0.169  0.000  0.000  0.000  0.000  0.000  0.000  0.169
  3  0.000  0.000  0.169  0.000  0.000  0.000  0.000  0.000  0.000  0.169
  4  0.000  0.000  0.052  0.000  0.000  0.000  0.000  0.000  0.000  0.052
tot  0.000  0.000  0.443  0.000  0.000  0.000  0.000  0.000  0.000  0.443
 
band  10 # energy    7.08462199 # occ.  0.00000000
 
ion      s     py     pz     px    dxy    dyz    dz2    dxz    dx2    tot
  1  0.000  0.000  0.174  0.000  0.000  0.000  0.000  0.000  0.000  0.174
  2  0.000  0.000  0.078  0.000  0.000  0.000  0.000  0.000  0.000  0.078
  3  0.000  0.000  0.078  0.000  0.000  0.000  0.000  0.000  0.000  0.078
  4  0.000  0.000  0.174  0.000  0.000  0.000  0.000  0.000  0.000  0.174
tot  0.000  0.000  0.504  0.000  0.000  0.000  0.000  0.000  0.000  0.504
 
band  11 # energy   12.15656815 # occ.  0.00000000
 
ion      s     py     pz     px    dxy    dyz    dz2    dxz    dx2    tot
  1  0.088  0.005  0.000  0.015  0.000  0.000  0.000  0.000  0.000  0.108
  2  0.088  0.005  0.000  0.014  0.000  0.000  0.000  0.000  0.000  0.107
  3  0.088  0.005  0.000  0.014  0.000  0.000  0.000  0.000  0.000  0.107
  4  0.088  0.005  0.000  0.015  0.000  0.000  0.000  0.000  0.000  0.108
tot  0.352  0.019  0.000  0.058  0.000  0.000  0.000  0.000  0.000  0.430
 
band  12 # energy   12.56565441 # occ.  0.00000000
 
ion      s     py     pz     px    dxy    dyz    dz2    dxz    dx2    tot
  1  0.094  0.005  0.000  0.015  0.000  0.000  0.000  0.000  0.000  0.113
  2  0.094  0.005  0.000  0.015  0.000  0.000  0.000  0.000  0.000  0.114
  3  0.094  0.005  0.000  0.015  0.000  0.000  0.000  0.000  0.000  0.114
  4  0.094  0.005  0.000  0.015  0.000  0.000  0.000  0.000  0.000  0.113
tot  0.374  0.020  0.000  0.060  0.000  0.000  0.000  0.000  0.000  0.454
 
band  13 # energy   16.02514179 # occ.  0.00000000
 
ion      s     py     pz     px    dxy    dyz    dz2    dxz    dx2    tot
  1  0.002  0.010  0.000  0.030  0.000  0.000  0.000  0.000  0.000  0.042
  2  0.010  0.001  0.000  0.002  0.000  0.000  0.000  0.000  0.000  0.013
  3  0.010  0.001  0.000  0.002  0.000  0.000  0.000  0.000  0.000  0.013
  4  0.002  0.010  0.000  0.030  0.000  0.000  0.000  0.000  0.000  0.042
tot  0.025  0.021  0.000  0.064  0.000  0.000  0.000  0.000  0.000  0.110
 
band  14 # energy   16.18836506 # occ.  0.00000000
 
ion      s     py     pz     px    dxy    dyz    dz2    dxz    dx2    tot
  1  0.008  0.001  0.000  0.003  0.000  0.000  0.000  0.000  0.000  0.012
  2  0.000  0.011  0.000  0.033  0.000  0.000  0.000  0.000  0.000  0.044
  3  0.000  0.011  0.000  0.033  0.000  0.000  0.000  0.000  0.000  0.044
  4  0.008  0.001  0.000  0.003  0.000  0.000  0.000  0.000  0.000  0.012
tot  0.015  0.024  0.000  0.073  0.000  0.000  0.000  0.000  0.000  0.112
 

 k-point    3 :    0.00000000 0.00000000 0.50000000     weight = 0.12500000

band   1 # energy  -14.63378044 # occ.  1.00000000
 
ion      s     py     pz     px    dxy    dyz    dz2    dxz    dx2    tot
  1  0.322  0.000  0.000  0.000  0.000  0.000  0.000  0.000  0.000  0.322
  2  0.323  0.000  0.000  0.000  0.000  0.000  0.000  0.000  0.000  0.323
  3  0.000  0.000  0.000  0.000  0.000  0.000  0.000  0.000  0.000  0.000
  4  0.000  0.000  0.000  0.000  0.000  0.000  0.000  0.000  0.000  0.000
tot  0.645  0.000  0.000  0.000  0.000  0.000  0.000  0.000  0.000  0.645
 
band   2 # energy  -14.63377819 # occ.  1.00000000
 
ion      s     py     pz     px    dxy    dyz    dz2    dxz    dx2    tot
  1  0.000  0.000  0.000  0.000  0.000  0.000  0.000  0.000  0.000  0.000
  2  0.000  0.000  0.000  0.000  0.000  0.000  0.000  0.000  0.000  0.000
  3  0.323  0.000  0.000  0.000  0.000  0.000  0.000  0.000  0.000  0.323
  4  0.322  0.000  0.000  0.000  0.000  0.000  0.000  0.000  0.000  0.322
tot  0.645  0.000  0.000  0.000  0.000  0.000  0.000  0.000  0.000  0.645
 
band   3 # energy   -2.81366883 # occ.  1.00000000
 
ion      s     py     pz     px    dxy    dyz    dz2    dxz    dx2    tot
  1  0.000  0.000  0.212  0.000  0.000  0.000  0.000  0.000  0.000  0.212
  2  0.000  0.000  0.213  0.000  0.000  0.000  0.000  0.000  0.000  0.213
  3  0.002  0.000  0.000  0.000  0.000  0.000  0.000  0.000  0.000  0.002
  4  0.002  0.000  0.000  0.000  0.000  0.000  0.000  0.000  0.000  0.002
tot  0.004  0.000  0.426  0.000  0.000  0.000  0.000  0.000  0.000  0.430
 
band   4 # energy   -2.81366765 # occ.  1.00000000
 
ion      s     py     pz     px    dxy    dyz    dz2    dxz    dx2    tot
  1  0.002  0.000  0.000  0.000  0.000  0.000  0.000  0.000  0.000  0.002
  2  0.002  0.000  0.000  0.000  0.000  0.000  0.000  0.000  0.000  0.002
  3  0.000  0.000  0.213  0.000  0.000  0.000  0.000  0.000  0.000  0.213
  4  0.000  0.000  0.212  0.000  0.000  0.000  0.000  0.000  0.000  0.212
tot  0.004  0.000  0.426  0.000  0.000  0.000  0.000  0.000  0.000  0.430
 
band   5 # energy    2.02023588 # occ.  1.00000000
 
ion      s     py     pz     px    dxy    dyz    dz2    dxz    dx2    tot
  1  0.000  0.103  0.000  0.310  0.000  0.000  0.000  0.000  0.000  0.414
  2  0.000  0.104  0.000  0.312  0.000  0.000  0.000  0.000  0.000  0.415
  3  0.000  0.000  0.000  0.000  0.000  0.000  0.000  0.000  0.000  0.000
  4  0.000  0.000  0.000  0.000  0.000  0.000  0.000  0.000  0.000  0.000
tot  0.000  0.207  0.000  0.622  0.000  0.000  0.000  0.000  0.000  0.829
 
band   6 # energy    2.02023819 # occ.  1.00000000
 
ion      s     py     pz     px    dxy    dyz    dz2    dxz    dx2    tot
  1  0.000  0.000  0.000  0.000  0.000  0.000  0.000  0.000  0.000  0.000
  2  0.000  0.000  0.000  0.000  0.000  0.000  0.000  0.000  0.000  0.000
  3  0.000  0.104  0.000  0.312  0.000  0.000  0.000  0.000  0.000  0.415
  4  0.000  0.103  0.000  0.310  0.000  0.000  0.000  0.000  0.000  0.414
tot  0.000  0.207  0.000  0.622  0.000  0.000  0.000  0.000  0.000  0.829
 
band   7 # energy    2.02030644 # occ.  1.00000000
 
ion      s     py     pz     px    dxy    dyz    dz2    dxz    dx2    tot
  1  0.000  0.310  0.000  0.103  0.000  0.000  0.000  0.000  0.000  0.414
  2  0.000  0.312  0.000  0.104  0.000  0.000  0.000  0.000  0.000  0.415
  3  0.000  0.000  0.000  0.000  0.000  0.000  0.000  0.000  0.000  0.000
  4  0.000  0.000  0.000  0.000  0.000  0.000  0.000  0.000  0.000  0.000
tot  0.000  0.622  0.000  0.207  0.000  0.000  0.000  0.000  0.000  0.829
 
band   8 # energy    2.02030878 # occ.  1.00000000
 
ion      s     py     pz     px    dxy    dyz    dz2    dxz    dx2    tot
  1  0.000  0.000  0.000  0.000  0.000  0.000  0.000  0.000  0.000  0.000
  2  0.000  0.000  0.000  0.000  0.000  0.000  0.000  0.000  0.000  0.000
  3  0.000  0.312  0.000  0.104  0.000  0.000  0.000  0.000  0.000  0.415
  4  0.000  0.310  0.000  0.103  0.000  0.000  0.000  0.000  0.000  0.414
tot  0.000  0.622  0.000  0.207  0.000  0.000  0.000  0.000  0.000  0.829
 
band   9 # energy   11.66188197 # occ.  0.00000000
 
ion      s     py     pz     px    dxy    dyz    dz2    dxz    dx2    tot
  1  0.024  0.000  0.003  0.000  0.000  0.000  0.000  0.000  0.000  0.027
  2  0.026  0.000  0.003  0.000  0.000  0.000  0.000  0.000  0.000  0.029
  3  0.001  0.000  0.057  0.000  0.000  0.000  0.000  0.000  0.000  0.058
  4  0.001  0.000  0.058  0.000  0.000  0.000  0.000  0.000  0.000  0.059
tot  0.053  0.000  0.121  0.000  0.000  0.000  0.000  0.000  0.000  0.174
 
band  10 # energy   11.66188251 # occ.  0.00000000
 
ion      s     py     pz     px    dxy    dyz    dz2    dxz    dx2    tot
  1  0.001  0.000  0.058  0.000  0.000  0.000  0.000  0.000  0.000  0.059
  2  0.001  0.000  0.057  0.000  0.000  0.000  0.000  0.000  0.000  0.058
  3  0.026  0.000  0.003  0.000  0.000  0.000  0.000  0.000  0.000  0.029
  4  0.024  0.000  0.003  0.000  0.000  0.000  0.000  0.000  0.000  0.027
tot  0.053  0.000  0.121  0.000  0.000  0.000  0.000  0.000  0.000  0.174
 
band  11 # energy   13.37012612 # occ.  0.00000000
 
ion      s     py     pz     px    dxy    dyz    dz2    dxz    dx2    tot
  1  0.000  0.065  0.000  0.197  0.000  0.000  0.000  0.000  0.000  0.262
  2  0.000  0.065  0.000  0.196  0.000  0.000  0.000  0.000  0.000  0.261
  3  0.000  0.000  0.000  0.000  0.000  0.000  0.000  0.000  0.000  0.000
  4  0.000  0.000  0.000  0.000  0.000  0.000  0.000  0.000  0.000  0.000
tot  0.000  0.130  0.000  0.394  0.000  0.000  0.000  0.000  0.000  0.524
 
band  12 # energy   13.37012871 # occ.  0.00000000
 
ion      s     py     pz     px    dxy    dyz    dz2    dxz    dx2    tot
  1  0.000  0.000  0.000  0.000  0.000  0.000  0.000  0.000  0.000  0.000
  2  0.000  0.000  0.000  0.000  0.000  0.000  0.000  0.000  0.000  0.000
  3  0.000  0.065  0.000  0.196  0.000  0.000  0.000  0.000  0.000  0.261
  4  0.000  0.066  0.000  0.197  0.000  0.000  0.000  0.000  0.000  0.262
tot  0.000  0.131  0.000  0.393  0.000  0.000  0.000  0.000  0.000  0.524
 
band  13 # energy   13.37018180 # occ.  0.00000000
 
ion      s     py     pz     px    dxy    dyz    dz2    dxz    dx2    tot
  1  0.000  0.197  0.000  0.065  0.000  0.000  0.000  0.000  0.000  0.263
  2  0.000  0.196  0.000  0.065  0.000  0.000  0.000  0.000  0.000  0.261
  3  0.000  0.000  0.000  0.000  0.000  0.000  0.000  0.000  0.000  0.000
  4  0.000  0.000  0.000  0.000  0.000  0.000  0.000  0.000  0.000  0.000
tot  0.000  0.394  0.000  0.130  0.000  0.000  0.000  0.000  0.000  0.524
 
band  14 # energy   13.37018425 # occ.  0.00000000
 
ion      s     py     pz     px    dxy    dyz    dz2    dxz    dx2    tot
  1  0.000  0.000  0.000  0.000  0.000  0.000  0.000  0.000  0.000  0.000
  2  0.000  0.000  0.000  0.000  0.000  0.000  0.000  0.000  0.000  0.000
  3  0.000  0.196  0.000  0.066  0.000  0.000  0.000  0.000  0.000  0.261
  4  0.000  0.197  0.000  0.066  0.000  0.000  0.000  0.000  0.000  0.263
tot  0.000  0.393  0.000  0.131  0.000  0.000  0.000  0.000  0.000  0.524
 

 k-point    4 :    0.50000000 0.00000000 0.50000000     weight = 0.37500000

band   1 # energy   -9.33539200 # occ.  1.00000000
 
ion      s     py     pz     px    dxy    dyz    dz2    dxz    dx2    tot
  1  0.298  0.016  0.000  0.048  0.000  0.000  0.000  0.000  0.000  0.362
  2  0.301  0.016  0.000  0.047  0.000  0.000  0.000  0.000  0.000  0.364
  3  0.000  0.000  0.000  0.000  0.000  0.000  0.000  0.000  0.000  0.000
  4  0.000  0.000  0.000  0.000  0.000  0.000  0.000  0.000  0.000  0.000
tot  0.599  0.032  0.000  0.095  0.000  0.000  0.000  0.000  0.000  0.726
 
band   2 # energy   -9.33538985 # occ.  1.00000000
 
ion      s     py     pz     px    dxy    dyz    dz2    dxz    dx2    tot
  1  0.000  0.000  0.000  0.000  0.000  0.000  0.000  0.000  0.000  0.000
  2  0.000  0.000  0.000  0.000  0.000  0.000  0.000  0.000  0.000  0.000
  3  0.301  0.016  0.000  0.047  0.000  0.000  0.000  0.000  0.000  0.364
  4  0.298  0.016  0.000  0.048  0.000  0.000  0.000  0.000  0.000  0.362
tot  0.599  0.032  0.000  0.095  0.000  0.000  0.000  0.000  0.000  0.726
 
band   3 # energy   -8.31155158 # occ.  1.00000000
 
ion      s     py     pz     px    dxy    dyz    dz2    dxz    dx2    tot
  1  0.139  0.049  0.000  0.146  0.000  0.000  0.000  0.000  0.000  0.334
  2  0.136  0.049  0.000  0.148  0.000  0.000  0.000  0.000  0.000  0.333
  3  0.000  0.000  0.000  0.000  0.000  0.000  0.000  0.000  0.000  0.000
  4  0.000  0.000  0.000  0.000  0.000  0.000  0.000  0.000  0.000  0.000
tot  0.275  0.098  0.000  0.295  0.000  0.000  0.000  0.000  0.000  0.668
 
band   4 # energy   -8.31154914 # occ.  1.00000000
 
ion      s     py     pz     px    dxy    dyz    dz2    dxz    dx2    tot
  1  0.000  0.000  0.000  0.000  0.000  0.000  0.000  0.000  0.000  0.000
  2  0.000  0.000  0.000  0.000  0.000  0.000  0.000  0.000  0.000  0.000
  3  0.136  0.049  0.000  0.148  0.000  0.000  0.000  0.000  0.000  0.333
  4  0.139  0.049  0.000  0.146  0.000  0.000  0.000  0.000  0.000  0.334
tot  0.275  0.098  0.000  0.295  0.000  0.000  0.000  0.000  0.000  0.668
 
band   5 # energy   -1.40286335 # occ.  1.00000000
 
ion      s     py     pz     px    dxy    dyz    dz2    dxz    dx2    tot
  1  0.000  0.296  0.000  0.099  0.000  0.000  0.000  0.000  0.000  0.394
  2  0.000  0.296  0.000  0.099  0.000  0.000  0.000  0.000  0.000  0.395
  3  0.000  0.000  0.000  0.000  0.000  0.000  0.000  0.000  0.000  0.000
  4  0.000  0.000  0.000  0.000  0.000  0.000  0.000  0.000  0.000  0.000
tot  0.000  0.592  0.000  0.197  0.000  0.000  0.000  0.000  0.000  0.789
 
band   6 # energy   -1.40286097 # occ.  1.00000000
 
ion      s     py     pz     px    dxy    dyz    dz2    dxz    dx2    tot
  1  0.000  0.000  0.000  0.000  0.000  0.000  0.000  0.000  0.000  0.000
  2  0.000  0.000  0.000  0.000  0.000  0.000  0.000  0.000  0.000  0.000
  3  0.000  0.296  0.000  0.099  0.000  0.000  0.000  0.000  0.000  0.395
  4  0.000  0.296  0.000  0.099  0.000  0.000  0.000  0.000  0.000  0.394
tot  0.000  0.592  0.000  0.197  0.000  0.000  0.000  0.000  0.000  0.789
 
band   7 # energy    2.50482303 # occ.  1.00000000
 
ion      s     py     pz     px    dxy    dyz    dz2    dxz    dx2    tot
  1  0.000  0.000  0.252  0.000  0.000  0.000  0.000  0.000  0.000  0.252
  2  0.000  0.000  0.254  0.000  0.000  0.000  0.000  0.000  0.000  0.254
  3  0.001  0.000  0.000  0.000  0.000  0.000  0.000  0.000  0.000  0.001
  4  0.000  0.000  0.000  0.001  0.000  0.000  0.000  0.000  0.000  0.001
tot  0.001  0.000  0.506  0.001  0.000  0.000  0.000  0.000  0.000  0.508
 
band   8 # energy    2.50482407 # occ.  1.00000000
 
ion      s     py     pz     px    dxy    dyz    dz2    dxz    dx2    tot
  1  0.000  0.000  0.000  0.001  0.000  0.000  0.000  0.000  0.000  0.001
  2  0.001  0.000  0.000  0.000  0.000  0.000  0.000  0.000  0.000  0.001
  3  0.000  0.000  0.254  0.000  0.000  0.000  0.000  0.000  0.000  0.254
  4  0.000  0.000  0.252  0.000  0.000  0.000  0.000  0.000  0.000  0.252
tot  0.001  0.000  0.506  0.001  0.000  0.000  0.000  0.000  0.000  0.508
 
band   9 # energy    6.53729671 # occ.  0.00000000
 
ion      s     py     pz     px    dxy    dyz    dz2    dxz    dx2    tot
  1  0.000  0.000  0.220  0.000  0.000  0.000  0.000  0.000  0.000  0.220
  2  0.000  0.000  0.217  0.000  0.000  0.000  0.000  0.000  0.000  0.217
  3  0.000  0.000  0.000  0.001  0.000  0.000  0.000  0.000  0.000  0.001
  4  0.002  0.000  0.000  0.000  0.000  0.000  0.000  0.000  0.000  0.002
tot  0.002  0.000  0.437  0.001  0.000  0.000  0.000  0.000  0.000  0.440
 
band  10 # energy    6.53729779 # occ.  0.00000000
 
ion      s     py     pz     px    dxy    dyz    dz2    dxz    dx2    tot
  1  0.002  0.000  0.000  0.000  0.000  0.000  0.000  0.000  0.000  0.002
  2  0.000  0.000  0.000  0.001  0.000  0.000  0.000  0.000  0.000  0.001
  3  0.000  0.000  0.217  0.000  0.000  0.000  0.000  0.000  0.000  0.217
  4  0.000  0.000  0.220  0.000  0.000  0.000  0.000  0.000  0.000  0.220
tot  0.002  0.000  0.437  0.001  0.000  0.000  0.000  0.000  0.000  0.440
 
band  11 # energy   12.35335503 # occ.  0.00000000
 
ion      s     py     pz     px    dxy    dyz    dz2    dxz    dx2    tot
  1  0.180  0.010  0.000  0.029  0.000  0.000  0.000  0.000  0.000  0.219
  2  0.182  0.010  0.000  0.030  0.000  0.000  0.000  0.000  0.000  0.223
  3  0.000  0.000  0.000  0.000  0.000  0.000  0.000  0.000  0.000  0.000
  4  0.000  0.000  0.000  0.000  0.000  0.000  0.000  0.000  0.000  0.000
tot  0.362  0.020  0.000  0.060  0.000  0.000  0.000  0.000  0.000  0.442
 
band  12 # energy   12.35335759 # occ.  0.00000000
 
ion      s     py     pz     px    dxy    dyz    dz2    dxz    dx2    tot
  1  0.000  0.000  0.000  0.000  0.000  0.000  0.000  0.000  0.000  0.000
  2  0.000  0.000  0.000  0.000  0.000  0.000  0.000  0.000  0.000  0.000
  3  0.182  0.010  0.000  0.030  0.000  0.000  0.000  0.000  0.000  0.223
  4  0.180  0.010  0.000  0.029  0.000  0.000  0.000  0.000  0.000  0.219
tot  0.362  0.020  0.000  0.060  0.000  0.000  0.000  0.000  0.000  0.442
 
band  13 # energy   17.42052254 # occ.  0.00000000
 
ion      s     py     pz     px    dxy    dyz    dz2    dxz    dx2    tot
  1  0.012  0.002  0.000  0.005  0.000  0.000  0.000  0.000  0.000  0.018
  2  0.001  0.011  0.000  0.032  0.000  0.000  0.000  0.000  0.000  0.044
  3  0.000  0.000  0.098  0.000  0.000  0.000  0.000  0.000  0.000  0.098
  4  0.000  0.000  0.081  0.000  0.000  0.000  0.000  0.000  0.000  0.081
tot  0.012  0.012  0.179  0.037  0.000  0.000  0.000  0.000  0.000  0.241
 
band  14 # energy   17.42052276 # occ.  0.00000000
 
ion      s     py     pz     px    dxy    dyz    dz2    dxz    dx2    tot
  1  0.000  0.000  0.081  0.000  0.000  0.000  0.000  0.000  0.000  0.081
  2  0.000  0.000  0.098  0.000  0.000  0.000  0.000  0.000  0.000  0.098
  3  0.001  0.011  0.000  0.032  0.000  0.000  0.000  0.000  0.000  0.044
  4  0.012  0.002  0.000  0.005  0.000  0.000  0.000  0.000  0.000  0.018
tot  0.012  0.012  0.179  0.037  0.000  0.000  0.000  0.000  0.000  0.241
 
# of k-points:    4         # of bands:  14         # of ions:   4

 k-point    1 :    0.00000000 0.00000000 0.00000000     weight = 0.12500000

band   1 # energy  -14.77192830 # occ.  1.00000000
 
ion      s     py     pz     px    dxy    dyz    dz2    dxz    dx2    tot
  1  0.158  0.000  0.000  0.000  0.000  0.000  0.000  0.000  0.000  0.158
  2  0.158  0.000  0.000  0.000  0.000  0.000  0.000  0.000  0.000  0.158
  3  0.158  0.000  0.000  0.000  0.000  0.000  0.000  0.000  0.000  0.158
  4  0.158  0.000  0.000  0.000  0.000  0.000  0.000  0.000  0.000  0.158
tot  0.633  0.000  0.000  0.000  0.000  0.000  0.000  0.000  0.000  0.633
 
band   2 # energy  -14.46424909 # occ.  1.00000000
 
ion      s     py     pz     px    dxy    dyz    dz2    dxz    dx2    tot
  1  0.164  0.000  0.000  0.000  0.000  0.000  0.000  0.000  0.000  0.164
  2  0.165  0.000  0.000  0.000  0.000  0.000  0.000  0.000  0.000  0.165
  3  0.165  0.000  0.000  0.000  0.000  0.000  0.000  0.000  0.000  0.165
  4  0.164  0.000  0.000  0.000  0.000  0.000  0.000  0.000  0.000  0.164
tot  0.657  0.000  0.000  0.000  0.000  0.000  0.000  0.000  0.000  0.657
 
band   3 # energy   -3.68972722 # occ.  1.00000000
 
ion      s     py     pz     px    dxy    dyz    dz2    dxz    dx2    tot
  1  0.000  0.000  0.095  0.000  0.000  0.000  0.000  0.000  0.000  0.095
  2  0.000  0.000  0.096  0.000  0.000  0.000  0.000  0.000  0.000  0.096
  3  0.000  0.000  0.096  0.000  0.000  0.000  0.000  0.000  0.000  0.096
  4  0.000  0.000  0.095  0.000  0.000  0.000  0.000  0.000  0.000  0.095
tot  0.000  0.000  0.381  0.000  0.000  0.000  0.000  0.000  0.000  0.381
 