<?xml version="1.0" encoding="ISO-8859-1"?>
<modeling>
 <generator>
  <i name="program" type="string">vasp </i>
  <i name="version" type="string">5.2.12  </i>
  <i name="subversion" type="string">11Nov11 complex                                                      parallel </i>
  <i name="platform" type="string">LinuxIFC </i>
  <i name="date" type="string">2012 10 17 </i>
  <i name="time" type="string">09:39:30 </i>
 </generator>
 <incar>
  <i type="string" name="PREC">accurate</i>
  <i type="int" name="ISPIN">     2</i>
  <i name="ENCUT">    350.00000000</i>
  <i type="logical" name="LREAL"> F  </i>
  <i type="int" name="ISMEAR">     1</i>
  <i name="SIGMA">      0.05000000</i>
  <i type="logical" name="LORBIT"> F  </i>
 </incar>
 <kpoints>
  <generation param="Gamma">
   <v type="int" name="divisions">       2        2        2 </v>
   <v name="usershift">      0.00000000       0.00000000       0.00000000 </v>
   <v name="genvec1">      0.50000000       0.00000000       0.00000000 </v>
   <v name="genvec2">      0.00000000       0.50000000       0.00000000 </v>
   <v name="genvec3">      0.00000000       0.00000000       0.50000000 </v>
   <v name="shift">      0.00000000       0.00000000       0.00000000 </v>
  </generation>
  <varray name="kpointlist" >
   <v>       0.00000000       0.00000000       0.00000000 </v>
   <v>       0.50000000       0.00000000       0.00000000 </v>
   <v>       0.00000000       0.00000000       0.50000000 </v>
   <v>       0.50000000       0.00000000       0.50000000 </v>
  </varray>
  <varray name="weights" >
   <v>       0.12500000 </v>
   <v>       0.37500000 </v>
   <v>       0.12500000 </v>
   <v>       0.37500000 </v>
  </varray>
 </kpoints>
 <parameters>
  <separator name="general" >
   <i type="string" name="SYSTEM">unknown system</i>
   <i type="logical" name="LCOMPAT"> F  </i>
  </separator>
  <separator name="electronic" >
   <i type="string" name="PREC">accura</i>
   <i name="ENMAX">    350.00000000</i>
   <i name="ENAUG">    644.87300000</i>
   <i name="EDIFF">      0.00010000</i>
   <i type="int" name="IALGO">    38</i>
   <i type="int" name="IWAVPR">    10</i>
   <i type="int" name="NBANDS">    14</i>
   <i name="NELECT">     16.00000000</i>
   <i type="int" name="TURBO">     0</i>
   <i type="int" name="IRESTART">     0</i>
   <i type="int" name="NREBOOT">     0</i>
   <i type="int" name="NMIN">     0</i>
   <i name="EREF">      0.00000000</i>
   <separator name="electronic smearing" >
    <i type="int" name="ISMEAR">     1</i>
    <i name="SIGMA">      0.05000000</i>
    <i name="KSPACING">      0.50000000</i>
    <i type="logical" name="KGAMMA"> T  </i>
   </separator>
   <separator name="electronic projectors" >
    <i type="logical" name="LREAL"> F  </i>
    <v name="ROPT">      0.00000000</v>
    <i type="int" name="LMAXPAW">  -100</i>
    <i type="int" name="LMAXMIX">     2</i>
    <i type="logical" name="NLSPLINE"> F  </i>
   </separator>
   <separator name="electronic startup" >
    <i type="int" name="ISTART">     0</i>
    <i type="int" name="ICHARG">     2</i>
    <i type="int" name="INIWAV">     1</i>
   </separator>
   <separator name="electronic spin" >
    <i type="int" name="ISPIN">     2</i>
    <i type="logical" name="LNONCOLLINEAR"> F  </i>
    <v name="MAGMOM">      1.00000000      1.00000000      1.00000000      1.00000000</v>
    <i name="NUPDOWN">     -1.00000000</i>
    <i type="logical" name="LSORBIT"> F  </i>
    <v name="SAXIS">      0.00000000      0.00000000      1.00000000</v>
    <i type="logical" name="LSPIRAL"> F  </i>
    <v name="QSPIRAL">      0.00000000      0.00000000      0.00000000</v>
    <i type="logical" name="LZEROZ"> F  </i>
   </separator>
   <separator name="electronic exchange-correlation" >
    <i type="logical" name="LASPH"> F  </i>
    <i type="logical" name="LMETAGGA"> F  </i>
   </separator>
   <separator name="electronic convergence" >
    <i type="int" name="NELM">    60</i>
    <i type="int" name="NELMDL">    -5</i>
    <i type="int" name="NELMIN">     2</i>
    <i name="ENINI">    350.00000000</i>
    <separator name="electronic convergence detail" >
     <i type="logical" name="LDIAG"> T  </i>
     <i type="logical" name="LSUBROT"> T  </i>
     <i name="WEIMIN">      0.00000000</i>
     <i name="EBREAK">      0.00000179</i>
     <i name="DEPER">      0.30000000</i>
     <i type="int" name="NRMM">     4</i>
     <i name="TIME">      0.40000000</i>
    </separator>
   </separator>
   <separator name="electronic mixer" >
    <i name="AMIX">      0.40000000</i>
    <i name="BMIX">      1.00000000</i>
    <i name="AMIN">      0.10000000</i>
    <i name="AMIX_MAG">      1.60000000</i>
    <i name="BMIX_MAG">      1.00000000</i>
    <separator name="electronic mixer details" >
     <i type="int" name="IMIX">     4</i>
     <i type="int" name="MAXMIX">   -45</i>
     <i name="WC">    100.00000000</i>
     <i type="int" name="INIMIX">     1</i>
     <i type="int" name="MIXPRE">     1</i>
     <i type="int" name="MREMOVE">     5</i>
    </separator>
   </separator>
   <separator name="electronic dipolcorrection" >
    <i type="logical" name="LDIPOL"> F  </i>
    <i type="logical" name="LMONO"> F  </i>
    <i type="int" name="IDIPOL">     0</i>
    <i name="EPSILON">      1.00000000</i>
    <v name="DIPOL">   -100.00000000   -100.00000000   -100.00000000</v>
    <i name="EFIELD">      0.00000000</i>
   </separator>
  </separator>
  <separator name="grids" >
   <i type="int" name="NGX">    16</i>
   <i type="int" name="NGY">    16</i>
   <i type="int" name="NGZ">    42</i>
   <i type="int" name="NGXF">    32</i>
   <i type="int" name="NGYF">    32</i>
   <i type="int" name="NGZF">    84</i>
   <i type="logical" name="ADDGRID"> F  </i>
  </separator>
  <separator name="ionic" >
   <i type="int" name="NSW">     0</i>
   <i type="int" name="IBRION">    -1</i>
   <i type="int" name="ISIF">     2</i>
   <i name="PSTRESS">      0.00000000</i>
   <i name="EDIFFG">      0.00100000</i>
   <i type="int" name="NFREE">     0</i>
   <i name="POTIM">      0.50000000</i>
   <i name="SMASS">     -3.00000000</i>
   <i name="SCALEE">      1.00000000</i>
  </separator>
  <separator name="ionic md" >
   <i name="TEBEG">      0.00010000</i>
   <i name="TEEND">      0.00010000</i>
   <i type="int" name="NBLOCK">     1</i>
   <i type="int" name="KBLOCK">     1</i>
   <i type="int" name="NPACO">   256</i>
   <i name="APACO">     16.00000000</i>
  </separator>
  <separator name="symmetry" >
   <i type="int" name="ISYM">     2</i>
   <i name="SYMPREC">      0.00001000</i>
  </separator>
  <separator name="dos" >
   <i type="logical" name="LORBIT"> F  </i>
   <v name="RWIGS">     -1.00000000</v>
   <i type="int" name="NEDOS">   301</i>
   <i name="EMIN">     10.00000000</i>
   <i name="EMAX">    -10.00000000</i>
   <i name="EFERMI">      0.00000000</i>
  </separator>
  <separator name="writing" >
   <i type="int" name="NWRITE">     2</i>
   <i type="logical" name="LWAVE"> T  </i>
   <i type="logical" name="LCHARG"> T  </i>
   <i type="logical" name="LPARD"> F  </i>
   <i type="logical" name="LVTOT"> F  </i>
   <i type="logical" name="LVHAR"> F  </i>
   <i type="logical" name="LELF"> F  </i>
   <i type="logical" name="LOPTICS"> F  </i>
   <v name="STM">      0.00000000      0.00000000      0.00000000      0.00000000      0.00000000      0.00000000      0.00000000</v>
  </separator>
  <separator name="performance" >
   <i type="int" name="NPAR">     1</i>
   <i type="int" name="NSIM">     4</i>
   <i type="int" name="NBLK">    -1</i>
   <i type="logical" name="LPLANE"> T  </i>
   <i type="logical" name="LSCALAPACK"> F  </i>
   <i type="logical" name="LSCAAWARE"> F  </i>
   <i type="logical" name="LSCALU"> F  </i>
   <i type="logical" name="LASYNC"> F  </i>
   <i type="logical" name="LORBITALREAL"> F  </i>
  </separator>
  <separator name="miscellaneous" >
   <i type="int" name="IDIOT">     3</i>
   <i type="logical" name="LMUSIC"> F  </i>
   <v name="POMASS">     12.01100000</v>
   <v name="DARWINR">      0.00000000</v>
   <v name="DARWINV">      1.00000000</v>
   <i type="logical" name="LCORR"> T  </i>
  </separator>
  <i type="logical" name="GGA_COMPAT"> T  </i>
  <i type="logical" name="LBERRY"> F  </i>
  <i type="int" name="ICORELEVEL">     0</i>
  <i type="logical" name="LDAU"> F  </i>
  <i type="int" name="I_CONSTRAINED_M">     0</i>
  <separator name="electronic exchange-correlation" >
   <i type="string" name="GGA">--</i>
   <i type="int" name="VOSKOWN">     0</i>
   <i type="logical" name="LHFCALC"> F  </i>
   <i type="string" name="PRECFOCK"></i>
   <i type="logical" name="LHFONE"> F  </i>
   <i type="logical" name="LRHFCALC"> F  </i>
   <i type="logical" name="LTHOMAS"> F  </i>
   <i type="logical" name="LMODELHF"> F  </i>
   <i name="ENCUT4O">     -1.00000000</i>
   <i type="int" name="EXXOEP">     0</i>
   <i type="int" name="FOURORBIT">     0</i>
   <i name="AEXX">      0.00000000</i>
   <i name="HFALPHA">      0.00000000</i>
   <i name="ALDAX">      1.00000000</i>
   <i name="AGGAX">      1.00000000</i>
   <i name="ALDAC">      1.00000000</i>
   <i name="AGGAC">      1.00000000</i>
   <i type="int" name="NKREDX">     1</i>
   <i type="int" name="NKREDY">     1</i>
   <i type="int" name="NKREDZ">     1</i>
   <i type="logical" name="SHIFTRED"> F  </i>
   <i type="logical" name="ODDONLY"> F  </i>
   <i type="logical" name="EVENONLY"> F  </i>
   <i type="int" name="LMAXFOCK">     0</i>
   <i type="int" name="NMAXFOCKAE">     0</i>
   <i type="logical" name="LFOCKAEDFT"> F  </i>
   <i name="HFSCREEN">      0.00000000</i>
   <i name="HFSCREENC">      0.00000000</i>
  </separator>
  <separator name="vdW DFT" >
   <i type="logical" name="LUSE_VDW"> F  </i>
   <i name="Zab_VDW">     -0.84910000</i>
   <i name="PARAM1">      0.12340000</i>
   <i name="PARAM2">      1.00000000</i>
   <i name="PARAM3">      0.00000000</i>
  </separator>
  <separator name="model GW" >
   <i type="int" name="MODEL_GW">     0</i>
   <i name="MODEL_EPS0">      5.27839982</i>
   <i name="MODEL_ALPHA">      1.00000000</i>
  </separator>
  <separator name="linear response parameters" >
   <i type="logical" name="LEPSILON"> F  </i>
   <i type="logical" name="LRPA"> F  </i>
   <i type="logical" name="LNABLA"> F  </i>
   <i type="logical" name="LVEL"> F  </i>
   <i type="int" name="KINTER">     0</i>
   <i name="CSHIFT">      0.10000000</i>
   <i name="OMEGAMAX">     -1.00000000</i>
  </separator>
  <separator name="orbital magnetization" >
   <i type="logical" name="NUCIND"> F  </i>
   <v name="MAGPOS">      0.00000000      0.00000000      0.00000000</v>
   <i type="logical" name="LNICSALL"> T  </i>
   <i type="logical" name="ORBITALMAG"> F  </i>
   <i type="logical" name="LMAGBLOCH"> F  </i>
   <i type="logical" name="LCHIMAG"> F  </i>
   <i type="logical" name="LGAUGE"> T  </i>
   <i type="int" name="MAGATOM">     0</i>
   <v name="MAGDIPOL">      0.00000000      0.00000000      0.00000000</v>
   <v name="AVECCONST">      0.00000000      0.00000000      0.00000000</v>
  </separator>
  <separator name="response functions" >
   <i type="logical" name="LADDER"> F  </i>
   <i type="logical" name="LHARTREE"> T  </i>
   <i type="int" name="IBSE">     0</i>
   <i type="logical" name="LTCTE"> F  </i>
   <i type="logical" name="LTETE"> F  </i>
   <i type="logical" name="LFXCEPS"> F  </i>
   <i type="logical" name="L2ORDER"> F  </i>
   <i type="logical" name="LUSEW"> F  </i>
   <i name="ENCUTGW">     -2.00000000</i>
   <i name="ENCUTGWSOFT">     -2.00000000</i>
   <i name="ENCUTLF">     -1.00000000</i>
   <i type="int" name="LMAXMP2">    -1</i>
   <i name="SCISSOR">      0.00000000</i>
   <i type="int" name="NOMEGA">     0</i>
   <i type="int" name="NOMEGAR">     0</i>
   <i type="int" name="NBANDSGW">    -1</i>
   <i type="int" name="NBANDSO">    -1</i>
   <i type="int" name="NBANDSV">    -1</i>
   <i name="OPTEMAX">      0.00000000</i>
   <i type="int" name="NELM">     1</i>
   <i type="int" name="DIM">     3</i>
   <i type="int" name="ANTIRES">     0</i>
   <i name="OMEGAMAX">    -30.00000000</i>
   <i name="OMEGATL">   -200.00000000</i>
   <i type="int" name="OMEGAGRID">     0</i>
   <i name="CSHIFT">     -0.10000000</i>
   <i type="logical" name="SELFENERGY"> F  </i>
   <i type="logical" name="LSPECTRAL"> F  </i>
   <i type="logical" name="ODDONLYGW"> F  </i>
   <i type="logical" name="EVENONLYGW"> F  </i>
   <i type="int" name="NKREDLFX">     1</i>
   <i type="int" name="NKREDLFY">     1</i>
   <i type="int" name="NKREDLFZ">     1</i>
   <i type="int" name="MAXMEM">  1800</i>
   <i type="int" name="TELESCOPE">     0</i>
  </separator>
 </parameters>
 <atominfo>
  <atoms>       4 </atoms>
  <types>       1 </types>
  <array name="atoms" >
   <dimension dim="1">ion</dimension>
   <field type="string">element</field>
   <field type="int">atomtype</field>
   <set>
    <rc><c>C </c><c>   1</c></rc>
    <rc><c>C </c><c>   1</c></rc>
    <rc><c>C </c><c>   1</c></rc>
    <rc><c>C </c><c>   1</c></rc>
   </set>
  </array>
  <array name="atomtypes" >
   <dimension dim="1">type</dimension>
   <field type="int">atomspertype</field>
   <field type="string">element</field>
   <field>mass</field>
   <field>valence</field>
   <field type="string">pseudopotential</field>
   <set>
    <rc><c>   4</c><c>C </c><c>     12.01100000</c><c>      4.00000000</c><c> PAW_PBE C 08Apr2002                    </c></rc>
   </set>
  </array>
 </atominfo>
 <structure name="initialpos" >
  <crystal>
   <varray name="basis" >
    <v>       2.46120000       0.00000000       0.00000000 </v>
    <v>      -1.23060000       2.13146172       0.00000000 </v>
    <v>       0.00000000       0.00000000       6.70790000 </v>
   </varray>
   <i name="volume">     35.18933212 </i>
   <varray name="rec_basis" >
    <v>       0.40630587       0.23458080       0.00000000 </v>
    <v>       0.00000000       0.46916160       0.00000000 </v>
    <v>       0.00000000       0.00000000       0.14907795 </v>
   </varray>
  </crystal>
  <varray name="positions" >
   <v>       0.00000000       0.00000000       0.00000000 </v>
   <v>       0.33333333       0.66666667       0.00000000 </v>
   <v>       0.33333333       0.66666667       0.50000000 </v>
   <v>       0.66666667       0.33333333       0.50000000 </v>
  </varray>
 </structure>
 <calculation>
  <scstep>
   <time name="dav">    0.42    0.43</time>
   <time name="total">    0.77    0.77</time>
   <energy>
    <i name="alphaZ">     37.04766603 </i>
    <i name="ewald">   -460.60042082 </i>
    <i name="hartreedc">   -148.78490797 </i>
    <i name="XCdc">     56.10990993 </i>
    <i name="pawpsdc">    150.95130483 </i>
    <i name="pawaedc">   -155.51722924 </i>
    <i name="eentropy">     -0.00159114 </i>
    <i name="bandstr">    -45.82537649 </i>
    <i name="atom">    588.28246388 </i>
    <i name="e_fr_energy">     21.66181900 </i>
    <i name="e_wo_entrp">     21.66341014 </i>
    <i name="e_0_energy">     21.66234938 </i>
   </energy>
  </scstep>
  <scstep>
   <time name="dav">    0.53    0.53</time>
   <time name="total">    0.53    0.54</time>
   <energy>
    <i name="e_fr_energy">    -32.22752012 </i>
    <i name="e_wo_entrp">    -32.22806367 </i>
    <i name="e_0_energy">    -32.22770130 </i>
   </energy>
  </scstep>
  <scstep>
   <time name="dav">    0.60    0.60</time>
   <time name="total">    0.61    0.92</time>
   <energy>
    <i name="e_fr_energy">    -33.96362265 </i>
    <i name="e_wo_entrp">    -33.96416620 </i>
    <i name="e_0_energy">    -33.96380383 </i>
   </energy>
  </scstep>
  <scstep>
   <time name="dav">    0.51    0.51</time>
   <time name="total">    0.51    0.52</time>
   <energy>
    <i name="e_fr_energy">    -33.97869287 </i>
    <i name="e_wo_entrp">    -33.97923642 </i>
    <i name="e_0_energy">    -33.97887405 </i>
   </energy>
  </scstep>
  <scstep>
   <time name="dav">    0.58    0.58</time>
   <time name="total">    0.65    0.66</time>
   <energy>
    <i name="e_fr_energy">    -33.97900164 </i>
    <i name="e_wo_entrp">    -33.97954519 </i>
    <i name="e_0_energy">    -33.97918282 </i>
   </energy>
  </scstep>
  <scstep>
   <time name="dav">    0.47    0.47</time>
   <time name="total">    0.89    0.90</time>
   <energy>
    <i name="e_fr_energy">    -32.82798849 </i>
    <i name="e_wo_entrp">    -32.82853205 </i>
    <i name="e_0_energy">    -32.82816968 </i>
   </energy>
  </scstep>
  <scstep>
   <time name="dav">    0.47    0.47</time>
   <time name="total">    0.90    0.92</time>
   <energy>
    <i name="e_fr_energy">    -32.82004089 </i>
    <i name="e_wo_entrp">    -32.82117378 </i>
    <i name="e_0_energy">    -32.82041852 </i>
   </energy>
  </scstep>
  <scstep>
   <time name="dav">    0.53    0.53</time>
   <time name="total">    0.95    0.96</time>
   <energy>
    <i name="e_fr_energy">    -32.76904247 </i>
    <i name="e_wo_entrp">    -32.77019402 </i>
    <i name="e_0_energy">    -32.76942632 </i>
   </energy>
  </scstep>
  <scstep>
   <time name="dav">    0.45    0.45</time>
   <time name="total">    0.87    0.89</time>
   <energy>
    <i name="e_fr_energy">    -32.78317680 </i>
    <i name="e_wo_entrp">    -32.78395801 </i>
    <i name="e_0_energy">    -32.78343720 </i>
   </energy>
  </scstep>
  <scstep>
   <time name="dav">    0.51    0.51</time>
   <time name="total">    0.93    0.95</time>
   <energy>
    <i name="e_fr_energy">    -32.78459317 </i>
    <i name="e_wo_entrp">    -32.78571462 </i>
    <i name="e_0_energy">    -32.78496699 </i>
   </energy>
  </scstep>
  <scstep>
   <time name="dav">    0.50    0.50</time>
   <time name="total">    0.92    0.93</time>
   <energy>
    <i name="e_fr_energy">    -32.78499242 </i>
    <i name="e_wo_entrp">    -32.78619563 </i>
    <i name="e_0_energy">    -32.78539349 </i>
   </energy>
  </scstep>
  <scstep>
   <time name="dav">    0.47    0.47</time>
   <time name="total">    0.83    0.84</time>
   <energy>
    <i name="alphaZ">     37.04766603 </i>
    <i name="ewald">   -460.60042082 </i>
    <i name="hartreedc">   -187.32434662 </i>
    <i name="XCdc">     57.99781435 </i>
    <i name="pawpsdc">    288.34743558 </i>
    <i name="pawaedc">   -293.55458716 </i>
    <i name="eentropy">      0.00120449 </i>
    <i name="bandstr">    -62.98225914 </i>
    <i name="atom">    588.28246388 </i>
    <i name="e_fr_energy">    -32.78502941 </i>
    <i name="e_wo_entrp">    -32.78623390 </i>
    <i name="e_0_energy">    -32.78543091 </i>
   </energy>
  </scstep>
  <parameters_embedded>
   <separator name="dft+d2" >
    <i type="logical" name="LVDW"> F  </i>
   </separator>
  </parameters_embedded>
  <structure>
   <crystal>
    <varray name="basis" >
     <v>       2.46120000       0.00000000       0.00000000 </v>
     <v>      -1.23060000       2.13146172       0.00000000 </v>
     <v>       0.00000000       0.00000000       6.70790000 </v>
    </varray>
    <i name="volume">     35.18933212 </i>
    <varray name="rec_basis" >
     <v>       0.40630587       0.23458080       0.00000000 </v>
     <v>       0.00000000       0.46916160       0.00000000 </v>
     <v>       0.00000000       0.00000000       0.14907795 </v>
    </varray>
   </crystal>
   <varray name="positions" >
    <v>       0.00000000       0.00000000       0.00000000 </v>
    <v>       0.33333333       0.66666667       0.00000000 </v>
    <v>       0.33333333       0.66666667       0.50000000 </v>
    <v>       0.66666667       0.33333333       0.50000000 </v>
   </varray>
  </structure>
  <varray name="forces" >
   <v>       0.00000000       0.00000000       0.00000000 </v>
   <v>       0.00000000       0.00000000       0.00000000 </v>
   <v>       0.00000000       0.00000000       0.00000000 </v>
   <v>       0.00000000       0.00000000       0.00000000 </v>
  </varray>
  <varray name="stress" >
   <v>     186.15441297       0.00000000       0.00000000 </v>
   <v>       0.00000000     186.15441297       0.00000000 </v>
   <v>       0.00000000       0.00000000    -101.21330930 </v>
  </varray>
  <energy>
   <i name="e_fr_energy">    -32.78502941 </i>
   <i name="e_wo_entrp">    -32.78543091 </i>
   <i name="e_0_energy">      0.00120449 </i>
  </energy>
  <time name="totalsc">   10.41   10.94</time>
  <eigenvalues>
   <array>
    <dimension dim="1">band</dimension>
    <dimension dim="2">kpoint</dimension>
    <dimension dim="3">spin</dimension>
    <field>eigene</field>
    <field>occ</field>
    <set>
     <set comment="spin 1">
      <set comment="kpoint 1">
       <r>  -14.7824    1.0000 </r>
       <r>  -14.4744    1.0000 </r>
       <r>   -3.7112    1.0000 </r>
       <r>   -1.7060    1.0000 </r>
       <r>    2.0281    1.0000 </r>
       <r>    2.0282    1.0000 </r>
       <r>    2.0338    1.0000 </r>
       <r>    2.0339    1.0000 </r>
       <r>    8.9822    0.0000 </r>
       <r>   13.3594    0.0000 </r>
       <r>   13.3595    0.0000 </r>
       <r>   13.4239    0.0000 </r>
       <r>   13.4240    0.0000 </r>
       <r>   15.3912    0.0000 </r>
      </set>
      <set comment="kpoint 2">
       <r>   -9.3977    1.0000 </r>
       <r>   -9.2834    1.0000 </r>
       <r>   -8.3428    1.0000 </r>
       <r>   -8.2574    1.0000 </r>
       <r>   -1.4371    1.0000 </r>
       <r>   -1.3778    1.0000 </r>
       <r>    2.0818    1.0000 </r>
       <r>    2.7914    1.0350 </r>
       <r>    6.4016    0.0000 </r>
       <r>    7.0846    0.0000 </r>
       <r>   12.1566    0.0000 </r>
       <r>   12.5657    0.0000 </r>
       <r>   16.0251    0.0000 </r>
       <r>   16.1884    0.0000 </r>
      </set>
      <set comment="kpoint 3">
       <r>  -14.6338    1.0000 </r>
       <r>  -14.6338    1.0000 </r>
       <r>   -2.8137    1.0000 </r>
       <r>   -2.8137    1.0000 </r>
       <r>    2.0202    1.0000 </r>
       <r>    2.0202    1.0000 </r>
       <r>    2.0203    1.0000 </r>
       <r>    2.0203    1.0000 </r>
       <r>   11.6619    0.0000 </r>
       <r>   11.6619    0.0000 </r>
       <r>   13.3701    0.0000 </r>
       <r>   13.3701    0.0000 </r>
       <r>   13.3702    0.0000 </r>
       <r>   13.3702    0.0000 </r>
      </set>
      <set comment="kpoint 4">
       <r>   -9.3354    1.0000 </r>
       <r>   -9.3354    1.0000 </r>
       <r>   -8.3116    1.0000 </r>
       <r>   -8.3115    1.0000 </r>
       <r>   -1.4029    1.0000 </r>
       <r>   -1.4029    1.0000 </r>
       <r>    2.5048    1.0000 </r>
       <r>    2.5048    1.0000 </r>
       <r>    6.5373    0.0000 </r>
       <r>    6.5373    0.0000 </r>
       <r>   12.3534    0.0000 </r>
       <r>   12.3534    0.0000 </r>
       <r>   17.4205    0.0000 </r>
       <r>   17.4205    0.0000 </r>
      </set>
     </set>
     <set comment="spin 2">
      <set comment="kpoint 1">
       <r>  -14.7719    1.0000 </r>
       <r>  -14.4642    1.0000 </r>
       <r>   -3.6897    1.0000 </r>
       <r>   -1.6821    1.0000 </r>
       <r>    2.0331    1.0000 </r>
       <r>    2.0332    1.0000 </r>
       <r>    2.0387    1.0000 </r>
       <r>    2.0388    1.0000 </r>
       <r>    8.9935    0.0000 </r>
       <r>   13.3645    0.0000 </r>
       <r>   13.3645    0.0000 </r>
       <r>   13.4288    0.0000 </r>
       <r>   13.4288    0.0000 </r>
       <r>   15.4086    0.0000 </r>
      </set>
      <set comment="kpoint 2">
       <r>   -9.3872    1.0000 </r>
       <r>   -9.2722    1.0000 </r>
       <r>   -8.3358    1.0000 </r>
       <r>   -8.2498    1.0000 </r>
       <r>   -1.4322    1.0000 </r>
       <r>   -1.3730    1.0000 </r>
       <r>    2.1042    1.0000 </r>
       <r>    2.8199    0.9650 </r>
       <r>    6.4222    0.0000 </r>
       <r>    7.1127    0.0000 </r>
       <r>   12.1692    0.0000 </r>
       <r>   12.5781    0.0000 </r>
       <r>   16.0318    0.0000 </r>
       <r>   16.2048    0.0000 </r>
      </set>
      <set comment="kpoint 3">
       <r>  -14.6235    1.0000 </r>
       <r>  -14.6235    1.0000 </r>
       <r>   -2.7913    1.0000 </r>
       <r>   -2.7913    1.0000 </r>
       <r>    2.0251    1.0000 </r>
       <r>    2.0252    1.0000 </r>
       <r>    2.0252    1.0000 </r>
       <r>    2.0252    1.0000 </r>
       <r>   11.6759    0.0000 </r>
       <r>   11.6759    0.0000 </r>
       <r>   13.3751    0.0000 </r>
       <r>   13.3751    0.0000 </r>
       <r>   13.3751    0.0000 </r>
       <r>   13.3751    0.0000 </r>
      </set>
      <set comment="kpoint 4">
       <r>   -9.3246    1.0000 </r>
       <r>   -9.3246    1.0000 </r>
       <r>   -8.3043    1.0000 </r>
       <r>   -8.3043    1.0000 </r>
       <r>   -1.3980    1.0000 </r>
       <r>   -1.3980    1.0000 </r>
       <r>    2.5300    1.0000 </r>
       <r>    2.5300    1.0000 </r>
       <r>    6.5612    0.0000 </r>
       <r>    6.5612    0.0000 </r>
       <r>   12.3660    0.0000 </r>
       <r>   12.3660    0.0000 </r>
       <r>   17.4390    0.0000 </r>
       <r>   17.4390    0.0000 </r>
      </set>
     </set>
    </set>
   </array>
  </eigenvalues>
  <separator name="orbital magnetization" >
   <v name="MAGDIPOLOUT">      0.00000000      0.00000000      0.00000000</v>
  </separator>
  <dos>
   <i name="efermi">      2.85561814 </i>
   <total>
    <array>
     <dimension dim="1">gridpoints</dimension>
     <dimension dim="2">spin</dimension>
     <field>energy</field>
     <field>total</field>
     <field>integrated</field>
     <set>
      <set comment="spin 1">
       <r>   -16.3934     0.0000     0.0000 </r>
       <r>   -16.2753     0.0000     0.0000 </r>
       <r>   -16.1571     0.0000     0.0000 </r>
       <r>   -16.0390     0.0000     0.0000 </r>
       <r>   -15.9208     0.0000     0.0000 </r>
       <r>   -15.8027     0.0000     0.0000 </r>
       <r>   -15.6846     0.0000     0.0000 </r>
       <r>   -15.5664     0.0000     0.0000 </r>
       <r>   -15.4483     0.0000     0.0000 </r>
       <r>   -15.3301     0.0000     0.0000 </r>
       <r>   -15.2120     0.0000     0.0000 </r>
       <r>   -15.0938     0.0000     0.0000 </r>
       <r>   -14.9757     0.0000     0.0000 </r>
       <r>   -14.8575    -0.0291    -0.0034 </r>
       <r>   -14.7394     1.0794     0.1241 </r>
       <r>   -14.6212     1.4992     0.3012 </r>
       <r>   -14.5031     0.7233     0.3867 </r>
       <r>   -14.3850     0.9750     0.5019 </r>
       <r>   -14.2668    -0.0157     0.5000 </r>
       <r>   -14.1487     0.0000     0.5000 </r>
       <r>   -14.0305     0.0000     0.5000 </r>
       <r>   -13.9124     0.0000     0.5000 </r>
       <r>   -13.7942     0.0000     0.5000 </r>
       <r>   -13.6761     0.0000     0.5000 </r>
       <r>   -13.5579     0.0000     0.5000 </r>
       <r>   -13.4398     0.0000     0.5000 </r>
       <r>   -13.3217     0.0000     0.5000 </r>
       <r>   -13.2035     0.0000     0.5000 </r>
       <r>   -13.0854     0.0000     0.5000 </r>
       <r>   -12.9672     0.0000     0.5000 </r>
       <r>   -12.8491     0.0000     0.5000 </r>
       <r>   -12.7309     0.0000     0.5000 </r>
       <r>   -12.6128     0.0000     0.5000 </r>
       <r>   -12.4946     0.0000     0.5000 </r>
       <r>   -12.3765     0.0000     0.5000 </r>
       <r>   -12.2583     0.0000     0.5000 </r>
       <r>   -12.1402     0.0000     0.5000 </r>
       <r>   -12.0221     0.0000     0.5000 </r>
       <r>   -11.9039     0.0000     0.5000 </r>
       <r>   -11.7858     0.0000     0.5000 </r>
       <r>   -11.6676     0.0000     0.5000 </r>
       <r>   -11.5495     0.0000     0.5000 </r>
       <r>   -11.4313     0.0000     0.5000 </r>
       <r>   -11.3132     0.0000     0.5000 </r>
       <r>   -11.1950     0.0000     0.5000 </r>
       <r>   -11.0769     0.0000     0.5000 </r>
       <r>   -10.9588     0.0000     0.5000 </r>
       <r>   -10.8406     0.0000     0.5000 </r>
       <r>   -10.7225     0.0000     0.5000 </r>
       <r>   -10.6043     0.0000     0.5000 </r>
       <r>   -10.4862     0.0000     0.5000 </r>
       <r>   -10.3680     0.0000     0.5000 </r>
       <r>   -10.2499     0.0000     0.5000 </r>
       <r>   -10.1317     0.0000     0.5000 </r>
       <r>   -10.0136     0.0000     0.5000 </r>
       <r>    -9.8954     0.0000     0.5000 </r>
       <r>    -9.7773     0.0000     0.5000 </r>
       <r>    -9.6592     0.0000     0.5000 </r>
       <r>    -9.5410    -0.0006     0.4999 </r>
       <r>    -9.4229     0.3019     0.5356 </r>
       <r>    -9.3047     9.3366     1.6387 </r>
       <r>    -9.1866     3.0901     2.0038 </r>
       <r>    -9.0684    -0.0317     2.0000 </r>
       <r>    -8.9503     0.0000     2.0000 </r>
       <r>    -8.8321     0.0000     2.0000 </r>
       <r>    -8.7140     0.0000     2.0000 </r>
       <r>    -8.5959     0.0000     2.0000 </r>
       <r>    -8.4777    -0.0015     1.9998 </r>
       <r>    -8.3596     0.5888     2.0694 </r>
       <r>    -8.2414    11.5568     3.4348 </r>
       <r>    -8.1233     0.5538     3.5002 </r>
       <r>    -8.0051    -0.0016     3.5000 </r>
       <r>    -7.8870     0.0000     3.5000 </r>
       <r>    -7.7688     0.0000     3.5000 </r>
       <r>    -7.6507     0.0000     3.5000 </r>
       <r>    -7.5326     0.0000     3.5000 </r>
       <r>    -7.4144     0.0000     3.5000 </r>
       <r>    -7.2963     0.0000     3.5000 </r>
       <r>    -7.1781     0.0000     3.5000 </r>
       <r>    -7.0600     0.0000     3.5000 </r>
       <r>    -6.9418     0.0000     3.5000 </r>
       <r>    -6.8237     0.0000     3.5000 </r>
       <r>    -6.7055     0.0000     3.5000 </r>
       <r>    -6.5874     0.0000     3.5000 </r>
       <r>    -6.4692     0.0000     3.5000 </r>
       <r>    -6.3511     0.0000     3.5000 </r>
       <r>    -6.2330     0.0000     3.5000 </r>
       <r>    -6.1148     0.0000     3.5000 </r>
       <r>    -5.9967     0.0000     3.5000 </r>
       <r>    -5.8785     0.0000     3.5000 </r>
       <r>    -5.7604     0.0000     3.5000 </r>
       <r>    -5.6422     0.0000     3.5000 </r>
       <r>    -5.5241     0.0000     3.5000 </r>
       <r>    -5.4059     0.0000     3.5000 </r>
       <r>    -5.2878     0.0000     3.5000 </r>
       <r>    -5.1697     0.0000     3.5000 </r>
       <r>    -5.0515     0.0000     3.5000 </r>
       <r>    -4.9334     0.0000     3.5000 </r>
       <r>    -4.8152     0.0000     3.5000 </r>
       <r>    -4.6971     0.0000     3.5000 </r>
       <r>    -4.5789     0.0000     3.5000 </r>
       <r>    -4.4608     0.0000     3.5000 </r>
       <r>    -4.3426     0.0000     3.5000 </r>
       <r>    -4.2245     0.0000     3.5000 </r>
       <r>    -4.1063     0.0000     3.5000 </r>
       <r>    -3.9882     0.0000     3.5000 </r>
       <r>    -3.8701     0.0000     3.5000 </r>
       <r>    -3.7519     0.0070     3.5008 </r>
       <r>    -3.6338     1.0779     3.6282 </r>
       <r>    -3.5156    -0.0269     3.6250 </r>
       <r>    -3.3975     0.0000     3.6250 </r>
       <r>    -3.2793     0.0000     3.6250 </r>
       <r>    -3.1612     0.0000     3.6250 </r>
       <r>    -3.0430     0.0000     3.6250 </r>
       <r>    -2.9249    -0.0077     3.6241 </r>
       <r>    -2.8068     1.3107     3.7789 </r>
       <r>    -2.6886     0.8154     3.8753 </r>
       <r>    -2.5705    -0.0024     3.8750 </r>
       <r>    -2.4523     0.0000     3.8750 </r>
       <r>    -2.3342     0.0000     3.8750 </r>
       <r>    -2.2160     0.0000     3.8750 </r>
       <r>    -2.0979     0.0000     3.8750 </r>
       <r>    -1.9797     0.0000     3.8750 </r>
       <r>    -1.8616    -0.0001     3.8750 </r>
       <r>    -1.7434     0.0257     3.8780 </r>
       <r>    -1.6253     1.0561     4.0028 </r>
       <r>    -1.5072    -0.1649     3.9833 </r>
       <r>    -1.3890     8.9833     5.0447 </r>
       <r>    -1.2709     3.8738     5.5023 </r>
       <r>    -1.1527    -0.0197     5.5000 </r>
       <r>    -1.0346     0.0000     5.5000 </r>
       <r>    -0.9164     0.0000     5.5000 </r>
       <r>    -0.7983     0.0000     5.5000 </r>
       <r>    -0.6801     0.0000     5.5000 </r>
       <r>    -0.5620     0.0000     5.5000 </r>
       <r>    -0.4439     0.0000     5.5000 </r>
       <r>    -0.3257     0.0000     5.5000 </r>
       <r>    -0.2076     0.0000     5.5000 </r>
       <r>    -0.0894     0.0000     5.5000 </r>
       <r>     0.0287     0.0000     5.5000 </r>
       <r>     0.1469     0.0000     5.5000 </r>
       <r>     0.2650     0.0000     5.5000 </r>
       <r>     0.3832     0.0000     5.5000 </r>
       <r>     0.5013     0.0000     5.5000 </r>
       <r>     0.6194     0.0000     5.5000 </r>
       <r>     0.7376     0.0000     5.5000 </r>
       <r>     0.8557     0.0000     5.5000 </r>
       <r>     0.9739     0.0000     5.5000 </r>
       <r>     1.0920     0.0000     5.5000 </r>
       <r>     1.2102     0.0000     5.5000 </r>
       <r>     1.3283     0.0000     5.5000 </r>
       <r>     1.4465     0.0000     5.5000 </r>
       <r>     1.5646     0.0000     5.5000 </r>
       <r>     1.6828     0.0000     5.5000 </r>
       <r>     1.8009     0.0000     5.5000 </r>
       <r>     1.9190    -0.0461     5.4946 </r>
       <r>     2.0372     5.8202     6.1822 </r>
       <r>     2.1553     5.9633     6.8867 </r>
       <r>     2.2735    -0.0992     6.8750 </r>
       <r>     2.3916    -0.0198     6.8727 </r>
       <r>     2.5098     3.7222     7.3124 </r>
       <r>     2.6279     2.6544     7.6260 </r>
       <r>     2.7461    -0.0486     7.6203 </r>
       <r>     2.8642     3.3079     8.0111 </r>
       <r>     2.9823    -0.0938     8.0000 </r>
       <r>     3.1005     0.0000     8.0000 </r>
       <r>     3.2186     0.0000     8.0000 </r>
       <r>     3.3368     0.0000     8.0000 </r>
       <r>     3.4549     0.0000     8.0000 </r>
       <r>     3.5731     0.0000     8.0000 </r>
       <r>     3.6912     0.0000     8.0000 </r>
       <r>     3.8094     0.0000     8.0000 </r>
       <r>     3.9275     0.0000     8.0000 </r>
       <r>     4.0457     0.0000     8.0000 </r>
       <r>     4.1638     0.0000     8.0000 </r>
       <r>     4.2819     0.0000     8.0000 </r>
       <r>     4.4001     0.0000     8.0000 </r>
       <r>     4.5182     0.0000     8.0000 </r>
       <r>     4.6364     0.0000     8.0000 </r>
       <r>     4.7545     0.0000     8.0000 </r>
       <r>     4.8727     0.0000     8.0000 </r>
       <r>     4.9908     0.0000     8.0000 </r>
       <r>     5.1090     0.0000     8.0000 </r>
       <r>     5.2271     0.0000     8.0000 </r>
       <r>     5.3452     0.0000     8.0000 </r>
       <r>     5.4634     0.0000     8.0000 </r>
       <r>     5.5815     0.0000     8.0000 </r>
       <r>     5.6997     0.0000     8.0000 </r>
       <r>     5.8178     0.0000     8.0000 </r>
       <r>     5.9360     0.0000     8.0000 </r>
       <r>     6.0541     0.0000     8.0000 </r>
       <r>     6.1723     0.0000     8.0000 </r>
       <r>     6.2904    -0.0115     7.9986 </r>
       <r>     6.4086     1.9625     8.2305 </r>
       <r>     6.5267     3.2896     8.6191 </r>
       <r>     6.6448     4.3119     9.1286 </r>
       <r>     6.7630    -0.0303     9.1250 </r>
       <r>     6.8811     0.0000     9.1250 </r>
       <r>     6.9993    -0.0579     9.1182 </r>
       <r>     7.1174     3.0528     9.4788 </r>
       <r>     7.2356     0.1795     9.5000 </r>
       <r>     7.3537    -0.0003     9.5000 </r>
       <r>     7.4719     0.0000     9.5000 </r>
       <r>     7.5900     0.0000     9.5000 </r>
       <r>     7.7081     0.0000     9.5000 </r>
       <r>     7.8263     0.0000     9.5000 </r>
       <r>     7.9444     0.0000     9.5000 </r>
       <r>     8.0626     0.0000     9.5000 </r>
       <r>     8.1807     0.0000     9.5000 </r>
       <r>     8.2989     0.0000     9.5000 </r>
       <r>     8.4170     0.0000     9.5000 </r>
       <r>     8.5352     0.0000     9.5000 </r>
       <r>     8.6533     0.0000     9.5000 </r>
       <r>     8.7714     0.0000     9.5000 </r>
       <r>     8.8896    -0.0132     9.4984 </r>
       <r>     9.0077     0.9398     9.6095 </r>
       <r>     9.1259     0.1317     9.6250 </r>
       <r>     9.2440    -0.0002     9.6250 </r>
       <r>     9.3622     0.0000     9.6250 </r>
       <r>     9.4803     0.0000     9.6250 </r>
       <r>     9.5985     0.0000     9.6250 </r>
       <r>     9.7166     0.0000     9.6250 </r>
       <r>     9.8348     0.0000     9.6250 </r>
       <r>     9.9529     0.0000     9.6250 </r>
       <r>    10.0710     0.0000     9.6250 </r>
       <r>    10.1892     0.0000     9.6250 </r>
       <r>    10.3073     0.0000     9.6250 </r>
       <r>    10.4255     0.0000     9.6250 </r>
       <r>    10.5436     0.0000     9.6250 </r>
       <r>    10.6618     0.0000     9.6250 </r>
       <r>    10.7799     0.0000     9.6250 </r>
       <r>    10.8981     0.0000     9.6250 </r>
       <r>    11.0162     0.0000     9.6250 </r>
       <r>    11.1343     0.0000     9.6250 </r>
       <r>    11.2525     0.0000     9.6250 </r>
       <r>    11.3706     0.0000     9.6250 </r>
       <r>    11.4888     0.0000     9.6250 </r>
       <r>    11.6069    -0.0690     9.6169 </r>
       <r>    11.7251     2.2596     9.8838 </r>
       <r>    11.8432    -0.0746     9.8750 </r>
       <r>    11.9614     0.0000     9.8750 </r>
       <r>    12.0795    -0.0818     9.8653 </r>
       <r>    12.1977     3.2409    10.2482 </r>
       <r>    12.3158     0.1643    10.2676 </r>
       <r>    12.4339     6.3398    11.0167 </r>
       <r>    12.5521     0.7460    11.1048 </r>
       <r>    12.6702     2.3057    11.3772 </r>
       <r>    12.7884    -0.0187    11.3750 </r>
       <r>    12.9065     0.0000    11.3750 </r>
       <r>    13.0247     0.0000    11.3750 </r>
       <r>    13.1428     0.0000    11.3750 </r>
       <r>    13.2610    -0.0365    11.3707 </r>
       <r>    13.3791     4.4645    11.8981 </r>
       <r>    13.4972     4.1026    12.3829 </r>
       <r>    13.6154    -0.0665    12.3750 </r>
       <r>    13.7335     0.0000    12.3750 </r>
       <r>    13.8517     0.0000    12.3750 </r>
       <r>    13.9698     0.0000    12.3750 </r>
       <r>    14.0880     0.0000    12.3750 </r>
       <r>    14.2061     0.0000    12.3750 </r>
       <r>    14.3243     0.0000    12.3750 </r>
       <r>    14.4424     0.0000    12.3750 </r>
       <r>    14.5605     0.0000    12.3750 </r>
       <r>    14.6787     0.0000    12.3750 </r>
       <r>    14.7968     0.0000    12.3750 </r>
       <r>    14.9150     0.0000    12.3750 </r>
       <r>    15.0331     0.0000    12.3750 </r>
       <r>    15.1513     0.0000    12.3750 </r>
       <r>    15.2694    -0.0016    12.3748 </r>
       <r>    15.3876     0.4662    12.4299 </r>
       <r>    15.5057     0.5964    12.5004 </r>
       <r>    15.6239    -0.0030    12.5000 </r>
       <r>    15.7420     0.0000    12.5000 </r>
       <r>    15.8601    -0.0001    12.5000 </r>
       <r>    15.9783    -0.0549    12.4935 </r>
       <r>    16.0964     3.2855    12.8817 </r>
       <r>    16.2146     2.7466    13.2062 </r>
       <r>    16.3327     0.3715    13.2501 </r>
       <r>    16.4509    -0.0005    13.2500 </r>
       <r>    16.5690     0.0000    13.2500 </r>
       <r>    16.6872     0.0000    13.2500 </r>
       <r>    16.8053     0.0000    13.2500 </r>
       <r>    16.9234     0.0000    13.2500 </r>
       <r>    17.0416     0.0000    13.2500 </r>
       <r>    17.1597     0.0000    13.2500 </r>
       <r>    17.2779    -0.0013    13.2498 </r>
       <r>    17.3960     0.8615    13.3516 </r>
       <r>    17.5142     5.5628    14.0088 </r>
       <r>    17.6323    -0.0748    14.0000 </r>
       <r>    17.7505     0.0000    14.0000 </r>
       <r>    17.8686     0.0000    14.0000 </r>
       <r>    17.9868     0.0000    14.0000 </r>
       <r>    18.1049     0.0000    14.0000 </r>
       <r>    18.2230     0.0000    14.0000 </r>
       <r>    18.3412     0.0000    14.0000 </r>
       <r>    18.4593     0.0000    14.0000 </r>
       <r>    18.5775     0.0000    14.0000 </r>
       <r>    18.6956     0.0000    14.0000 </r>
       <r>    18.8138     0.0000    14.0000 </r>
       <r>    18.9319     0.0000    14.0000 </r>
       <r>    19.0501     0.0000    14.0000 </r>
      </set>
      <set comment="spin 2">
       <r>   -16.3934     0.0000     0.0000 </r>
       <r>   -16.2753     0.0000     0.0000 </r>
       <r>   -16.1571     0.0000     0.0000 </r>
       <r>   -16.0390     0.0000     0.0000 </r>
       <r>   -15.9208     0.0000     0.0000 </r>
       <r>   -15.8027     0.0000     0.0000 </r>
       <r>   -15.6846     0.0000     0.0000 </r>
       <r>   -15.5664     0.0000     0.0000 </r>
       <r>   -15.4483     0.0000     0.0000 </r>
       <r>   -15.3301     0.0000     0.0000 </r>
       <r>   -15.2120     0.0000     0.0000 </r>
       <r>   -15.0938     0.0000     0.0000 </r>
       <r>   -14.9757     0.0000     0.0000 </r>
       <r>   -14.8575    -0.0191    -0.0023 </r>
       <r>   -14.7394     1.0099     0.1171 </r>
       <r>   -14.6212     1.2053     0.2595 </r>
       <r>   -14.5031     0.9986     0.3774 </r>
       <r>   -14.3850     1.0625     0.5030 </r>
       <r>   -14.2668    -0.0251     0.5000 </r>
       <r>   -14.1487     0.0000     0.5000 </r>
       <r>   -14.0305     0.0000     0.5000 </r>
       <r>   -13.9124     0.0000     0.5000 </r>
       <r>   -13.7942     0.0000     0.5000 </r>
       <r>   -13.6761     0.0000     0.5000 </r>
       <r>   -13.5579     0.0000     0.5000 </r>
       <r>   -13.4398     0.0000     0.5000 </r>
       <r>   -13.3217     0.0000     0.5000 </r>
       <r>   -13.2035     0.0000     0.5000 </r>
       <r>   -13.0854     0.0000     0.5000 </r>
       <r>   -12.9672     0.0000     0.5000 </r>
       <r>   -12.8491     0.0000     0.5000 </r>
       <r>   -12.7309     0.0000     0.5000 </r>
       <r>   -12.6128     0.0000     0.5000 </r>
       <r>   -12.4946     0.0000     0.5000 </r>
       <r>   -12.3765     0.0000     0.5000 </r>
       <r>   -12.2583     0.0000     0.5000 </r>
       <r>   -12.1402     0.0000     0.5000 </r>
       <r>   -12.0221     0.0000     0.5000 </r>
       <r>   -11.9039     0.0000     0.5000 </r>
       <r>   -11.7858     0.0000     0.5000 </r>
       <r>   -11.6676     0.0000     0.5000 </r>
       <r>   -11.5495     0.0000     0.5000 </r>
       <r>   -11.4313     0.0000     0.5000 </r>
       <r>   -11.3132     0.0000     0.5000 </r>
       <r>   -11.1950     0.0000     0.5000 </r>
       <r>   -11.0769     0.0000     0.5000 </r>
       <r>   -10.9588     0.0000     0.5000 </r>
       <r>   -10.8406     0.0000     0.5000 </r>
       <r>   -10.7225     0.0000     0.5000 </r>
       <r>   -10.6043     0.0000     0.5000 </r>
       <r>   -10.4862     0.0000     0.5000 </r>
       <r>   -10.3680     0.0000     0.5000 </r>
       <r>   -10.2499     0.0000     0.5000 </r>
       <r>   -10.1317     0.0000     0.5000 </r>
       <r>   -10.0136     0.0000     0.5000 </r>
       <r>    -9.8954     0.0000     0.5000 </r>
       <r>    -9.7773     0.0000     0.5000 </r>
       <r>    -9.6592     0.0000     0.5000 </r>
       <r>    -9.5410    -0.0002     0.5000 </r>
       <r>    -9.4229     0.0568     0.5067 </r>
       <r>    -9.3047     8.5013     1.5111 </r>
       <r>    -9.1866     4.1978     2.0070 </r>
       <r>    -9.0684    -0.0594     2.0000 </r>
       <r>    -8.9503     0.0000     2.0000 </r>
       <r>    -8.8321     0.0000     2.0000 </r>
       <r>    -8.7140     0.0000     2.0000 </r>
       <r>    -8.5959     0.0000     2.0000 </r>
       <r>    -8.4777    -0.0007     1.9999 </r>
       <r>    -8.3596     0.2348     2.0277 </r>
       <r>    -8.2414    11.5802     3.3958 </r>
       <r>    -8.1233     0.8851     3.5004 </r>
       <r>    -8.0051    -0.0032     3.5000 </r>
       <r>    -7.8870     0.0000     3.5000 </r>
       <r>    -7.7688     0.0000     3.5000 </r>
       <r>    -7.6507     0.0000     3.5000 </r>
       <r>    -7.5326     0.0000     3.5000 </r>
       <r>    -7.4144     0.0000     3.5000 </r>
       <r>    -7.2963     0.0000     3.5000 </r>
       <r>    -7.1781     0.0000     3.5000 </r>
       <r>    -7.0600     0.0000     3.5000 </r>
       <r>    -6.9418     0.0000     3.5000 </r>
       <r>    -6.8237     0.0000     3.5000 </r>
       <r>    -6.7055     0.0000     3.5000 </r>
       <r>    -6.5874     0.0000     3.5000 </r>
       <r>    -6.4692     0.0000     3.5000 </r>
       <r>    -6.3511     0.0000     3.5000 </r>
       <r>    -6.2330     0.0000     3.5000 </r>
       <r>    -6.1148     0.0000     3.5000 </r>
       <r>    -5.9967     0.0000     3.5000 </r>
       <r>    -5.8785     0.0000     3.5000 </r>
       <r>    -5.7604     0.0000     3.5000 </r>
       <r>    -5.6422     0.0000     3.5000 </r>
       <r>    -5.5241     0.0000     3.5000 </r>
       <r>    -5.4059     0.0000     3.5000 </r>
       <r>    -5.2878     0.0000     3.5000 </r>
       <r>    -5.1697     0.0000     3.5000 </r>
       <r>    -5.0515     0.0000     3.5000 </r>
       <r>    -4.9334     0.0000     3.5000 </r>
       <r>    -4.8152     0.0000     3.5000 </r>
       <r>    -4.6971     0.0000     3.5000 </r>
       <r>    -4.5789     0.0000     3.5000 </r>
       <r>    -4.4608     0.0000     3.5000 </r>
       <r>    -4.3426     0.0000     3.5000 </r>
       <r>    -4.2245     0.0000     3.5000 </r>
       <r>    -4.1063     0.0000     3.5000 </r>
       <r>    -3.9882     0.0000     3.5000 </r>
       <r>    -3.8701     0.0000     3.5000 </r>
       <r>    -3.7519    -0.0375     3.4956 </r>
       <r>    -3.6338     1.1309     3.6292 </r>
       <r>    -3.5156    -0.0354     3.6250 </r>
       <r>    -3.3975     0.0000     3.6250 </r>
       <r>    -3.2793     0.0000     3.6250 </r>
       <r>    -3.1612     0.0000     3.6250 </r>
       <r>    -3.0430     0.0000     3.6250 </r>
       <r>    -2.9249    -0.0011     3.6249 </r>
       <r>    -2.8068     0.5342     3.6880 </r>
       <r>    -2.6886     1.5971     3.8767 </r>
       <r>    -2.5705    -0.0142     3.8750 </r>
       <r>    -2.4523     0.0000     3.8750 </r>
       <r>    -2.3342     0.0000     3.8750 </r>
       <r>    -2.2160     0.0000     3.8750 </r>
       <r>    -2.0979     0.0000     3.8750 </r>
       <r>    -1.9797     0.0000     3.8750 </r>
       <r>    -1.8616     0.0000     3.8750 </r>
       <r>    -1.7434    -0.0375     3.8706 </r>
       <r>    -1.6253     1.1316     4.0043 </r>
       <r>    -1.5072    -0.1523     3.9863 </r>
       <r>    -1.3890     8.2016     4.9552 </r>
       <r>    -1.2709     4.6391     5.5033 </r>
       <r>    -1.1527    -0.0282     5.5000 </r>
       <r>    -1.0346     0.0000     5.5000 </r>
       <r>    -0.9164     0.0000     5.5000 </r>
       <r>    -0.7983     0.0000     5.5000 </r>
       <r>    -0.6801     0.0000     5.5000 </r>
       <r>    -0.5620     0.0000     5.5000 </r>
       <r>    -0.4439     0.0000     5.5000 </r>
       <r>    -0.3257     0.0000     5.5000 </r>
       <r>    -0.2076     0.0000     5.5000 </r>
       <r>    -0.0894     0.0000     5.5000 </r>
       <r>     0.0287     0.0000     5.5000 </r>
       <r>     0.1469     0.0000     5.5000 </r>
       <r>     0.2650     0.0000     5.5000 </r>
       <r>     0.3832     0.0000     5.5000 </r>
       <r>     0.5013     0.0000     5.5000 </r>
       <r>     0.6194     0.0000     5.5000 </r>
       <r>     0.7376     0.0000     5.5000 </r>
       <r>     0.8557     0.0000     5.5000 </r>
       <r>     0.9739     0.0000     5.5000 </r>
       <r>     1.0920     0.0000     5.5000 </r>
       <r>     1.2102     0.0000     5.5000 </r>
       <r>     1.3283     0.0000     5.5000 </r>
       <r>     1.4465     0.0000     5.5000 </r>
       <r>     1.5646     0.0000     5.5000 </r>
       <r>     1.6828     0.0000     5.5000 </r>
       <r>     1.8009     0.0000     5.5000 </r>
       <r>     1.9190    -0.0323     5.4962 </r>
       <r>     2.0372     5.0788     6.0962 </r>
       <r>     2.1553     6.6897     6.8866 </r>
       <r>     2.2735    -0.0979     6.8750 </r>
       <r>     2.3916    -0.0021     6.8748 </r>
       <r>     2.5098     1.1911     7.0155 </r>
       <r>     2.6279     5.2169     7.6318 </r>
       <r>     2.7461    -0.1489     7.6142 </r>
       <r>     2.8642     3.2939     8.0034 </r>
       <r>     2.9823    -0.0286     8.0000 </r>
       <r>     3.1005    -0.0001     8.0000 </r>
       <r>     3.2186     0.0000     8.0000 </r>
       <r>     3.3368     0.0000     8.0000 </r>
       <r>     3.4549     0.0000     8.0000 </r>
       <r>     3.5731     0.0000     8.0000 </r>
       <r>     3.6912     0.0000     8.0000 </r>
       <r>     3.8094     0.0000     8.0000 </r>
       <r>     3.9275     0.0000     8.0000 </r>
       <r>     4.0457     0.0000     8.0000 </r>
       <r>     4.1638     0.0000     8.0000 </r>
       <r>     4.2819     0.0000     8.0000 </r>
       <r>     4.4001     0.0000     8.0000 </r>
       <r>     4.5182     0.0000     8.0000 </r>
       <r>     4.6364     0.0000     8.0000 </r>
       <r>     4.7545     0.0000     8.0000 </r>
       <r>     4.8727     0.0000     8.0000 </r>
       <r>     4.9908     0.0000     8.0000 </r>
       <r>     5.1090     0.0000     8.0000 </r>
       <r>     5.2271     0.0000     8.0000 </r>
       <r>     5.3452     0.0000     8.0000 </r>
       <r>     5.4634     0.0000     8.0000 </r>
       <r>     5.5815     0.0000     8.0000 </r>
       <r>     5.6997     0.0000     8.0000 </r>
       <r>     5.8178     0.0000     8.0000 </r>
       <r>     5.9360     0.0000     8.0000 </r>
       <r>     6.0541     0.0000     8.0000 </r>
       <r>     6.1723     0.0000     8.0000 </r>
       <r>     6.2904    -0.0020     7.9998 </r>
       <r>     6.4086     0.8866     8.1045 </r>
       <r>     6.5267     2.5854     8.4100 </r>
       <r>     6.6448     6.1774     9.1398 </r>
       <r>     6.7630    -0.1253     9.1250 </r>
       <r>     6.8811     0.0000     9.1250 </r>
       <r>     6.9993    -0.0097     9.1239 </r>
       <r>     7.1174     1.8508     9.3425 </r>
       <r>     7.2356     1.3374     9.5005 </r>
       <r>     7.3537    -0.0044     9.5000 </r>
       <r>     7.4719     0.0000     9.5000 </r>
       <r>     7.5900     0.0000     9.5000 </r>
       <r>     7.7081     0.0000     9.5000 </r>
       <r>     7.8263     0.0000     9.5000 </r>
       <r>     7.9444     0.0000     9.5000 </r>
       <r>     8.0626     0.0000     9.5000 </r>
       <r>     8.1807     0.0000     9.5000 </r>
       <r>     8.2989     0.0000     9.5000 </r>
       <r>     8.4170     0.0000     9.5000 </r>
       <r>     8.5352     0.0000     9.5000 </r>
       <r>     8.6533     0.0000     9.5000 </r>
       <r>     8.7714     0.0000     9.5000 </r>
       <r>     8.8896    -0.0065     9.4992 </r>
       <r>     9.0077     0.7792     9.5913 </r>
       <r>     9.1259     0.2859     9.6251 </r>
       <r>     9.2440    -0.0006     9.6250 </r>
       <r>     9.3622     0.0000     9.6250 </r>
       <r>     9.4803     0.0000     9.6250 </r>
       <r>     9.5985     0.0000     9.6250 </r>
       <r>     9.7166     0.0000     9.6250 </r>
       <r>     9.8348     0.0000     9.6250 </r>
       <r>     9.9529     0.0000     9.6250 </r>
       <r>    10.0710     0.0000     9.6250 </r>
       <r>    10.1892     0.0000     9.6250 </r>
       <r>    10.3073     0.0000     9.6250 </r>
       <r>    10.4255     0.0000     9.6250 </r>
       <r>    10.5436     0.0000     9.6250 </r>
       <r>    10.6618     0.0000     9.6250 </r>
       <r>    10.7799     0.0000     9.6250 </r>
       <r>    10.8981     0.0000     9.6250 </r>
       <r>    11.0162     0.0000     9.6250 </r>
       <r>    11.1343     0.0000     9.6250 </r>
       <r>    11.2525     0.0000     9.6250 </r>
       <r>    11.3706     0.0000     9.6250 </r>
       <r>    11.4888     0.0000     9.6250 </r>
       <r>    11.6069    -0.0688     9.6169 </r>
       <r>    11.7251     2.2342     9.8808 </r>
       <r>    11.8432    -0.0494     9.8750 </r>
       <r>    11.9614     0.0000     9.8750 </r>
       <r>    12.0795    -0.0465     9.8695 </r>
       <r>    12.1977     2.9208    10.2146 </r>
       <r>    12.3158     0.1379    10.2309 </r>
       <r>    12.4339     6.7200    11.0248 </r>
       <r>    12.5521     0.1674    11.0446 </r>
       <r>    12.6702     2.8374    11.3798 </r>
       <r>    12.7884    -0.0408    11.3750 </r>
       <r>    12.9065     0.0000    11.3750 </r>
       <r>    13.0247     0.0000    11.3750 </r>
       <r>    13.1428     0.0000    11.3750 </r>
       <r>    13.2610    -0.0256    11.3720 </r>
       <r>    13.3791     3.9341    11.8368 </r>
       <r>    13.4972     4.6328    12.3841 </r>
       <r>    13.6154    -0.0770    12.3750 </r>
       <r>    13.7335     0.0000    12.3750 </r>
       <r>    13.8517     0.0000    12.3750 </r>
       <r>    13.9698     0.0000    12.3750 </r>
       <r>    14.0880     0.0000    12.3750 </r>
       <r>    14.2061     0.0000    12.3750 </r>
       <r>    14.3243     0.0000    12.3750 </r>
       <r>    14.4424     0.0000    12.3750 </r>
       <r>    14.5605     0.0000    12.3750 </r>
       <r>    14.6787     0.0000    12.3750 </r>
       <r>    14.7968     0.0000    12.3750 </r>
       <r>    14.9150     0.0000    12.3750 </r>
       <r>    15.0331     0.0000    12.3750 </r>
       <r>    15.1513     0.0000    12.3750 </r>
       <r>    15.2694    -0.0003    12.3750 </r>
       <r>    15.3876     0.1866    12.3970 </r>
       <r>    15.5057     0.8819    12.5012 </r>
       <r>    15.6239    -0.0102    12.5000 </r>
       <r>    15.7420     0.0000    12.5000 </r>
       <r>    15.8601     0.0000    12.5000 </r>
       <r>    15.9783    -0.0984    12.4884 </r>
       <r>    16.0964     3.3688    12.8864 </r>
       <r>    16.2146     2.0044    13.1232 </r>
       <r>    16.3327     1.0762    13.2503 </r>
       <r>    16.4509    -0.0028    13.2500 </r>
       <r>    16.5690     0.0000    13.2500 </r>
       <r>    16.6872     0.0000    13.2500 </r>
       <r>    16.8053     0.0000    13.2500 </r>
       <r>    16.9234     0.0000    13.2500 </r>
       <r>    17.0416     0.0000    13.2500 </r>
       <r>    17.1597     0.0000    13.2500 </r>
       <r>    17.2779    -0.0002    13.2500 </r>
       <r>    17.3960    -0.0232    13.2472 </r>
       <r>    17.5142     6.5460    14.0206 </r>
       <r>    17.6323    -0.1745    14.0000 </r>
       <r>    17.7505     0.0000    14.0000 </r>
       <r>    17.8686     0.0000    14.0000 </r>
       <r>    17.9868     0.0000    14.0000 </r>
       <r>    18.1049     0.0000    14.0000 </r>
       <r>    18.2230     0.0000    14.0000 </r>
       <r>    18.3412     0.0000    14.0000 </r>
       <r>    18.4593     0.0000    14.0000 </r>
       <r>    18.5775     0.0000    14.0000 </r>
       <r>    18.6956     0.0000    14.0000 </r>
       <r>    18.8138     0.0000    14.0000 </r>
       <r>    18.9319     0.0000    14.0000 </r>
       <r>    19.0501     0.0000    14.0000 </r>
      </set>
     </set>
    </array>
   </total>
   <partial>
    <array>
     <dimension dim="1">gridpoints</dimension>
     <dimension dim="2">spin</dimension>
     <dimension dim="3">ion</dimension>
     <field>energy</field>
     <field>  s</field>
     <field> py</field>
     <field> pz</field>
     <field> px</field>
     <field>dxy</field>
     <field>dyz</field>
     <field>dz2</field>
     <field>dxz</field>
     <field>dx2</field>
     <set>
      <set comment="ion 1">
       <set comment="spin 1">
        <r>   -16.3934     0.0000     0.0000     0.0000     0.0000     0.0000     0.0000     0.0000     0.0000     0.0000 </r>
        <r>   -16.2753     0.0000     0.0000     0.0000     0.0000     0.0000     0.0000     0.0000     0.0000     0.0000 </r>
        <r>   -16.1571     0.0000     0.0000     0.0000     0.0000     0.0000     0.0000     0.0000     0.0000     0.0000 </r>
        <r>   -16.0390     0.0000     0.0000     0.0000     0.0000     0.0000     0.0000     0.0000     0.0000     0.0000 </r>
        <r>   -15.9208     0.0000     0.0000     0.0000     0.0000     0.0000     0.0000     0.0000     0.0000     0.0000 </r>
        <r>   -15.8027     0.0000     0.0000     0.0000     0.0000     0.0000     0.0000     0.0000     0.0000     0.0000 </r>
        <r>   -15.6846     0.0000     0.0000     0.0000     0.0000     0.0000     0.0000     0.0000     0.0000     0.0000 </r>
        <r>   -15.5664     0.0000     0.0000     0.0000     0.0000     0.0000     0.0000     0.0000     0.0000     0.0000 </r>
        <r>   -15.4483     0.0000     0.0000     0.0000     0.0000     0.0000     0.0000     0.0000     0.0000     0.0000 </r>
        <r>   -15.3301     0.0000     0.0000     0.0000     0.0000     0.0000     0.0000     0.0000     0.0000     0.0000 </r>
        <r>   -15.2120     0.0000     0.0000     0.0000     0.0000     0.0000     0.0000     0.0000     0.0000     0.0000 </r>
        <r>   -15.0938     0.0000     0.0000     0.0000     0.0000     0.0000     0.0000     0.0000     0.0000     0.0000 </r>
        <r>   -14.9757     0.0000     0.0000     0.0000     0.0000     0.0000     0.0000     0.0000     0.0000     0.0000 </r>
        <r>   -14.8575    -0.0046     0.0000     0.0000     0.0000     0.0000     0.0000     0.0000     0.0000     0.0000 </r>
        <r>   -14.7394     0.1706     0.0000     0.0000     0.0000     0.0000     0.0000     0.0000     0.0000     0.0000 </r>
        <r>   -14.6212     0.2414     0.0000     0.0000     0.0000     0.0000     0.0000     0.0000     0.0000     0.0000 </r>
        <r>   -14.5031     0.1167     0.0000     0.0000     0.0000     0.0000     0.0000     0.0000     0.0000     0.0000 </r>
        <r>   -14.3850     0.1600     0.0000     0.0000     0.0000     0.0000     0.0000     0.0000     0.0000     0.0000 </r>
        <r>   -14.2668    -0.0026     0.0000     0.0000     0.0000     0.0000     0.0000     0.0000     0.0000     0.0000 </r>
        <r>   -14.1487     0.0000     0.0000     0.0000     0.0000     0.0000     0.0000     0.0000     0.0000     0.0000 </r>
        <r>   -14.0305     0.0000     0.0000     0.0000     0.0000     0.0000     0.0000     0.0000     0.0000     0.0000 </r>
        <r>   -13.9124     0.0000     0.0000     0.0000     0.0000     0.0000     0.0000     0.0000     0.0000     0.0000 </r>
        <r>   -13.7942     0.0000     0.0000     0.0000     0.0000     0.0000     0.0000     0.0000     0.0000     0.0000 </r>
        <r>   -13.6761     0.0000     0.0000     0.0000     0.0000     0.0000     0.0000     0.0000     0.0000     0.0000 </r>
        <r>   -13.5579     0.0000     0.0000     0.0000     0.0000     0.0000     0.0000     0.0000     0.0000     0.0000 </r>
        <r>   -13.4398     0.0000     0.0000     0.0000     0.0000     0.0000     0.0000     0.0000     0.0000     0.0000 </r>
        <r>   -13.3217     0.0000     0.0000     0.0000     0.0000     0.0000     0.0000     0.0000     0.0000     0.0000 </r>
        <r>   -13.2035     0.0000     0.0000     0.0000     0.0000     0.0000     0.0000     0.0000     0.0000     0.0000 </r>
        <r>   -13.0854     0.0000     0.0000     0.0000     0.0000     0.0000     0.0000     0.0000     0.0000     0.0000 </r>
        <r>   -12.9672     0.0000     0.0000     0.0000     0.0000     0.0000     0.0000     0.0000     0.0000     0.0000 </r>
        <r>   -12.8491     0.0000     0.0000     0.0000     0.0000     0.0000     0.0000     0.0000     0.0000     0.0000 </r>
        <r>   -12.7309     0.0000     0.0000     0.0000     0.0000     0.0000     0.0000     0.0000     0.0000     0.0000 </r>
        <r>   -12.6128     0.0000     0.0000     0.0000     0.0000     0.0000     0.0000     0.0000     0.0000     0.0000 </r>
        <r>   -12.4946     0.0000     0.0000     0.0000     0.0000     0.0000     0.0000     0.0000     0.0000     0.0000 </r>
        <r>   -12.3765     0.0000     0.0000     0.0000     0.0000     0.0000     0.0000     0.0000     0.0000     0.0000 </r>
        <r>   -12.2583     0.0000     0.0000     0.0000     0.0000     0.0000     0.0000     0.0000     0.0000     0.0000 </r>
        <r>   -12.1402     0.0000     0.0000     0.0000     0.0000     0.0000     0.0000     0.0000     0.0000     0.0000 </r>
        <r>   -12.0221     0.0000     0.0000     0.0000     0.0000     0.0000     0.0000     0.0000     0.0000     0.0000 </r>
        <r>   -11.9039     0.0000     0.0000     0.0000     0.0000     0.0000     0.0000     0.0000     0.0000     0.0000 </r>
        <r>   -11.7858     0.0000     0.0000     0.0000     0.0000     0.0000     0.0000     0.0000     0.0000     0.0000 </r>
        <r>   -11.6676     0.0000     0.0000     0.0000     0.0000     0.0000     0.0000     0.0000     0.0000     0.0000 </r>
        <r>   -11.5495     0.0000     0.0000     0.0000     0.0000     0.0000     0.0000     0.0000     0.0000     0.0000 </r>
        <r>   -11.4313     0.0000     0.0000     0.0000     0.0000     0.0000     0.0000     0.0000     0.0000     0.0000 </r>
        <r>   -11.3132     0.0000     0.0000     0.0000     0.0000     0.0000     0.0000     0.0000     0.0000     0.0000 </r>
        <r>   -11.1950     0.0000     0.0000     0.0000     0.0000     0.0000     0.0000     0.0000     0.0000     0.0000 </r>
        <r>   -11.0769     0.0000     0.0000     0.0000     0.0000     0.0000     0.0000     0.0000     0.0000     0.0000 </r>
        <r>   -10.9588     0.0000     0.0000     0.0000     0.0000     0.0000     0.0000     0.0000     0.0000     0.0000 </r>
        <r>   -10.8406     0.0000     0.0000     0.0000     0.0000     0.0000     0.0000     0.0000     0.0000     0.0000 </r>
        <r>   -10.7225     0.0000     0.0000     0.0000     0.0000     0.0000     0.0000     0.0000     0.0000     0.0000 </r>
        <r>   -10.6043     0.0000     0.0000     0.0000     0.0000     0.0000     0.0000     0.0000     0.0000     0.0000 </r>
        <r>   -10.4862     0.0000     0.0000     0.0000     0.0000     0.0000     0.0000     0.0000     0.0000     0.0000 </r>
        <r>   -10.3680     0.0000     0.0000     0.0000     0.0000     0.0000     0.0000     0.0000     0.0000     0.0000 </r>
        <r>   -10.2499     0.0000     0.0000     0.0000     0.0000     0.0000     0.0000     0.0000     0.0000     0.0000 </r>
        <r>   -10.1317     0.0000     0.0000     0.0000     0.0000     0.0000     0.0000     0.0000     0.0000     0.0000 </r>
        <r>   -10.0136     0.0000     0.0000     0.0000     0.0000     0.0000     0.0000     0.0000     0.0000     0.0000 </r>
        <r>    -9.8954     0.0000     0.0000     0.0000     0.0000     0.0000     0.0000     0.0000     0.0000     0.0000 </r>
        <r>    -9.7773     0.0000     0.0000     0.0000     0.0000     0.0000     0.0000     0.0000     0.0000     0.0000 </r>
        <r>    -9.6592     0.0000     0.0000     0.0000     0.0000     0.0000     0.0000     0.0000     0.0000     0.0000 </r>
        <r>    -9.5410    -0.0001     0.0000     0.0000     0.0000     0.0000     0.0000     0.0000     0.0000     0.0000 </r>
        <r>    -9.4229     0.0383     0.0032     0.0000     0.0097     0.0000     0.0000     0.0000     0.0000     0.0000 </r>
        <r>    -9.3047     1.3538     0.0793     0.0000     0.2379     0.0000     0.0000     0.0000     0.0000     0.0000 </r>
        <r>    -9.1866     0.5095     0.0186     0.0000     0.0558     0.0000     0.0000     0.0000     0.0000     0.0000 </r>
        <r>    -9.0684    -0.0053    -0.0002     0.0000    -0.0005     0.0000     0.0000     0.0000     0.0000     0.0000 </r>
        <r>    -8.9503     0.0000     0.0000     0.0000     0.0000     0.0000     0.0000     0.0000     0.0000     0.0000 </r>
        <r>    -8.8321     0.0000     0.0000     0.0000     0.0000     0.0000     0.0000     0.0000     0.0000     0.0000 </r>
        <r>    -8.7140     0.0000     0.0000     0.0000     0.0000     0.0000     0.0000     0.0000     0.0000     0.0000 </r>
        <r>    -8.5959     0.0000     0.0000     0.0000     0.0000     0.0000     0.0000     0.0000     0.0000     0.0000 </r>
        <r>    -8.4777    -0.0001     0.0000     0.0000    -0.0001     0.0000     0.0000     0.0000     0.0000     0.0000 </r>
        <r>    -8.3596     0.0258     0.0164     0.0000     0.0491     0.0000     0.0000     0.0000     0.0000     0.0000 </r>
        <r>    -8.2414     0.7977     0.2832     0.0002     0.8495     0.0000     0.0000     0.0000     0.0000     0.0000 </r>
        <r>    -8.1233     0.0530     0.0117     0.0000     0.0351     0.0000     0.0000     0.0000     0.0000     0.0000 </r>
        <r>    -8.0051    -0.0001     0.0000     0.0000    -0.0001     0.0000     0.0000     0.0000     0.0000     0.0000 </r>
        <r>    -7.8870     0.0000     0.0000     0.0000     0.0000     0.0000     0.0000     0.0000     0.0000     0.0000 </r>
        <r>    -7.7688     0.0000     0.0000     0.0000     0.0000     0.0000     0.0000     0.0000     0.0000     0.0000 </r>
        <r>    -7.6507     0.0000     0.0000     0.0000     0.0000     0.0000     0.0000     0.0000     0.0000     0.0000 </r>
        <r>    -7.5326     0.0000     0.0000     0.0000     0.0000     0.0000     0.0000     0.0000     0.0000     0.0000 </r>
        <r>    -7.4144     0.0000     0.0000     0.0000     0.0000     0.0000     0.0000     0.0000     0.0000     0.0000 </r>
        <r>    -7.2963     0.0000     0.0000     0.0000     0.0000     0.0000     0.0000     0.0000     0.0000     0.0000 </r>
        <r>    -7.1781     0.0000     0.0000     0.0000     0.0000     0.0000     0.0000     0.0000     0.0000     0.0000 </r>
        <r>    -7.0600     0.0000     0.0000     0.0000     0.0000     0.0000     0.0000     0.0000     0.0000     0.0000 </r>
        <r>    -6.9418     0.0000     0.0000     0.0000     0.0000     0.0000     0.0000     0.0000     0.0000     0.0000 </r>
        <r>    -6.8237     0.0000     0.0000     0.0000     0.0000     0.0000     0.0000     0.0000     0.0000     0.0000 </r>
        <r>    -6.7055     0.0000     0.0000     0.0000     0.0000     0.0000     0.0000     0.0000     0.0000     0.0000 </r>
        <r>    -6.5874     0.0000     0.0000     0.0000     0.0000     0.0000     0.0000     0.0000     0.0000     0.0000 </r>
        <r>    -6.4692     0.0000     0.0000     0.0000     0.0000     0.0000     0.0000     0.0000     0.0000     0.0000 </r>
        <r>    -6.3511     0.0000     0.0000     0.0000     0.0000     0.0000     0.0000     0.0000     0.0000     0.0000 </r>
        <r>    -6.2330     0.0000     0.0000     0.0000     0.0000     0.0000     0.0000     0.0000     0.0000     0.0000 </r>
        <r>    -6.1148     0.0000     0.0000     0.0000     0.0000     0.0000     0.0000     0.0000     0.0000     0.0000 </r>
        <r>    -5.9967     0.0000     0.0000     0.0000     0.0000     0.0000     0.0000     0.0000     0.0000     0.0000 </r>
        <r>    -5.8785     0.0000     0.0000     0.0000     0.0000     0.0000     0.0000     0.0000     0.0000     0.0000 </r>
        <r>    -5.7604     0.0000     0.0000     0.0000     0.0000     0.0000     0.0000     0.0000     0.0000     0.0000 </r>
        <r>    -5.6422     0.0000     0.0000     0.0000     0.0000     0.0000     0.0000     0.0000     0.0000     0.0000 </r>
        <r>    -5.5241     0.0000     0.0000     0.0000     0.0000     0.0000     0.0000     0.0000     0.0000     0.0000 </r>
        <r>    -5.4059     0.0000     0.0000     0.0000     0.0000     0.0000     0.0000     0.0000     0.0000     0.0000 </r>
        <r>    -5.2878     0.0000     0.0000     0.0000     0.0000     0.0000     0.0000     0.0000     0.0000     0.0000 </r>
        <r>    -5.1697     0.0000     0.0000     0.0000     0.0000     0.0000     0.0000     0.0000     0.0000     0.0000 </r>
        <r>    -5.0515     0.0000     0.0000     0.0000     0.0000     0.0000     0.0000     0.0000     0.0000     0.0000 </r>
        <r>    -4.9334     0.0000     0.0000     0.0000     0.0000     0.0000     0.0000     0.0000     0.0000     0.0000 </r>
        <r>    -4.8152     0.0000     0.0000     0.0000     0.0000     0.0000     0.0000     0.0000     0.0000     0.0000 </r>
        <r>    -4.6971     0.0000     0.0000     0.0000     0.0000     0.0000     0.0000     0.0000     0.0000     0.0000 </r>
        <r>    -4.5789     0.0000     0.0000     0.0000     0.0000     0.0000     0.0000     0.0000     0.0000     0.0000 </r>
        <r>    -4.4608     0.0000     0.0000     0.0000     0.0000     0.0000     0.0000     0.0000     0.0000     0.0000 </r>
        <r>    -4.3426     0.0000     0.0000     0.0000     0.0000     0.0000     0.0000     0.0000     0.0000     0.0000 </r>
        <r>    -4.2245     0.0000     0.0000     0.0000     0.0000     0.0000     0.0000     0.0000     0.0000     0.0000 </r>
        <r>    -4.1063     0.0000     0.0000     0.0000     0.0000     0.0000     0.0000     0.0000     0.0000     0.0000 </r>
        <r>    -3.9882     0.0000     0.0000     0.0000     0.0000     0.0000     0.0000     0.0000     0.0000     0.0000 </r>
        <r>    -3.8701     0.0000     0.0000     0.0000     0.0000     0.0000     0.0000     0.0000     0.0000     0.0000 </r>
        <r>    -3.7519     0.0000     0.0000     0.0007     0.0000     0.0000     0.0000     0.0000     0.0000     0.0000 </r>
        <r>    -3.6338     0.0000     0.0000     0.1025     0.0000     0.0000     0.0000     0.0000     0.0000     0.0000 </r>
        <r>    -3.5156     0.0000     0.0000    -0.0026     0.0000     0.0000     0.0000     0.0000     0.0000     0.0000 </r>
        <r>    -3.3975     0.0000     0.0000     0.0000     0.0000     0.0000     0.0000     0.0000     0.0000     0.0000 </r>
        <r>    -3.2793     0.0000     0.0000     0.0000     0.0000     0.0000     0.0000     0.0000     0.0000     0.0000 </r>
        <r>    -3.1612     0.0000     0.0000     0.0000     0.0000     0.0000     0.0000     0.0000     0.0000     0.0000 </r>
        <r>    -3.0430     0.0000     0.0000     0.0000     0.0000     0.0000     0.0000     0.0000     0.0000     0.0000 </r>
        <r>    -2.9249     0.0000     0.0000    -0.0008     0.0000     0.0000     0.0000     0.0000     0.0000     0.0000 </r>
        <r>    -2.8068     0.0014     0.0000     0.1392     0.0000     0.0000     0.0000     0.0000     0.0000     0.0000 </r>
        <r>    -2.6886     0.0009     0.0000     0.0866     0.0000     0.0000     0.0000     0.0000     0.0000     0.0000 </r>
        <r>    -2.5705     0.0000     0.0000    -0.0003     0.0000     0.0000     0.0000     0.0000     0.0000     0.0000 </r>
        <r>    -2.4523     0.0000     0.0000     0.0000     0.0000     0.0000     0.0000     0.0000     0.0000     0.0000 </r>
        <r>    -2.3342     0.0000     0.0000     0.0000     0.0000     0.0000     0.0000     0.0000     0.0000     0.0000 </r>
        <r>    -2.2160     0.0000     0.0000     0.0000     0.0000     0.0000     0.0000     0.0000     0.0000     0.0000 </r>
        <r>    -2.0979     0.0000     0.0000     0.0000     0.0000     0.0000     0.0000     0.0000     0.0000     0.0000 </r>
        <r>    -1.9797     0.0000     0.0000     0.0000     0.0000     0.0000     0.0000     0.0000     0.0000     0.0000 </r>
        <r>    -1.8616     0.0000     0.0000     0.0000     0.0000     0.0000     0.0000     0.0000     0.0000     0.0000 </r>
        <r>    -1.7434     0.0000     0.0000     0.0032     0.0000     0.0000     0.0000     0.0000     0.0000     0.0000 </r>
        <r>    -1.6253     0.0000     0.0000     0.1328     0.0000     0.0000     0.0000     0.0000     0.0000     0.0000 </r>
        <r>    -1.5072     0.0000    -0.0208    -0.0030    -0.0069     0.0000     0.0000     0.0000     0.0000     0.0000 </r>
        <r>    -1.3890     0.0000     1.3261     0.0000     0.4420     0.0000     0.0000     0.0000     0.0000     0.0000 </r>
        <r>    -1.2709     0.0000     0.5734     0.0000     0.1911     0.0000     0.0000     0.0000     0.0000     0.0000 </r>
        <r>    -1.1527     0.0000    -0.0029     0.0000    -0.0010     0.0000     0.0000     0.0000     0.0000     0.0000 </r>
        <r>    -1.0346     0.0000     0.0000     0.0000     0.0000     0.0000     0.0000     0.0000     0.0000     0.0000 </r>
        <r>    -0.9164     0.0000     0.0000     0.0000     0.0000     0.0000     0.0000     0.0000     0.0000     0.0000 </r>
        <r>    -0.7983     0.0000     0.0000     0.0000     0.0000     0.0000     0.0000     0.0000     0.0000     0.0000 </r>
        <r>    -0.6801     0.0000     0.0000     0.0000     0.0000     0.0000     0.0000     0.0000     0.0000     0.0000 </r>
        <r>    -0.5620     0.0000     0.0000     0.0000     0.0000     0.0000     0.0000     0.0000     0.0000     0.0000 </r>
        <r>    -0.4439     0.0000     0.0000     0.0000     0.0000     0.0000     0.0000     0.0000     0.0000     0.0000 </r>
        <r>    -0.3257     0.0000     0.0000     0.0000     0.0000     0.0000     0.0000     0.0000     0.0000     0.0000 </r>
        <r>    -0.2076     0.0000     0.0000     0.0000     0.0000     0.0000     0.0000     0.0000     0.0000     0.0000 </r>
        <r>    -0.0894     0.0000     0.0000     0.0000     0.0000     0.0000     0.0000     0.0000     0.0000     0.0000 </r>
        <r>     0.0287     0.0000     0.0000     0.0000     0.0000     0.0000     0.0000     0.0000     0.0000     0.0000 </r>
        <r>     0.1469     0.0000     0.0000     0.0000     0.0000     0.0000     0.0000     0.0000     0.0000     0.0000 </r>
        <r>     0.2650     0.0000     0.0000     0.0000     0.0000     0.0000     0.0000     0.0000     0.0000     0.0000 </r>
        <r>     0.3832     0.0000     0.0000     0.0000     0.0000     0.0000     0.0000     0.0000     0.0000     0.0000 </r>
        <r>     0.5013     0.0000     0.0000     0.0000     0.0000     0.0000     0.0000     0.0000     0.0000     0.0000 </r>
        <r>     0.6194     0.0000     0.0000     0.0000     0.0000     0.0000     0.0000     0.0000     0.0000     0.0000 </r>
        <r>     0.7376     0.0000     0.0000     0.0000     0.0000     0.0000     0.0000     0.0000     0.0000     0.0000 </r>
        <r>     0.8557     0.0000     0.0000     0.0000     0.0000     0.0000     0.0000     0.0000     0.0000     0.0000 </r>
        <r>     0.9739     0.0000     0.0000     0.0000     0.0000     0.0000     0.0000     0.0000     0.0000     0.0000 </r>
        <r>     1.0920     0.0000     0.0000     0.0000     0.0000     0.0000     0.0000     0.0000     0.0000     0.0000 </r>
        <r>     1.2102     0.0000     0.0000     0.0000     0.0000     0.0000     0.0000     0.0000     0.0000     0.0000 </r>
        <r>     1.3283     0.0000     0.0000     0.0000     0.0000     0.0000     0.0000     0.0000     0.0000     0.0000 </r>
        <r>     1.4465     0.0000     0.0000     0.0000     0.0000     0.0000     0.0000     0.0000     0.0000     0.0000 </r>
        <r>     1.5646     0.0000     0.0000     0.0000     0.0000     0.0000     0.0000     0.0000     0.0000     0.0000 </r>
        <r>     1.6828     0.0000     0.0000     0.0000     0.0000     0.0000     0.0000     0.0000     0.0000     0.0000 </r>
        <r>     1.8009     0.0000     0.0000     0.0000     0.0000     0.0000     0.0000     0.0000     0.0000     0.0000 </r>
        <r>     1.9190     0.0000    -0.0048     0.0000    -0.0048     0.0000     0.0000     0.0000     0.0000     0.0000 </r>
        <r>     2.0372     0.0000     0.6051    -0.0031     0.6056     0.0000     0.0000     0.0000     0.0000     0.0000 </r>
        <r>     2.1553     0.0000     0.2760     0.3183     0.2755     0.0000     0.0000     0.0000     0.0000     0.0000 </r>
        <r>     2.2735     0.0000    -0.0008    -0.0089    -0.0007     0.0000     0.0000     0.0000     0.0000     0.0000 </r>
        <r>     2.3916     0.0000     0.0000    -0.0025     0.0000     0.0000     0.0000     0.0000     0.0000     0.0000 </r>
        <r>     2.5098     0.0000     0.0005     0.4683     0.0014     0.0000     0.0000     0.0000     0.0000     0.0000 </r>
        <r>     2.6279     0.0000     0.0003     0.3339     0.0010     0.0000     0.0000     0.0000     0.0000     0.0000 </r>
        <r>     2.7461     0.0000     0.0000    -0.0076     0.0000     0.0000     0.0000     0.0000     0.0000     0.0000 </r>
        <r>     2.8642     0.0000     0.0000     0.5379     0.0000     0.0000     0.0000     0.0000     0.0000     0.0000 </r>
        <r>     2.9823     0.0000     0.0000    -0.0153     0.0000     0.0000     0.0000     0.0000     0.0000     0.0000 </r>
        <r>     3.1005     0.0000     0.0000     0.0000     0.0000     0.0000     0.0000     0.0000     0.0000     0.0000 </r>
        <r>     3.2186     0.0000     0.0000     0.0000     0.0000     0.0000     0.0000     0.0000     0.0000     0.0000 </r>
        <r>     3.3368     0.0000     0.0000     0.0000     0.0000     0.0000     0.0000     0.0000     0.0000     0.0000 </r>
        <r>     3.4549     0.0000     0.0000     0.0000     0.0000     0.0000     0.0000     0.0000     0.0000     0.0000 </r>
        <r>     3.5731     0.0000     0.0000     0.0000     0.0000     0.0000     0.0000     0.0000     0.0000     0.0000 </r>
        <r>     3.6912     0.0000     0.0000     0.0000     0.0000     0.0000     0.0000     0.0000     0.0000     0.0000 </r>
        <r>     3.8094     0.0000     0.0000     0.0000     0.0000     0.0000     0.0000     0.0000     0.0000     0.0000 </r>
        <r>     3.9275     0.0000     0.0000     0.0000     0.0000     0.0000     0.0000     0.0000     0.0000     0.0000 </r>
        <r>     4.0457     0.0000     0.0000     0.0000     0.0000     0.0000     0.0000     0.0000     0.0000     0.0000 </r>
        <r>     4.1638     0.0000     0.0000     0.0000     0.0000     0.0000     0.0000     0.0000     0.0000     0.0000 </r>
        <r>     4.2819     0.0000     0.0000     0.0000     0.0000     0.0000     0.0000     0.0000     0.0000     0.0000 </r>
        <r>     4.4001     0.0000     0.0000     0.0000     0.0000     0.0000     0.0000     0.0000     0.0000     0.0000 </r>
        <r>     4.5182     0.0000     0.0000     0.0000     0.0000     0.0000     0.0000     0.0000     0.0000     0.0000 </r>
        <r>     4.6364     0.0000     0.0000     0.0000     0.0000     0.0000     0.0000     0.0000     0.0000     0.0000 </r>
        <r>     4.7545     0.0000     0.0000     0.0000     0.0000     0.0000     0.0000     0.0000     0.0000     0.0000 </r>
        <r>     4.8727     0.0000     0.0000     0.0000     0.0000     0.0000     0.0000     0.0000     0.0000     0.0000 </r>
        <r>     4.9908     0.0000     0.0000     0.0000     0.0000     0.0000     0.0000     0.0000     0.0000     0.0000 </r>
        <r>     5.1090     0.0000     0.0000     0.0000     0.0000     0.0000     0.0000     0.0000     0.0000     0.0000 </r>
        <r>     5.2271     0.0000     0.0000     0.0000     0.0000     0.0000     0.0000     0.0000     0.0000     0.0000 </r>
        <r>     5.3452     0.0000     0.0000     0.0000     0.0000     0.0000     0.0000     0.0000     0.0000     0.0000 </r>
        <r>     5.4634     0.0000     0.0000     0.0000     0.0000     0.0000     0.0000     0.0000     0.0000     0.0000 </r>
        <r>     5.5815     0.0000     0.0000     0.0000     0.0000     0.0000     0.0000     0.0000     0.0000     0.0000 </r>
        <r>     5.6997     0.0000     0.0000     0.0000     0.0000     0.0000     0.0000     0.0000     0.0000     0.0000 </r>
        <r>     5.8178     0.0000     0.0000     0.0000     0.0000     0.0000     0.0000     0.0000     0.0000     0.0000 </r>
        <r>     5.9360     0.0000     0.0000     0.0000     0.0000     0.0000     0.0000     0.0000     0.0000     0.0000 </r>
        <r>     6.0541     0.0000     0.0000     0.0000     0.0000     0.0000     0.0000     0.0000     0.0000     0.0000 </r>
        <r>     6.1723     0.0000     0.0000     0.0000     0.0000     0.0000     0.0000     0.0000     0.0000     0.0000 </r>
        <r>     6.2904     0.0000     0.0000    -0.0006     0.0000     0.0000     0.0000     0.0000     0.0000     0.0000 </r>
[...]
       </set>
       <set comment="band 10">
        <r>  0.0000  0.0974  0.0000  0.0325  0.0000  0.0000  0.0000  0.0000  0.0000 </r>
        <r>  0.0000  0.0986  0.0000  0.0329  0.0000  0.0000  0.0000  0.0000  0.0000 </r>
        <r>  0.0000  0.0986  0.0000  0.0329  0.0000  0.0000  0.0000  0.0000  0.0000 </r>
        <r>  0.0000  0.0974  0.0000  0.0325  0.0000  0.0000  0.0000  0.0000  0.0000 </r>
       </set>
       <set comment="band 11">
        <r>  0.0000  0.0325  0.0000  0.0974  0.0000  0.0000  0.0000  0.0000  0.0000 </r>
        <r>  0.0000  0.0329  0.0000  0.0986  0.0000  0.0000  0.0000  0.0000  0.0000 </r>
        <r>  0.0000  0.0329  0.0000  0.0986  0.0000  0.0000  0.0000  0.0000  0.0000 </r>
        <r>  0.0000  0.0325  0.0000  0.0974  0.0000  0.0000  0.0000  0.0000  0.0000 </r>
       </set>
       <set comment="band 12">
        <r>  0.0000  0.0999  0.0000  0.0333  0.0000  0.0000  0.0000  0.0000  0.0000 </r>
        <r>  0.0000  0.0975  0.0000  0.0325  0.0000  0.0000  0.0000  0.0000  0.0000 </r>
        <r>  0.0000  0.0975  0.0000  0.0325  0.0000  0.0000  0.0000  0.0000  0.0000 </r>
        <r>  0.0000  0.0999  0.0000  0.0333  0.0000  0.0000  0.0000  0.0000  0.0000 </r>
       </set>
       <set comment="band 13">
        <r>  0.0000  0.0333  0.0000  0.0999  0.0000  0.0000  0.0000  0.0000  0.0000 </r>
        <r>  0.0000  0.0325  0.0000  0.0975  0.0000  0.0000  0.0000  0.0000  0.0000 </r>
        <r>  0.0000  0.0325  0.0000  0.0975  0.0000  0.0000  0.0000  0.0000  0.0000 </r>
        <r>  0.0000  0.0333  0.0000  0.0999  0.0000  0.0000  0.0000  0.0000  0.0000 </r>
       </set>
       <set comment="band 14">
        <r>  0.0000  0.0000  0.0646  0.0000  0.0000  0.0000  0.0000  0.0000  0.0000 </r>
        <r>  0.0000  0.0000  0.0892  0.0000  0.0000  0.0000  0.0000  0.0000  0.0000 </r>
        <r>  0.0000  0.0000  0.0889  0.0000  0.0000  0.0000  0.0000  0.0000  0.0000 </r>
        <r>  0.0000  0.0000  0.0648  0.0000  0.0000  0.0000  0.0000  0.0000  0.0000 </r>
       </set>
      </set>
      <set comment="kpoint 2">
       <set comment="band 1">
        <r>  0.1320  0.0101  0.0000  0.0303  0.0000  0.0000  0.0000  0.0000  0.0000 </r>
        <r>  0.1641  0.0058  0.0000  0.0175  0.0000  0.0000  0.0000  0.0000  0.0000 </r>
        <r>  0.1641  0.0058  0.0000  0.0175  0.0000  0.0000  0.0000  0.0000  0.0000 </r>
        <r>  0.1320  0.0101  0.0000  0.0303  0.0000  0.0000  0.0000  0.0000  0.0000 </r>
       </set>
       <set comment="band 2">
        <r>  0.1668  0.0058  0.0000  0.0173  0.0000  0.0000  0.0000  0.0000  0.0000 </r>
        <r>  0.1329  0.0105  0.0000  0.0314  0.0000  0.0000  0.0000  0.0000  0.0000 </r>
        <r>  0.1329  0.0105  0.0000  0.0314  0.0000  0.0000  0.0000  0.0000  0.0000 </r>
        <r>  0.1668  0.0058  0.0000  0.0173  0.0000  0.0000  0.0000  0.0000  0.0000 </r>
       </set>
       <set comment="band 3">
        <r>  0.0500  0.0270  0.0000  0.0810  0.0000  0.0000  0.0000  0.0000  0.0000 </r>
        <r>  0.0885  0.0217  0.0000  0.0650  0.0000  0.0000  0.0000  0.0000  0.0000 </r>
        <r>  0.0885  0.0217  0.0000  0.0650  0.0000  0.0000  0.0000  0.0000  0.0000 </r>
        <r>  0.0500  0.0270  0.0000  0.0810  0.0000  0.0000  0.0000  0.0000  0.0000 </r>
       </set>
       <set comment="band 4">
        <r>  0.0879  0.0221  0.0000  0.0663  0.0000  0.0000  0.0000  0.0000  0.0000 </r>
        <r>  0.0521  0.0272  0.0000  0.0816  0.0000  0.0000  0.0000  0.0000  0.0000 </r>
        <r>  0.0521  0.0272  0.0000  0.0816  0.0000  0.0000  0.0000  0.0000  0.0000 </r>
        <r>  0.0879  0.0221  0.0000  0.0663  0.0000  0.0000  0.0000  0.0000  0.0000 </r>
       </set>
       <set comment="band 5">
        <r>  0.0000  0.1472  0.0000  0.0491  0.0000  0.0000  0.0000  0.0000  0.0000 </r>
        <r>  0.0000  0.1476  0.0000  0.0492  0.0000  0.0000  0.0000  0.0000  0.0000 </r>
        <r>  0.0000  0.1476  0.0000  0.0492  0.0000  0.0000  0.0000  0.0000  0.0000 </r>
        <r>  0.0000  0.1472  0.0000  0.0491  0.0000  0.0000  0.0000  0.0000  0.0000 </r>
       </set>
       <set comment="band 6">
        <r>  0.0000  0.1482  0.0000  0.0494  0.0000  0.0000  0.0000  0.0000  0.0000 </r>
        <r>  0.0000  0.1486  0.0000  0.0495  0.0000  0.0000  0.0000  0.0000  0.0000 </r>
        <r>  0.0000  0.1486  0.0000  0.0495  0.0000  0.0000  0.0000  0.0000  0.0000 </r>
        <r>  0.0000  0.1482  0.0000  0.0494  0.0000  0.0000  0.0000  0.0000  0.0000 </r>
       </set>
       <set comment="band 7">
        <r>  0.0000  0.0000  0.0960  0.0000  0.0000  0.0000  0.0000  0.0000  0.0000 </r>
        <r>  0.0000  0.0000  0.1424  0.0000  0.0000  0.0000  0.0000  0.0000  0.0000 </r>
        <r>  0.0000  0.0000  0.1424  0.0000  0.0000  0.0000  0.0000  0.0000  0.0000 </r>
        <r>  0.0000  0.0000  0.0960  0.0000  0.0000  0.0000  0.0000  0.0000  0.0000 </r>
       </set>
       <set comment="band 8">
        <r>  0.0000  0.0000  0.1621  0.0000  0.0000  0.0000  0.0000  0.0000  0.0000 </r>
        <r>  0.0000  0.0000  0.0961  0.0000  0.0000  0.0000  0.0000  0.0000  0.0000 </r>
        <r>  0.0000  0.0000  0.0961  0.0000  0.0000  0.0000  0.0000  0.0000  0.0000 </r>
        <r>  0.0000  0.0000  0.1621  0.0000  0.0000  0.0000  0.0000  0.0000  0.0000 </r>
       </set>
       <set comment="band 9">
        <r>  0.0000  0.0000  0.0525  0.0000  0.0000  0.0000  0.0000  0.0000  0.0000 </r>
        <r>  0.0000  0.0000  0.1688  0.0000  0.0000  0.0000  0.0000  0.0000  0.0000 </r>
        <r>  0.0000  0.0000  0.1688  0.0000  0.0000  0.0000  0.0000  0.0000  0.0000 </r>
        <r>  0.0000  0.0000  0.0525  0.0000  0.0000  0.0000  0.0000  0.0000  0.0000 </r>
       </set>
       <set comment="band 10">
        <r>  0.0000  0.0000  0.1741  0.0000  0.0000  0.0000  0.0000  0.0000  0.0000 </r>
        <r>  0.0000  0.0000  0.0780  0.0000  0.0000  0.0000  0.0000  0.0000  0.0000 </r>
        <r>  0.0000  0.0000  0.0780  0.0000  0.0000  0.0000  0.0000  0.0000  0.0000 </r>
        <r>  0.0000  0.0000  0.1741  0.0000  0.0000  0.0000  0.0000  0.0000  0.0000 </r>
       </set>
       <set comment="band 11">
        <r>  0.0885  0.0049  0.0000  0.0146  0.0000  0.0000  0.0000  0.0000  0.0000 </r>
        <r>  0.0876  0.0048  0.0000  0.0143  0.0000  0.0000  0.0000  0.0000  0.0000 </r>
        <r>  0.0876  0.0048  0.0000  0.0143  0.0000  0.0000  0.0000  0.0000  0.0000 </r>
        <r>  0.0885  0.0049  0.0000  0.0146  0.0000  0.0000  0.0000  0.0000  0.0000 </r>
       </set>
       <set comment="band 12">
        <r>  0.0936  0.0050  0.0000  0.0149  0.0000  0.0000  0.0000  0.0000  0.0000 </r>
        <r>  0.0935  0.0050  0.0000  0.0149  0.0000  0.0000  0.0000  0.0000  0.0000 </r>
        <r>  0.0935  0.0050  0.0000  0.0149  0.0000  0.0000  0.0000  0.0000  0.0000 </r>
        <r>  0.0937  0.0050  0.0000  0.0149  0.0000  0.0000  0.0000  0.0000  0.0000 </r>
       </set>
       <set comment="band 13">
        <r>  0.0020  0.0101  0.0000  0.0303  0.0000  0.0000  0.0000  0.0000  0.0000 </r>
        <r>  0.0104  0.0006  0.0000  0.0017  0.0000  0.0000  0.0000  0.0000  0.0000 </r>
        <r>  0.0104  0.0006  0.0000  0.0017  0.0000  0.0000  0.0000  0.0000  0.0000 </r>
        <r>  0.0020  0.0101  0.0000  0.0303  0.0000  0.0000  0.0000  0.0000  0.0000 </r>
       </set>
       <set comment="band 14">
        <r>  0.0075  0.0010  0.0000  0.0030  0.0000  0.0000  0.0000  0.0000  0.0000 </r>
        <r>  0.0000  0.0111  0.0000  0.0334  0.0000  0.0000  0.0000  0.0000  0.0000 </r>
        <r>  0.0000  0.0111  0.0000  0.0334  0.0000  0.0000  0.0000  0.0000  0.0000 </r>
        <r>  0.0075  0.0010  0.0000  0.0030  0.0000  0.0000  0.0000  0.0000  0.0000 </r>
       </set>
      </set>
      <set comment="kpoint 3">
       <set comment="band 1">
        <r>  0.3219  0.0000  0.0000  0.0000  0.0000  0.0000  0.0000  0.0000  0.0000 </r>
        <r>  0.3227  0.0000  0.0000  0.0000  0.0000  0.0000  0.0000  0.0000  0.0000 </r>
        <r>  0.0000  0.0000  0.0001  0.0000  0.0000  0.0000  0.0000  0.0000  0.0000 </r>
        <r>  0.0000  0.0000  0.0001  0.0000  0.0000  0.0000  0.0000  0.0000  0.0000 </r>
       </set>
       <set comment="band 2">
        <r>  0.0000  0.0000  0.0001  0.0000  0.0000  0.0000  0.0000  0.0000  0.0000 </r>
        <r>  0.0000  0.0000  0.0001  0.0000  0.0000  0.0000  0.0000  0.0000  0.0000 </r>
        <r>  0.3227  0.0000  0.0000  0.0000  0.0000  0.0000  0.0000  0.0000  0.0000 </r>
        <r>  0.3219  0.0000  0.0000  0.0000  0.0000  0.0000  0.0000  0.0000  0.0000 </r>
       </set>
       <set comment="band 3">
        <r>  0.0000  0.0000  0.2121  0.0000  0.0000  0.0000  0.0000  0.0000  0.0000 </r>
        <r>  0.0000  0.0000  0.2133  0.0000  0.0000  0.0000  0.0000  0.0000  0.0000 </r>
        <r>  0.0018  0.0000  0.0000  0.0000  0.0000  0.0000  0.0000  0.0000  0.0000 </r>
        <r>  0.0021  0.0000  0.0000  0.0000  0.0000  0.0000  0.0000  0.0000  0.0000 </r>
       </set>
       <set comment="band 4">
        <r>  0.0021  0.0000  0.0000  0.0000  0.0000  0.0000  0.0000  0.0000  0.0000 </r>
        <r>  0.0018  0.0000  0.0000  0.0000  0.0000  0.0000  0.0000  0.0000  0.0000 </r>
        <r>  0.0000  0.0000  0.2133  0.0000  0.0000  0.0000  0.0000  0.0000  0.0000 </r>
        <r>  0.0000  0.0000  0.2121  0.0000  0.0000  0.0000  0.0000  0.0000  0.0000 </r>
       </set>
       <set comment="band 5">
        <r>  0.0000  0.3101  0.0000  0.1034  0.0000  0.0000  0.0000  0.0000  0.0000 </r>
        <r>  0.0000  0.3116  0.0000  0.1039  0.0000  0.0000  0.0000  0.0000  0.0000 </r>
        <r>  0.0000  0.0000  0.0000  0.0000  0.0000  0.0000  0.0000  0.0000  0.0000 </r>
        <r>  0.0000  0.0000  0.0000  0.0000  0.0000  0.0000  0.0000  0.0000  0.0000 </r>
       </set>
       <set comment="band 6">
        <r>  0.0000  0.0000  0.0000  0.0000  0.0000  0.0000  0.0000  0.0000  0.0000 </r>
        <r>  0.0000  0.0000  0.0000  0.0000  0.0000  0.0000  0.0000  0.0000  0.0000 </r>
        <r>  0.0000  0.3116  0.0000  0.1039  0.0000  0.0000  0.0000  0.0000  0.0000 </r>
        <r>  0.0000  0.3101  0.0000  0.1034  0.0000  0.0000  0.0000  0.0000  0.0000 </r>
       </set>
       <set comment="band 7">
        <r>  0.0000  0.1034  0.0000  0.3101  0.0000  0.0000  0.0000  0.0000  0.0000 </r>
        <r>  0.0000  0.1039  0.0000  0.3116  0.0000  0.0000  0.0000  0.0000  0.0000 </r>
        <r>  0.0000  0.0000  0.0000  0.0000  0.0000  0.0000  0.0000  0.0000  0.0000 </r>
        <r>  0.0000  0.0000  0.0000  0.0000  0.0000  0.0000  0.0000  0.0000  0.0000 </r>
       </set>
       <set comment="band 8">
        <r>  0.0000  0.0000  0.0000  0.0000  0.0000  0.0000  0.0000  0.0000  0.0000 </r>
        <r>  0.0000  0.0000  0.0000  0.0000  0.0000  0.0000  0.0000  0.0000  0.0000 </r>
        <r>  0.0000  0.1039  0.0000  0.3116  0.0000  0.0000  0.0000  0.0000  0.0000 </r>
        <r>  0.0000  0.1034  0.0000  0.3101  0.0000  0.0000  0.0000  0.0000  0.0000 </r>
       </set>
       <set comment="band 9">
        <r>  0.0253  0.0000  0.0010  0.0000  0.0000  0.0000  0.0000  0.0000  0.0000 </r>
        <r>  0.0270  0.0000  0.0010  0.0000  0.0000  0.0000  0.0000  0.0000  0.0000 </r>
        <r>  0.0005  0.0000  0.0588  0.0000  0.0000  0.0000  0.0000  0.0000  0.0000 </r>
        <r>  0.0004  0.0000  0.0599  0.0000  0.0000  0.0000  0.0000  0.0000  0.0000 </r>
       </set>
       <set comment="band 10">
        <r>  0.0004  0.0000  0.0599  0.0000  0.0000  0.0000  0.0000  0.0000  0.0000 </r>
        <r>  0.0005  0.0000  0.0588  0.0000  0.0000  0.0000  0.0000  0.0000  0.0000 </r>
        <r>  0.0270  0.0000  0.0010  0.0000  0.0000  0.0000  0.0000  0.0000  0.0000 </r>
        <r>  0.0253  0.0000  0.0010  0.0000  0.0000  0.0000  0.0000  0.0000  0.0000 </r>
       </set>
       <set comment="band 11">
        <r>  0.0000  0.1965  0.0000  0.0659  0.0000  0.0000  0.0000  0.0000  0.0000 </r>
        <r>  0.0000  0.1953  0.0000  0.0655  0.0000  0.0000  0.0000  0.0000  0.0000 </r>
        <r>  0.0000  0.0005  0.0000  0.0002  0.0000  0.0000  0.0000  0.0000  0.0000 </r>
        <r>  0.0000  0.0005  0.0000  0.0002  0.0000  0.0000  0.0000  0.0000  0.0000 </r>
       </set>
       <set comment="band 12">
        <r>  0.0000  0.0004  0.0000  0.0002  0.0000  0.0000  0.0000  0.0000  0.0000 </r>
        <r>  0.0000  0.0004  0.0000  0.0002  0.0000  0.0000  0.0000  0.0000  0.0000 </r>
        <r>  0.0000  0.1959  0.0000  0.0649  0.0000  0.0000  0.0000  0.0000  0.0000 </r>
        <r>  0.0000  0.1971  0.0000  0.0653  0.0000  0.0000  0.0000  0.0000  0.0000 </r>
       </set>
       <set comment="band 13">
        <r>  0.0000  0.0658  0.0000  0.1962  0.0000  0.0000  0.0000  0.0000  0.0000 </r>
        <r>  0.0000  0.0654  0.0000  0.1950  0.0000  0.0000  0.0000  0.0000  0.0000 </r>
        <r>  0.0000  0.0003  0.0000  0.0007  0.0000  0.0000  0.0000  0.0000  0.0000 </r>
        <r>  0.0000  0.0003  0.0000  0.0007  0.0000  0.0000  0.0000  0.0000  0.0000 </r>
       </set>
       <set comment="band 14">
        <r>  0.0000  0.0002  0.0000  0.0007  0.0000  0.0000  0.0000  0.0000  0.0000 </r>
        <r>  0.0000  0.0002  0.0000  0.0007  0.0000  0.0000  0.0000  0.0000  0.0000 </r>
        <r>  0.0000  0.0648  0.0000  0.1957  0.0000  0.0000  0.0000  0.0000  0.0000 </r>
        <r>  0.0000  0.0652  0.0000  0.1969  0.0000  0.0000  0.0000  0.0000  0.0000 </r>
       </set>
      </set>
      <set comment="kpoint 4">
       <set comment="band 1">
        <r>  0.2966  0.0162  0.0000  0.0485  0.0000  0.0000  0.0000  0.0000  0.0000 </r>
        <r>  0.3019  0.0156  0.0000  0.0468  0.0000  0.0000  0.0000  0.0000  0.0000 </r>
        <r>  0.0000  0.0000  0.0000  0.0000  0.0000  0.0000  0.0000  0.0000  0.0000 </r>
        <r>  0.0000  0.0000  0.0000  0.0000  0.0000  0.0000  0.0000  0.0000  0.0000 </r>
       </set>
       <set comment="band 2">
        <r>  0.0000  0.0000  0.0000  0.0000  0.0000  0.0000  0.0000  0.0000  0.0000 </r>
        <r>  0.0000  0.0000  0.0000  0.0000  0.0000  0.0000  0.0000  0.0000  0.0000 </r>
        <r>  0.3019  0.0156  0.0000  0.0468  0.0000  0.0000  0.0000  0.0000  0.0000 </r>
        <r>  0.2966  0.0162  0.0000  0.0485  0.0000  0.0000  0.0000  0.0000  0.0000 </r>
       </set>
       <set comment="band 3">
        <r>  0.1397  0.0487  0.0000  0.1462  0.0000  0.0000  0.0000  0.0000  0.0000 </r>
        <r>  0.1351  0.0495  0.0000  0.1485  0.0000  0.0000  0.0000  0.0000  0.0000 </r>
        <r>  0.0000  0.0000  0.0000  0.0000  0.0000  0.0000  0.0000  0.0000  0.0000 </r>
        <r>  0.0000  0.0000  0.0000  0.0000  0.0000  0.0000  0.0000  0.0000  0.0000 </r>
       </set>
       <set comment="band 4">
        <r>  0.0000  0.0000  0.0000  0.0000  0.0000  0.0000  0.0000  0.0000  0.0000 </r>
        <r>  0.0000  0.0000  0.0000  0.0000  0.0000  0.0000  0.0000  0.0000  0.0000 </r>
        <r>  0.1351  0.0495  0.0000  0.1485  0.0000  0.0000  0.0000  0.0000  0.0000 </r>
        <r>  0.1397  0.0487  0.0000  0.1462  0.0000  0.0000  0.0000  0.0000  0.0000 </r>
       </set>
       <set comment="band 5">
        <r>  0.0000  0.2956  0.0000  0.0985  0.0000  0.0000  0.0000  0.0000  0.0000 </r>
        <r>  0.0000  0.2964  0.0000  0.0988  0.0000  0.0000  0.0000  0.0000  0.0000 </r>
        <r>  0.0000  0.0000  0.0000  0.0000  0.0000  0.0000  0.0000  0.0000  0.0000 </r>
        <r>  0.0000  0.0000  0.0000  0.0000  0.0000  0.0000  0.0000  0.0000  0.0000 </r>
       </set>
       <set comment="band 6">
        <r>  0.0000  0.0000  0.0000  0.0000  0.0000  0.0000  0.0000  0.0000  0.0000 </r>
        <r>  0.0000  0.0000  0.0000  0.0000  0.0000  0.0000  0.0000  0.0000  0.0000 </r>
        <r>  0.0000  0.2964  0.0000  0.0988  0.0000  0.0000  0.0000  0.0000  0.0000 </r>
        <r>  0.0000  0.2956  0.0000  0.0985  0.0000  0.0000  0.0000  0.0000  0.0000 </r>
       </set>
       <set comment="band 7">
        <r>  0.0000  0.0000  0.2504  0.0000  0.0000  0.0000  0.0000  0.0000  0.0000 </r>
        <r>  0.0000  0.0000  0.2555  0.0000  0.0000  0.0000  0.0000  0.0000  0.0000 </r>
        <r>  0.0009  0.0000  0.0000  0.0001  0.0000  0.0000  0.0000  0.0000  0.0000 </r>
        <r>  0.0000  0.0003  0.0000  0.0008  0.0000  0.0000  0.0000  0.0000  0.0000 </r>
       </set>
       <set comment="band 8">
        <r>  0.0000  0.0003  0.0000  0.0008  0.0000  0.0000  0.0000  0.0000  0.0000 </r>
        <r>  0.0009  0.0000  0.0000  0.0001  0.0000  0.0000  0.0000  0.0000  0.0000 </r>
        <r>  0.0000  0.0000  0.2555  0.0000  0.0000  0.0000  0.0000  0.0000  0.0000 </r>
        <r>  0.0000  0.0000  0.2504  0.0000  0.0000  0.0000  0.0000  0.0000  0.0000 </r>
       </set>
       <set comment="band 9">
        <r>  0.0000  0.0000  0.2206  0.0000  0.0000  0.0000  0.0000  0.0000  0.0000 </r>
        <r>  0.0000  0.0000  0.2155  0.0000  0.0000  0.0000  0.0000  0.0000  0.0000 </r>
        <r>  0.0002  0.0003  0.0000  0.0009  0.0000  0.0000  0.0000  0.0000  0.0000 </r>
        <r>  0.0016  0.0000  0.0000  0.0000  0.0000  0.0000  0.0000  0.0000  0.0000 </r>
       </set>
       <set comment="band 10">
        <r>  0.0016  0.0000  0.0000  0.0000  0.0000  0.0000  0.0000  0.0000  0.0000 </r>
        <r>  0.0002  0.0003  0.0000  0.0009  0.0000  0.0000  0.0000  0.0000  0.0000 </r>
        <r>  0.0000  0.0000  0.2155  0.0000  0.0000  0.0000  0.0000  0.0000  0.0000 </r>
        <r>  0.0000  0.0000  0.2206  0.0000  0.0000  0.0000  0.0000  0.0000  0.0000 </r>
       </set>
       <set comment="band 11">
        <r>  0.1800  0.0097  0.0000  0.0292  0.0000  0.0000  0.0000  0.0000  0.0000 </r>
        <r>  0.1824  0.0101  0.0000  0.0302  0.0000  0.0000  0.0000  0.0000  0.0000 </r>
        <r>  0.0000  0.0000  0.0000  0.0000  0.0000  0.0000  0.0000  0.0000  0.0000 </r>
        <r>  0.0000  0.0000  0.0000  0.0000  0.0000  0.0000  0.0000  0.0000  0.0000 </r>
       </set>
       <set comment="band 12">
        <r>  0.0000  0.0000  0.0000  0.0000  0.0000  0.0000  0.0000  0.0000  0.0000 </r>
        <r>  0.0000  0.0000  0.0000  0.0000  0.0000  0.0000  0.0000  0.0000  0.0000 </r>
        <r>  0.1824  0.0101  0.0000  0.0302  0.0000  0.0000  0.0000  0.0000  0.0000 </r>
        <r>  0.1800  0.0097  0.0000  0.0292  0.0000  0.0000  0.0000  0.0000  0.0000 </r>
       </set>
       <set comment="band 13">
        <r>  0.0115  0.0016  0.0003  0.0048  0.0000  0.0000  0.0000  0.0000  0.0000 </r>
        <r>  0.0007  0.0107  0.0003  0.0322  0.0000  0.0000  0.0000  0.0000  0.0000 </r>
        <r>  0.0000  0.0000  0.0975  0.0001  0.0000  0.0000  0.0000  0.0000  0.0000 </r>
        <r>  0.0000  0.0000  0.0812  0.0000  0.0000  0.0000  0.0000  0.0000  0.0000 </r>
       </set>
       <set comment="band 14">
        <r>  0.0000  0.0000  0.0812  0.0000  0.0000  0.0000  0.0000  0.0000  0.0000 </r>
        <r>  0.0000  0.0000  0.0975  0.0001  0.0000  0.0000  0.0000  0.0000  0.0000 </r>
        <r>  0.0007  0.0107  0.0003  0.0322  0.0000  0.0000  0.0000  0.0000  0.0000 </r>
        <r>  0.0115  0.0016  0.0003  0.0048  0.0000  0.0000  0.0000  0.0000  0.0000 </r>
       </set>
      </set>
     </set>
    </set>
   </array>
  </projected>
 </calculation>
 <structure name="finalpos" >
  <crystal>
   <varray name="basis" >
    <v>       2.46120000       0.00000000       0.00000000 </v>
    <v>      -1.23060000       2.13146172       0.00000000 </v>
    <v>       0.00000000       0.00000000       6.70790000 </v>
   </varray>
   <i name="volume">     35.18933212 </i>
   <varray name="rec_basis" >
    <v>       0.40630587       0.23458080       0.00000000 </v>
    <v>       0.00000000       0.46916160       0.00000000 </v>
    <v>       0.00000000       0.00000000       0.14907795 </v>
   </varray>
  </crystal>
  <varray name="positions" >
   <v>       0.00000000       0.00000000       0.00000000 </v>
   <v>       0.33333333       0.66666667       0.00000000 </v>
   <v>       0.33333333       0.66666667       0.50000000 </v>
   <v>       0.66666667       0.33333333       0.50000000 </v>
  </varray>
 </structure>
</modeling>
