    2    2   50    1
  0.4851000E+03  0.9800000E-09  0.9900000E-09  0.1000000E-08  0.5000000E-15
  1.000000000000000E-004
  CAR 
 unknown system                          
   12    1   10
 
  0.0000000E+00  0.0000000E+00  0.0000000E+00  0.1000000E+01
   1      -31.985731
   2      -19.947435
   3      -13.027801
   4      -12.441355
   5      -12.441087
   6       -5.974140
   7       -5.974123
   8       -0.310281
   9        0.932528
  10        1.131374
