       N       E                     dE             d eps       ncg     rms          rms(c)
DAV:   1     0.405245694547E+02    0.40525E+02   -0.28471E+03    36   0.493E+02
DAV:   2     0.460328184001E+01   -0.35921E+02   -0.35862E+02    22   0.131E+02
DAV:   3    -0.715239231824E+01   -0.11756E+02   -0.11484E+02    40   0.298E+01
DAV:   4    -0.894372072506E+01   -0.17913E+01   -0.17785E+01    20   0.109E+01
DAV:   5    -0.902488670287E+01   -0.81166E-01   -0.77287E-01    32   0.250E+00    0.437E+00
DAV:   6    -0.877238260184E+01    0.25250E+00   -0.25441E-01    24   0.501E+00    0.237E+00
DAV:   7    -0.877316240042E+01   -0.77980E-03   -0.35604E-01    20   0.461E+00    0.611E+00
DAV:   8    -0.853961102750E+01    0.23355E+00   -0.23757E-01    20   0.188E+00    0.198E+00
DAV:   9    -0.874725319657E+01   -0.20764E+00   -0.10049E-01    20   0.138E+00    0.251E+00
DAV:  10    -0.869100736637E+01    0.56246E-01   -0.79790E-02    20   0.603E-01    0.136E+00
DAV:  11    -0.873666233183E+01   -0.45655E-01   -0.25218E-02    20   0.576E-01    0.793E-01
DAV:  12    -0.873720419590E+01   -0.54186E-03   -0.58257E-03    20   0.354E-01    0.312E-01
DAV:  13    -0.874308744850E+01   -0.58833E-02   -0.11750E-03    20   0.225E-01    0.136E-01
DAV:  14    -0.874347244503E+01   -0.38500E-03   -0.29343E-04    20   0.111E-01    0.794E-02
DAV:  15    -0.874375849566E+01   -0.28605E-03   -0.50686E-05    22   0.750E-02    0.127E-02
DAV:  16    -0.874398164533E+01   -0.22315E-03   -0.84567E-06    20   0.314E-02    0.801E-03
DAV:  17    -0.874401877466E+01   -0.37129E-04   -0.26515E-06    22   0.808E-03
   1 F= -.87440188E+01 E0= -.87346156E+01  d E =-.874402E+01
       N       E                     dE             d eps       ncg     rms          rms(c)
DAV:   1    -0.867677494327E+01    0.67207E-01   -0.99352E+00    24   0.307E+01    0.746E-01
DAV:   2    -0.867467187921E+01    0.21031E-02   -0.91132E-02    24   0.299E+00    0.351E-01
DAV:   3    -0.867505352282E+01   -0.38164E-03   -0.14134E-02    24   0.843E-01    0.122E+00
DAV:   4    -0.865700916140E+01    0.18044E-01   -0.13503E-02    20   0.302E-01    0.506E-01
DAV:   5    -0.867376326840E+01   -0.16754E-01   -0.31882E-03    20   0.334E-01    0.247E-01
DAV:   6    -0.867358723563E+01    0.17603E-03   -0.10510E-03    20   0.187E-01    0.152E-01
DAV:   7    -0.867415548224E+01   -0.56825E-03   -0.23023E-04    20   0.143E-01    0.500E-02
DAV:   8    -0.867452612288E+01   -0.37064E-03   -0.50620E-05    20   0.592E-02    0.267E-02
DAV:   9    -0.867456158263E+01   -0.35460E-04   -0.50710E-06    20   0.266E-02
   2 F= -.86745616E+01 E0= -.86651584E+01  d E =0.694572E-01
       N       E                     dE             d eps       ncg     rms          rms(c)
DAV:   1    -0.874449064269E+01   -0.69965E-01   -0.66888E+00    24   0.255E+01    0.577E-01
DAV:   2    -0.874670086082E+01   -0.22102E-02   -0.89182E-02    22   0.276E+00    0.328E-01
DAV:   3    -0.874611074946E+01    0.59011E-03   -0.77397E-03    24   0.708E-01    0.626E-01
DAV:   4    -0.874082850617E+01    0.52822E-02   -0.12578E-02    20   0.223E-01    0.785E-01
DAV:   5    -0.873936812315E+01    0.14604E-02   -0.48544E-03    20   0.346E-01    0.268E-01
DAV:   6    -0.874611877541E+01   -0.67507E-02   -0.19248E-03    20   0.213E-01    0.302E-01
DAV:   7    -0.874452991156E+01    0.15889E-02   -0.33953E-04    20   0.155E-01    0.633E-02
DAV:   8    -0.874623321558E+01   -0.17033E-02   -0.99698E-05    20   0.114E-01    0.416E-02
DAV:   9    -0.874623030583E+01    0.29097E-05   -0.51024E-05    22   0.121E-02
   3 F= -.87462303E+01 E0= -.87368277E+01  d E =-.716687E-01
       N       E                     dE             d eps       ncg     rms          rms(c)
DAV:   1    -0.874637809015E+01   -0.14487E-03   -0.97187E-03    20   0.969E-01    0.239E-02
DAV:   2    -0.874644819335E+01   -0.70103E-04   -0.10430E-04    22   0.102E-01
   4 F= -.87464482E+01 E0= -.87370450E+01  d E =-.217888E-03
