<?xml version="1.0" encoding="ISO-8859-1"?>
<modeling>
 <generator>
  <i name="program" type="string">vasp </i>
  <i name="version" type="string">5.2.12  </i>
  <i name="subversion" type="string">11Nov11 complex                                                      parallel </i>
  <i name="platform" type="string">LinuxIFC </i>
  <i name="date" type="string">2012 10 09 </i>
  <i name="time" type="string">20:12:59 </i>
 </generator>
 <incar>
  <i type="string" name="PREC">accurate</i>
  <i type="int" name="IBRION">     1</i>
  <i name="EDIFFG">     -0.05000000</i>
  <i type="int" name="NSW">    50</i>
  <i type="int" name="ISIF">     2</i>
  <i name="ENCUT">    350.00000000</i>
  <i type="logical" name="LREAL"> F  </i>
  <i type="int" name="ISMEAR">     1</i>
  <i name="SIGMA">      0.05000000</i>
 </incar>
 <kpoints>
  <generation param="Monkhorst-Pack">
   <v type="int" name="divisions">       1        1        1 </v>
   <v name="usershift">      0.00000000       0.00000000       0.00000000 </v>
   <v name="genvec1">      1.00000000       0.00000000       0.00000000 </v>
   <v name="genvec2">      0.00000000       1.00000000       0.00000000 </v>
   <v name="genvec3">      0.00000000       0.00000000       1.00000000 </v>
   <v name="shift">      0.00000000       0.00000000       0.00000000 </v>
  </generation>
  <varray name="kpointlist" >
   <v>       0.00000000       0.00000000       0.00000000 </v>
  </varray>
  <varray name="weights" >
   <v>       1.00000000 </v>
  </varray>
 </kpoints>
 <parameters>
  <separator name="general" >
   <i type="string" name="SYSTEM">unknown system</i>
   <i type="logical" name="LCOMPAT"> F  </i>
  </separator>
  <separator name="electronic" >
   <i type="string" name="PREC">accura</i>
   <i name="ENMAX">    350.00000000</i>
   <i name="ENAUG">    605.39200000</i>
   <i name="EDIFF">      0.00010000</i>
   <i type="int" name="IALGO">    38</i>
   <i type="int" name="IWAVPR">    11</i>
   <i type="int" name="NBANDS">    10</i>
   <i name="NELECT">     12.00000000</i>
   <i type="int" name="TURBO">     0</i>
   <i type="int" name="IRESTART">     0</i>
   <i type="int" name="NREBOOT">     0</i>
   <i type="int" name="NMIN">     0</i>
   <i name="EREF">      0.00000000</i>
   <separator name="electronic smearing" >
    <i type="int" name="ISMEAR">     1</i>
    <i name="SIGMA">      0.05000000</i>
    <i name="KSPACING">      0.50000000</i>
    <i type="logical" name="KGAMMA"> T  </i>
   </separator>
   <separator name="electronic projectors" >
    <i type="logical" name="LREAL"> F  </i>
    <v name="ROPT">      0.00000000</v>
    <i type="int" name="LMAXPAW">  -100</i>
    <i type="int" name="LMAXMIX">     2</i>
    <i type="logical" name="NLSPLINE"> F  </i>
   </separator>
   <separator name="electronic startup" >
    <i type="int" name="ISTART">     0</i>
    <i type="int" name="ICHARG">     2</i>
    <i type="int" name="INIWAV">     1</i>
   </separator>
   <separator name="electronic spin" >
    <i type="int" name="ISPIN">     1</i>
    <i type="logical" name="LNONCOLLINEAR"> F  </i>
    <v name="MAGMOM">      1.00000000      1.00000000</v>
    <i name="NUPDOWN">     -1.00000000</i>
    <i type="logical" name="LSORBIT"> F  </i>
    <v name="SAXIS">      0.00000000      0.00000000      1.00000000</v>
    <i type="logical" name="LSPIRAL"> F  </i>
    <v name="QSPIRAL">      0.00000000      0.00000000      0.00000000</v>
    <i type="logical" name="LZEROZ"> F  </i>
   </separator>
   <separator name="electronic exchange-correlation" >
    <i type="logical" name="LASPH"> F  </i>
    <i type="logical" name="LMETAGGA"> F  </i>
   </separator>
   <separator name="electronic convergence" >
    <i type="int" name="NELM">    60</i>
    <i type="int" name="NELMDL">    -5</i>
    <i type="int" name="NELMIN">     2</i>
    <i name="ENINI">    350.00000000</i>
    <separator name="electronic convergence detail" >
     <i type="logical" name="LDIAG"> T  </i>
     <i type="logical" name="LSUBROT"> T  </i>
     <i name="WEIMIN">      0.00100000</i>
     <i name="EBREAK">      0.00000250</i>
     <i name="DEPER">      0.30000000</i>
     <i type="int" name="NRMM">     4</i>
     <i name="TIME">      0.40000000</i>
    </separator>
   </separator>
   <separator name="electronic mixer" >
    <i name="AMIX">      0.40000000</i>
    <i name="BMIX">      1.00000000</i>
    <i name="AMIN">      0.10000000</i>
    <i name="AMIX_MAG">      1.60000000</i>
    <i name="BMIX_MAG">      1.00000000</i>
    <separator name="electronic mixer details" >
     <i type="int" name="IMIX">     4</i>
     <i type="int" name="MAXMIX">   -45</i>
     <i name="WC">    100.00000000</i>
     <i type="int" name="INIMIX">     1</i>
     <i type="int" name="MIXPRE">     1</i>
     <i type="int" name="MREMOVE">     5</i>
    </separator>
   </separator>
   <separator name="electronic dipolcorrection" >
    <i type="logical" name="LDIPOL"> F  </i>
    <i type="logical" name="LMONO"> F  </i>
    <i type="int" name="IDIPOL">     0</i>
    <i name="EPSILON">      1.00000000</i>
    <v name="DIPOL">   -100.00000000   -100.00000000   -100.00000000</v>
    <i name="EFIELD">      0.00000000</i>
   </separator>
  </separator>
  <separator name="grids" >
   <i type="int" name="NGX">    60</i>
   <i type="int" name="NGY">    60</i>
   <i type="int" name="NGZ">    64</i>
   <i type="int" name="NGXF">   120</i>
   <i type="int" name="NGYF">   120</i>
   <i type="int" name="NGZF">   128</i>
   <i type="logical" name="ADDGRID"> F  </i>
  </separator>
  <separator name="ionic" >
   <i type="int" name="NSW">    50</i>
   <i type="int" name="IBRION">     1</i>
   <i type="int" name="ISIF">     2</i>
   <i name="PSTRESS">      0.00000000</i>
   <i name="EDIFFG">     -0.05000000</i>
   <i type="int" name="NFREE">     0</i>
   <i name="POTIM">      0.50000000</i>
   <i name="SMASS">     -3.00000000</i>
   <i name="SCALEE">      1.00000000</i>
  </separator>
  <separator name="ionic md" >
   <i name="TEBEG">      0.00010000</i>
   <i name="TEEND">      0.00010000</i>
   <i type="int" name="NBLOCK">     1</i>
   <i type="int" name="KBLOCK">    50</i>
   <i type="int" name="NPACO">   256</i>
   <i name="APACO">     16.00000000</i>
  </separator>
  <separator name="symmetry" >
   <i type="int" name="ISYM">     2</i>
   <i name="SYMPREC">      0.00001000</i>
  </separator>
  <separator name="dos" >
   <i type="logical" name="LORBIT"> F  </i>
   <v name="RWIGS">     -1.00000000</v>
   <i type="int" name="NEDOS">   301</i>
   <i name="EMIN">     10.00000000</i>
   <i name="EMAX">    -10.00000000</i>
   <i name="EFERMI">      0.00000000</i>
  </separator>
  <separator name="writing" >
   <i type="int" name="NWRITE">     2</i>
   <i type="logical" name="LWAVE"> T  </i>
   <i type="logical" name="LCHARG"> T  </i>
   <i type="logical" name="LPARD"> F  </i>
   <i type="logical" name="LVTOT"> F  </i>
   <i type="logical" name="LVHAR"> F  </i>
   <i type="logical" name="LELF"> F  </i>
   <i type="logical" name="LOPTICS"> F  </i>
   <v name="STM">      0.00000000      0.00000000      0.00000000      0.00000000      0.00000000      0.00000000      0.00000000</v>
  </separator>
  <separator name="performance" >
   <i type="int" name="NPAR">     1</i>
   <i type="int" name="NSIM">     4</i>
   <i type="int" name="NBLK">    -1</i>
   <i type="logical" name="LPLANE"> T  </i>
   <i type="logical" name="LSCALAPACK"> F  </i>
   <i type="logical" name="LSCAAWARE"> F  </i>
   <i type="logical" name="LSCALU"> F  </i>
   <i type="logical" name="LASYNC"> F  </i>
   <i type="logical" name="LORBITALREAL"> F  </i>
  </separator>
  <separator name="miscellaneous" >
   <i type="int" name="IDIOT">     3</i>
   <i type="logical" name="LMUSIC"> F  </i>
   <v name="POMASS">     16.00000000</v>
   <v name="DARWINR">      0.00000000</v>
   <v name="DARWINV">      1.00000000</v>
   <i type="logical" name="LCORR"> T  </i>
  </separator>
  <i type="logical" name="GGA_COMPAT"> T  </i>
  <i type="logical" name="LBERRY"> F  </i>
  <i type="int" name="ICORELEVEL">     0</i>
  <i type="logical" name="LDAU"> F  </i>
  <i type="int" name="I_CONSTRAINED_M">     0</i>
  <separator name="electronic exchange-correlation" >
   <i type="string" name="GGA">--</i>
   <i type="int" name="VOSKOWN">     0</i>
   <i type="logical" name="LHFCALC"> F  </i>
   <i type="string" name="PRECFOCK"></i>
   <i type="logical" name="LHFONE"> F  </i>
   <i type="logical" name="LRHFCALC"> F  </i>
   <i type="logical" name="LTHOMAS"> F  </i>
   <i type="logical" name="LMODELHF"> F  </i>
   <i name="ENCUT4O">     -1.00000000</i>
   <i type="int" name="EXXOEP">     0</i>
   <i type="int" name="FOURORBIT">     0</i>
   <i name="AEXX">      0.00000000</i>
   <i name="HFALPHA">      0.00000000</i>
   <i name="ALDAX">      1.00000000</i>
   <i name="AGGAX">      1.00000000</i>
   <i name="ALDAC">      1.00000000</i>
   <i name="AGGAC">      1.00000000</i>
   <i type="int" name="NKREDX">     1</i>
   <i type="int" name="NKREDY">     1</i>
   <i type="int" name="NKREDZ">     1</i>
   <i type="logical" name="SHIFTRED"> F  </i>
   <i type="logical" name="ODDONLY"> F  </i>
   <i type="logical" name="EVENONLY"> F  </i>
   <i type="int" name="LMAXFOCK">     0</i>
   <i type="int" name="NMAXFOCKAE">     0</i>
   <i type="logical" name="LFOCKAEDFT"> F  </i>
   <i name="HFSCREEN">      0.00000000</i>
   <i name="HFSCREENC">      0.00000000</i>
  </separator>
  <separator name="vdW DFT" >
   <i type="logical" name="LUSE_VDW"> F  </i>
   <i name="Zab_VDW">     -0.84910000</i>
   <i name="PARAM1">      0.12340000</i>
   <i name="PARAM2">      1.00000000</i>
   <i name="PARAM3">      0.00000000</i>
  </separator>
  <separator name="model GW" >
   <i type="int" name="MODEL_GW">     0</i>
   <i name="MODEL_EPS0">    291.06000000</i>
   <i name="MODEL_ALPHA">      1.00000000</i>
  </separator>
  <separator name="linear response parameters" >
   <i type="logical" name="LEPSILON"> F  </i>
   <i type="logical" name="LRPA"> F  </i>
   <i type="logical" name="LNABLA"> F  </i>
   <i type="logical" name="LVEL"> F  </i>
   <i type="int" name="KINTER">     0</i>
   <i name="CSHIFT">      0.10000000</i>
   <i name="OMEGAMAX">     -1.00000000</i>
  </separator>
  <separator name="orbital magnetization" >
   <i type="logical" name="NUCIND"> F  </i>
   <v name="MAGPOS">      0.00000000      0.00000000      0.00000000</v>
   <i type="logical" name="LNICSALL"> T  </i>
   <i type="logical" name="ORBITALMAG"> F  </i>
   <i type="logical" name="LMAGBLOCH"> F  </i>
   <i type="logical" name="LCHIMAG"> F  </i>
   <i type="logical" name="LGAUGE"> T  </i>
   <i type="int" name="MAGATOM">     0</i>
   <v name="MAGDIPOL">      0.00000000      0.00000000      0.00000000</v>
   <v name="AVECCONST">      0.00000000      0.00000000      0.00000000</v>
  </separator>
  <separator name="response functions" >
   <i type="logical" name="LADDER"> F  </i>
   <i type="logical" name="LHARTREE"> T  </i>
   <i type="int" name="IBSE">     0</i>
   <i type="logical" name="LTCTE"> F  </i>
   <i type="logical" name="LTETE"> F  </i>
   <i type="logical" name="LFXCEPS"> F  </i>
   <i type="logical" name="L2ORDER"> F  </i>
   <i type="logical" name="LUSEW"> F  </i>
   <i name="ENCUTGW">     -2.00000000</i>
   <i name="ENCUTGWSOFT">     -2.00000000</i>
   <i name="ENCUTLF">     -1.00000000</i>
   <i type="int" name="LMAXMP2">    -1</i>
   <i name="SCISSOR">      0.00000000</i>
   <i type="int" name="NOMEGA">     0</i>
   <i type="int" name="NOMEGAR">     0</i>
   <i type="int" name="NBANDSGW">    -1</i>
   <i type="int" name="NBANDSO">    -1</i>
   <i type="int" name="NBANDSV">    -1</i>
   <i name="OPTEMAX">      0.00000000</i>
   <i type="int" name="NELM">     1</i>
   <i type="int" name="DIM">     3</i>
   <i type="int" name="ANTIRES">     0</i>
   <i name="OMEGAMAX">    -30.00000000</i>
   <i name="OMEGATL">   -200.00000000</i>
   <i type="int" name="OMEGAGRID">     0</i>
   <i name="CSHIFT">     -0.10000000</i>
   <i type="logical" name="SELFENERGY"> F  </i>
   <i type="logical" name="LSPECTRAL"> F  </i>
   <i type="logical" name="ODDONLYGW"> F  </i>
   <i type="logical" name="EVENONLYGW"> F  </i>
   <i type="int" name="NKREDLFX">     1</i>
   <i type="int" name="NKREDLFY">     1</i>
   <i type="int" name="NKREDLFZ">     1</i>
   <i type="int" name="MAXMEM">  1800</i>
   <i type="int" name="TELESCOPE">     0</i>
  </separator>
 </parameters>
 <atominfo>
  <atoms>       2 </atoms>
  <types>       1 </types>
  <array name="atoms" >
   <dimension dim="1">ion</dimension>
   <field type="string">element</field>
   <field type="int">atomtype</field>
   <set>
    <rc><c>O </c><c>   1</c></rc>
    <rc><c>O </c><c>   1</c></rc>
   </set>
  </array>
  <array name="atomtypes" >
   <dimension dim="1">type</dimension>
   <field type="int">atomspertype</field>
   <field type="string">element</field>
   <field>mass</field>
   <field>valence</field>
   <field type="string">pseudopotential</field>
   <set>
    <rc><c>   2</c><c>O </c><c>     16.00000000</c><c>      6.00000000</c><c> PAW_PBE O 08Apr2002                    </c></rc>
   </set>
  </array>
 </atominfo>
 <structure name="initialpos" >
  <crystal>
   <varray name="basis" >
    <v>       9.80000000       0.00000000       0.00000000 </v>
    <v>       0.00000000       9.90000000       0.00000000 </v>
    <v>       0.00000000       0.00000000      10.00000000 </v>
   </varray>
   <i name="volume">    970.20000000 </i>
   <varray name="rec_basis" >
    <v>       0.10204082       0.00000000       0.00000000 </v>
    <v>       0.00000000       0.10101010       0.00000000 </v>
    <v>       0.00000000       0.00000000       0.10000000 </v>
   </varray>
  </crystal>
  <varray name="positions" >
   <v>       0.00000000       0.00000000       0.00000000 </v>
   <v>       0.12551020       0.00000000       0.00000000 </v>
  </varray>
 </structure>
 <calculation>
  <scstep>
   <time name="dav">    2.80    3.62</time>
   <time name="total">    6.21    8.03</time>
   <energy>
    <i name="alphaZ">      0.57280012 </i>
    <i name="ewald">    126.15054829 </i>
    <i name="hartreedc">   -854.30024460 </i>
    <i name="XCdc">     54.46669426 </i>
    <i name="pawpsdc">    491.99680524 </i>
    <i name="pawaedc">   -495.69617649 </i>
    <i name="eentropy">      0.00289895 </i>
    <i name="bandstr">   -146.66998531 </i>
    <i name="atom">    864.00122898 </i>
    <i name="e_fr_energy">     40.52456945 </i>
    <i name="e_wo_entrp">     40.52167050 </i>
    <i name="e_0_energy">     40.52360314 </i>
   </energy>
  </scstep>
  <scstep>
   <time name="dav">    2.10    2.96</time>
   <time name="total">    2.10    2.97</time>
   <energy>
    <i name="e_fr_energy">      4.60328184 </i>
    <i name="e_wo_entrp">      4.60038289 </i>
    <i name="e_0_energy">      4.60231552 </i>
   </energy>
  </scstep>
  <scstep>
   <time name="dav">    3.50    4.10</time>
   <time name="total">    3.50    4.11</time>
   <energy>
    <i name="e_fr_energy">     -7.15239232 </i>
    <i name="e_wo_entrp">     -7.15529127 </i>
    <i name="e_0_energy">     -7.15335864 </i>
   </energy>
  </scstep>
  <scstep>
   <time name="dav">    2.30    2.96</time>
   <time name="total">    2.30    2.97</time>
   <energy>
    <i name="e_fr_energy">     -8.94372073 </i>
    <i name="e_wo_entrp">     -8.91962755 </i>
    <i name="e_0_energy">     -8.93568967 </i>
   </energy>
  </scstep>
  <scstep>
   <time name="dav">    2.77    3.92</time>
   <time name="total">    3.44    4.82</time>
   <energy>
    <i name="e_fr_energy">     -9.02488670 </i>
    <i name="e_wo_entrp">     -8.99668233 </i>
    <i name="e_0_energy">     -9.01548524 </i>
   </energy>
  </scstep>
  <scstep>
   <time name="dav">    2.18    2.92</time>
   <time name="total">    7.06    9.49</time>
   <energy>
    <i name="e_fr_energy">     -8.77238260 </i>
    <i name="e_wo_entrp">     -8.74436118 </i>
    <i name="e_0_energy">     -8.76304213 </i>
   </energy>
  </scstep>
  <scstep>
   <time name="dav">    2.05    2.44</time>
   <time name="total">    6.69    8.35</time>
   <energy>
    <i name="e_fr_energy">     -8.77316240 </i>
    <i name="e_wo_entrp">     -8.77100753 </i>
    <i name="e_0_energy">     -8.77244411 </i>
   </energy>
  </scstep>
  <scstep>
   <time name="dav">    1.84    2.46</time>
   <time name="total">    6.77    9.09</time>
   <energy>
    <i name="e_fr_energy">     -8.53961103 </i>
    <i name="e_wo_entrp">     -8.51260473 </i>
    <i name="e_0_energy">     -8.53060893 </i>
   </energy>
  </scstep>
  <scstep>
   <time name="dav">    2.06    2.12</time>
   <time name="total">    6.70    8.29</time>
   <energy>
    <i name="e_fr_energy">     -8.74725320 </i>
    <i name="e_wo_entrp">     -8.72318538 </i>
    <i name="e_0_energy">     -8.73923059 </i>
   </energy>
  </scstep>
  <scstep>
   <time name="dav">    2.08    2.32</time>
   <time name="total">    6.73    7.72</time>
   <energy>
    <i name="e_fr_energy">     -8.69100737 </i>
    <i name="e_wo_entrp">     -8.66371724 </i>
    <i name="e_0_energy">     -8.68191066 </i>
   </energy>
  </scstep>
  <scstep>
   <time name="dav">    2.00    2.68</time>
   <time name="total">    6.38    8.51</time>
   <energy>
    <i name="e_fr_energy">     -8.73666233 </i>
    <i name="e_wo_entrp">     -8.70883060 </i>
    <i name="e_0_energy">     -8.72738509 </i>
   </energy>
  </scstep>
  <scstep>
   <time name="dav">    2.14    2.81</time>
   <time name="total">    7.08    9.27</time>
   <energy>
    <i name="e_fr_energy">     -8.73720420 </i>
    <i name="e_wo_entrp">     -8.70903953 </i>
    <i name="e_0_energy">     -8.72781597 </i>
   </energy>
  </scstep>
  <scstep>
   <time name="dav">    1.92    2.32</time>
   <time name="total">    6.03    7.63</time>
   <energy>
    <i name="e_fr_energy">     -8.74308745 </i>
    <i name="e_wo_entrp">     -8.71488956 </i>
    <i name="e_0_energy">     -8.73368815 </i>
   </energy>
  </scstep>
  <scstep>
   <time name="dav">    1.71    2.35</time>
   <time name="total">    6.29    8.22</time>
   <energy>
    <i name="e_fr_energy">     -8.74347245 </i>
    <i name="e_wo_entrp">     -8.71526586 </i>
    <i name="e_0_energy">     -8.73407025 </i>
   </energy>
  </scstep>
  <scstep>
   <time name="dav">    2.01    3.03</time>
   <time name="total">    6.80    9.45</time>
   <energy>
    <i name="e_fr_energy">     -8.74375850 </i>
    <i name="e_wo_entrp">     -8.71554911 </i>
    <i name="e_0_energy">     -8.73435537 </i>
   </energy>
  </scstep>
  <scstep>
   <time name="dav">    2.20    2.27</time>
   <time name="total">    6.91    8.41</time>
   <energy>
    <i name="e_fr_energy">     -8.74398165 </i>
    <i name="e_wo_entrp">     -8.71577217 </i>
    <i name="e_0_energy">     -8.73457849 </i>
   </energy>
  </scstep>
  <scstep>
   <time name="dav">    1.95    2.20</time>
   <time name="total">    5.29    6.62</time>
   <energy>
    <i name="alphaZ">      0.57280012 </i>
    <i name="ewald">    126.15054829 </i>
    <i name="hartreedc">   -858.92521169 </i>
    <i name="XCdc">     54.94359819 </i>
    <i name="pawpsdc">    578.69513327 </i>
    <i name="pawaedc">   -582.13655999 </i>
    <i name="eentropy">     -0.02820938 </i>
    <i name="bandstr">   -192.01734657 </i>
    <i name="atom">    864.00122898 </i>
    <i name="e_fr_energy">     -8.74401877 </i>
    <i name="e_wo_entrp">     -8.71580940 </i>
    <i name="e_0_energy">     -8.73461565 </i>
   </energy>
  </scstep>
  <parameters_embedded>
   <separator name="dft+d2" >
    <i type="logical" name="LVDW"> F  </i>
   </separator>
  </parameters_embedded>
  <structure>
   <crystal>
    <varray name="basis" >
     <v>       9.80000000       0.00000000       0.00000000 </v>
     <v>       0.00000000       9.90000000       0.00000000 </v>
     <v>       0.00000000       0.00000000      10.00000000 </v>
    </varray>
    <i name="volume">    970.20000000 </i>
    <varray name="rec_basis" >
     <v>       0.10204082       0.00000000       0.00000000 </v>
     <v>       0.00000000       0.10101010       0.00000000 </v>
     <v>       0.00000000       0.00000000       0.10000000 </v>
    </varray>
   </crystal>
   <varray name="positions" >
    <v>       0.00000000       0.00000000       0.00000000 </v>
    <v>       0.12551020       0.00000000       0.00000000 </v>
   </varray>
  </structure>
  <varray name="forces" >
   <v>      -0.58887907       0.00000000       0.00000000 </v>
   <v>       0.58887907       0.00000000       0.00000000 </v>
  </varray>
  <varray name="stress" >
   <v>      -4.97248982       0.00000000       0.00000000 </v>
   <v>       0.00000000      -7.30192015       0.00000000 </v>
   <v>       0.00000000       0.00000000      -7.26446991 </v>
  </varray>
  <energy>
   <i name="e_fr_energy">     -8.74401877 </i>
   <i name="e_wo_entrp">     -8.73461565 </i>
   <i name="e_0_energy">     -0.02820938 </i>
  </energy>
  <time name="totalsc">  107.27  138.44</time>
 </calculation>
 <calculation>
  <scstep>
   <time name="dav">    2.40    2.96</time>
   <time name="total">    6.98    9.01</time>
   <energy>
    <i name="alphaZ">      0.57280012 </i>
    <i name="ewald">    107.71679076 </i>
    <i name="hartreedc">   -845.21491630 </i>
    <i name="XCdc">     54.70802775 </i>
    <i name="pawpsdc">    578.69114648 </i>
    <i name="pawaedc">   -582.13258748 </i>
    <i name="eentropy">     -0.02820944 </i>
    <i name="bandstr">   -186.99105582 </i>
    <i name="atom">    864.00122898 </i>
    <i name="e_fr_energy">     -8.67677494 </i>
    <i name="e_wo_entrp">     -8.64856550 </i>
    <i name="e_0_energy">     -8.66737180 </i>
   </energy>
  </scstep>
  <scstep>
   <time name="dav">    1.86    2.28</time>
   <time name="total">    6.33    7.97</time>
   <energy>
    <i name="e_fr_energy">     -8.67467188 </i>
    <i name="e_wo_entrp">     -8.64647163 </i>
    <i name="e_0_energy">     -8.66527180 </i>
   </energy>
  </scstep>
  <scstep>
   <time name="dav">    2.40    2.91</time>
   <time name="total">    7.18    9.09</time>
   <energy>
    <i name="e_fr_energy">     -8.67505352 </i>
    <i name="e_wo_entrp">     -8.64780732 </i>
    <i name="e_0_energy">     -8.66597146 </i>
   </energy>
  </scstep>
  <scstep>
   <time name="dav">    1.92    2.44</time>
   <time name="total">    6.17    7.27</time>
   <energy>
    <i name="e_fr_energy">     -8.65700916 </i>
    <i name="e_wo_entrp">     -8.62890723 </i>
    <i name="e_0_energy">     -8.64764185 </i>
   </energy>
  </scstep>
  <scstep>
   <time name="dav">    2.00    2.00</time>
   <time name="total">    6.68    7.69</time>
   <energy>
    <i name="e_fr_energy">     -8.67376327 </i>
    <i name="e_wo_entrp">     -8.64558785 </i>
    <i name="e_0_energy">     -8.66437146 </i>
   </energy>
  </scstep>
  <scstep>
   <time name="dav">    1.85    2.22</time>
   <time name="total">    6.34    8.24</time>
   <energy>
    <i name="e_fr_energy">     -8.67358724 </i>
    <i name="e_wo_entrp">     -8.64539160 </i>
    <i name="e_0_energy">     -8.66418869 </i>
   </energy>
  </scstep>
  <scstep>
   <time name="dav">    1.86    2.53</time>
   <time name="total">    6.22    8.51</time>
   <energy>
    <i name="e_fr_energy">     -8.67415548 </i>
    <i name="e_wo_entrp">     -8.64594684 </i>
    <i name="e_0_energy">     -8.66475260 </i>
   </energy>
  </scstep>
  <scstep>
   <time name="dav">    2.23    2.98</time>
   <time name="total">    6.95    9.08</time>
   <energy>
    <i name="e_fr_energy">     -8.67452612 </i>
    <i name="e_wo_entrp">     -8.64631731 </i>
    <i name="e_0_energy">     -8.66512319 </i>
   </energy>
  </scstep>
  <scstep>
   <time name="dav">    2.14    2.95</time>
   <time name="total">    5.95    7.82</time>
   <energy>
    <i name="alphaZ">      0.57280012 </i>
    <i name="ewald">    107.71679076 </i>
    <i name="hartreedc">   -842.82992701 </i>
    <i name="XCdc">     54.54891919 </i>
    <i name="pawpsdc">    561.93418405 </i>
    <i name="pawaedc">   -565.31059240 </i>
    <i name="eentropy">     -0.02820942 </i>
    <i name="bandstr">   -189.27975585 </i>
    <i name="atom">    864.00122898 </i>
    <i name="e_fr_energy">     -8.67456158 </i>
    <i name="e_wo_entrp">     -8.64635216 </i>
    <i name="e_0_energy">     -8.66515844 </i>
   </energy>
  </scstep>
  <structure>
   <crystal>
    <varray name="basis" >
     <v>       9.80000000       0.00000000       0.00000000 </v>
     <v>       0.00000000       9.90000000       0.00000000 </v>
     <v>       0.00000000       0.00000000      10.00000000 </v>
    </varray>
    <i name="volume">    970.20000000 </i>
    <varray name="rec_basis" >
     <v>       0.10204082       0.00000000       0.00000000 </v>
     <v>       0.00000000       0.10101010       0.00000000 </v>
     <v>       0.00000000       0.00000000       0.10000000 </v>
    </varray>
   </crystal>
   <varray name="positions" >
    <v>      -0.00289889       0.00000000       0.00000000 </v>
    <v>       0.12840909       0.00000000       0.00000000 </v>
   </varray>
  </structure>
  <varray name="forces" >
   <v>       2.80620395       0.00000000       0.00000000 </v>
   <v>      -2.80620395       0.00000000       0.00000000 </v>
  </varray>
  <varray name="stress" >
   <v>     -11.70452745       0.00000000       0.00000000 </v>
   <v>       0.00000000      -7.32370552       0.00000000 </v>
   <v>       0.00000000       0.00000000      -7.27249356 </v>
  </varray>
  <energy>
   <i name="e_fr_energy">     -8.67456158 </i>
   <i name="e_wo_entrp">     -8.66515844 </i>
   <i name="e_0_energy">     -0.02820942 </i>
  </energy>
  <time name="totalsc">   64.99   83.38</time>
 </calculation>
 <calculation>
  <scstep>
   <time name="dav">    2.01    3.14</time>
   <time name="total">    6.91   10.13</time>
   <energy>
    <i name="alphaZ">      0.57280012 </i>
    <i name="ewald">    122.83032568 </i>
    <i name="hartreedc">   -854.13081111 </i>
    <i name="XCdc">     54.74357214 </i>
    <i name="pawpsdc">    561.94620535 </i>
    <i name="pawaedc">   -565.32263184 </i>
    <i name="eentropy">     -0.02820934 </i>
    <i name="bandstr">   -193.35697063 </i>
    <i name="atom">    864.00122898 </i>
    <i name="e_fr_energy">     -8.74449064 </i>
    <i name="e_wo_entrp">     -8.71628131 </i>
    <i name="e_0_energy">     -8.73508753 </i>
   </energy>
  </scstep>
  <scstep>
   <time name="dav">    2.46    2.85</time>
   <time name="total">    7.27    8.72</time>
   <energy>
    <i name="e_fr_energy">     -8.74670086 </i>
    <i name="e_wo_entrp">     -8.71849388 </i>
    <i name="e_0_energy">     -8.73729853 </i>
   </energy>
  </scstep>
  <scstep>
   <time name="dav">    2.51    2.76</time>
   <time name="total">    6.94    8.51</time>
   <energy>
    <i name="e_fr_energy">     -8.74611075 </i>
    <i name="e_wo_entrp">     -8.71815737 </i>
    <i name="e_0_energy">     -8.73679296 </i>
   </energy>
  </scstep>
  <scstep>
   <time name="dav">    2.03    2.65</time>
   <time name="total">    7.13    9.30</time>
   <energy>
    <i name="e_fr_energy">     -8.74082851 </i>
    <i name="e_wo_entrp">     -8.71298215 </i>
    <i name="e_0_energy">     -8.73154639 </i>
   </energy>
  </scstep>
  <scstep>
   <time name="dav">    1.83    2.35</time>
   <time name="total">    6.69    8.52</time>
   <energy>
    <i name="e_fr_energy">     -8.73936812 </i>
    <i name="e_wo_entrp">     -8.71119014 </i>
    <i name="e_0_energy">     -8.72997546 </i>
   </energy>
  </scstep>
  <scstep>
   <time name="dav">    1.93    2.44</time>
   <time name="total">    7.00    8.83</time>
   <energy>
    <i name="e_fr_energy">     -8.74611878 </i>
    <i name="e_wo_entrp">     -8.71796512 </i>
    <i name="e_0_energy">     -8.73673422 </i>
   </energy>
  </scstep>
  <scstep>
   <time name="dav">    2.07    2.70</time>
   <time name="total">    6.59    9.02</time>
   <energy>
    <i name="e_fr_energy">     -8.74452991 </i>
    <i name="e_wo_entrp">     -8.71632098 </i>
    <i name="e_0_energy">     -8.73512694 </i>
   </energy>
  </scstep>
  <scstep>
   <time name="dav">    1.96    2.34</time>
   <time name="total">    6.26    8.22</time>
   <energy>
    <i name="e_fr_energy">     -8.74623322 </i>
    <i name="e_wo_entrp">     -8.71802457 </i>
    <i name="e_0_energy">     -8.73683033 </i>
   </energy>
  </scstep>
  <scstep>
   <time name="dav">    2.27    2.85</time>
   <time name="total">    5.97    7.49</time>
   <energy>
    <i name="alphaZ">      0.57280012 </i>
    <i name="ewald">    122.83032568 </i>
    <i name="hartreedc">   -856.05206371 </i>
    <i name="XCdc">     54.87173439 </i>
    <i name="pawpsdc">    575.51408995 </i>
    <i name="pawaedc">   -578.94269461 </i>
    <i name="eentropy">     -0.02820778 </i>
    <i name="bandstr">   -191.51344333 </i>
    <i name="atom">    864.00122898 </i>
    <i name="e_fr_energy">     -8.74623031 </i>
    <i name="e_wo_entrp">     -8.71802252 </i>
    <i name="e_0_energy">     -8.73682771 </i>
   </energy>
  </scstep>
  <structure>
   <crystal>
    <varray name="basis" >
     <v>       9.80000000       0.00000000       0.00000000 </v>
     <v>       0.00000000       9.90000000       0.00000000 </v>
     <v>       0.00000000       0.00000000      10.00000000 </v>
    </varray>
    <i name="volume">    970.20000000 </i>
    <varray name="rec_basis" >
     <v>       0.10204082       0.00000000       0.00000000 </v>
     <v>       0.00000000       0.10101010       0.00000000 </v>
     <v>       0.00000000       0.00000000       0.10000000 </v>
    </varray>
   </crystal>
   <varray name="positions" >
    <v>      -0.00050281       0.00000000       0.00000000 </v>
    <v>       0.12601302       0.00000000       0.00000000 </v>
   </varray>
  </structure>
  <varray name="forces" >
   <v>       0.10191075       0.00000000       0.00000000 </v>
   <v>      -0.10191075       0.00000000       0.00000000 </v>
  </varray>
  <varray name="stress" >
   <v>      -6.30915725       0.00000000       0.00000000 </v>
   <v>       0.00000000      -7.23084167       0.00000000 </v>
   <v>       0.00000000       0.00000000      -7.33471460 </v>
  </varray>
  <energy>
   <i name="e_fr_energy">     -8.74623031 </i>
   <i name="e_wo_entrp">     -8.73682771 </i>
   <i name="e_0_energy">     -0.02820778 </i>
  </energy>
  <time name="totalsc">   67.72   87.53</time>
 </calculation>
 <calculation>
  <scstep>
   <time name="dav">    2.01    2.32</time>
   <time name="total">    6.95    8.10</time>
   <energy>
    <i name="alphaZ">      0.57280012 </i>
    <i name="ewald">    123.42262555 </i>
    <i name="hartreedc">   -856.48630921 </i>
    <i name="XCdc">     54.87937198 </i>
    <i name="pawpsdc">    575.51057930 </i>
    <i name="pawaedc">   -578.93918334 </i>
    <i name="eentropy">     -0.02820943 </i>
    <i name="bandstr">   -191.67928206 </i>
    <i name="atom">    864.00122898 </i>
    <i name="e_fr_energy">     -8.74637809 </i>
    <i name="e_wo_entrp">     -8.71816866 </i>
    <i name="e_0_energy">     -8.73697495 </i>
   </energy>
  </scstep>
  <scstep>
   <time name="dav">    1.96    2.23</time>
   <time name="total">    5.98    7.33</time>
   <energy>
    <i name="alphaZ">      0.57280012 </i>
    <i name="ewald">    123.42262555 </i>
    <i name="hartreedc">   -856.53255343 </i>
    <i name="XCdc">     54.88235062 </i>
    <i name="pawpsdc">    575.77260510 </i>
    <i name="pawaedc">   -579.20221399 </i>
    <i name="eentropy">     -0.02820948 </i>
    <i name="bandstr">   -191.63508169 </i>
    <i name="atom">    864.00122898 </i>
    <i name="e_fr_energy">     -8.74644819 </i>
    <i name="e_wo_entrp">     -8.71823872 </i>
    <i name="e_0_energy">     -8.73704503 </i>
   </energy>
  </scstep>
  <structure>
   <crystal>
    <varray name="basis" >
     <v>       9.80000000       0.00000000       0.00000000 </v>
     <v>       0.00000000       9.90000000       0.00000000 </v>
     <v>       0.00000000       0.00000000      10.00000000 </v>
    </varray>
    <i name="volume">    970.20000000 </i>
    <varray name="rec_basis" >
     <v>       0.10204082       0.00000000       0.00000000 </v>
     <v>       0.00000000       0.10101010       0.00000000 </v>
     <v>       0.00000000       0.00000000       0.10000000 </v>
    </varray>
   </crystal>
   <varray name="positions" >
    <v>      -0.00041252       0.00000000       0.00000000 </v>
    <v>       0.12592272       0.00000000       0.00000000 </v>
   </varray>
  </structure>
  <varray name="forces" >
   <v>      -0.01433894       0.00000000       0.00000000 </v>
   <v>       0.01433894       0.00000000       0.00000000 </v>
  </varray>
  <varray name="stress" >
   <v>      -6.04936302       0.00000000       0.00000000 </v>
   <v>       0.00000000      -7.26957424       0.00000000 </v>
   <v>       0.00000000       0.00000000      -7.17792488 </v>
  </varray>
  <energy>
   <i name="e_fr_energy">     -8.74644819 </i>
   <i name="e_wo_entrp">     -8.73704503 </i>
   <i name="e_0_energy">     -0.02820948 </i>
  </energy>
  <time name="totalsc">   19.90   24.24</time>
  <eigenvalues>
   <array>
    <dimension dim="1">band</dimension>
    <dimension dim="2">kpoint</dimension>
    <dimension dim="3">spin</dimension>
    <field>eigene</field>
    <field>occ</field>
    <set>
     <set comment="spin 1">
      <set comment="kpoint 1">
       <r>  -31.9857    1.0000 </r>
       <r>  -19.9474    1.0000 </r>
       <r>  -13.0278    1.0000 </r>
       <r>  -12.4414    1.0000 </r>
       <r>  -12.4411    1.0000 </r>
       <r>   -5.9741    0.5001 </r>
       <r>   -5.9741    0.4999 </r>
       <r>   -0.3103    0.0000 </r>
       <r>    0.9325    0.0000 </r>
       <r>    1.1314    0.0000 </r>
      </set>
     </set>
    </set>
   </array>
  </eigenvalues>
  <separator name="orbital magnetization" >
   <v name="MAGDIPOLOUT">      0.00000000      0.00000000      0.00000000</v>
  </separator>
 </calculation>
 <structure name="finalpos" >
  <crystal>
   <varray name="basis" >
    <v>       9.80000000       0.00000000       0.00000000 </v>
    <v>       0.00000000       9.90000000       0.00000000 </v>
    <v>       0.00000000       0.00000000      10.00000000 </v>
   </varray>
   <i name="volume">    970.20000000 </i>
   <varray name="rec_basis" >
    <v>       0.10204082       0.00000000       0.00000000 </v>
    <v>       0.00000000       0.10101010       0.00000000 </v>
    <v>       0.00000000       0.00000000       0.10000000 </v>
   </varray>
  </crystal>
  <varray name="positions" >
   <v>      -0.00041252       0.00000000       0.00000000 </v>
   <v>       0.12592272       0.00000000       0.00000000 </v>
  </varray>
 </structure>
</modeling>
