   1   1   1   0
  0.1919141E+02  0.3005204E-09  0.3005204E-09  0.3005204E-09  0.5000000E-15
  1.000000000000000E-004
  CAR 
 unknown system                          
     23.42434807     -3.38557441  301      5.50292692      1.00000000
     -3.386  0.0000E+00  0.0000E+00  0.0000E+00  0.0000E+00
     -3.296  0.0000E+00  0.0000E+00  0.0000E+00  0.0000E+00
     -3.207  0.0000E+00  0.0000E+00  0.0000E+00  0.0000E+00
     -3.117  0.0000E+00  0.0000E+00  0.0000E+00  0.0000E+00
     -3.028  0.0000E+00  0.0000E+00  0.0000E+00  0.0000E+00
     -2.939  0.0000E+00  0.0000E+00  0.0000E+00  0.0000E+00
     -2.849  0.0000E+00  0.0000E+00  0.0000E+00  0.0000E+00
     -2.760  0.0000E+00  0.0000E+00  0.0000E+00  0.0000E+00
     -2.671  0.0000E+00  0.0000E+00  0.0000E+00  0.0000E+00
     -2.581 -0.3643E-30 -0.3902E-33 -0.3255E-31 -0.3487E-34
     -2.492 -0.8575E-19 -0.3966E-21 -0.7664E-20 -0.3545E-22
     -2.403 -0.2997E-10 -0.6081E-12 -0.2678E-11 -0.5434E-13
     -2.313 -0.1465E-04 -0.1356E-05 -0.1309E-05 -0.1212E-06
     -2.224 -0.3522E-02 -0.2662E-02 -0.3161E-03 -0.2380E-03
     -2.134  0.1011E+00  0.7520E-01  0.8715E-02  0.6482E-02
     -2.045  0.6254E-02  0.3182E-01  0.9273E-02  0.9326E-02
     -1.956 -0.1581E-03 -0.7467E-03  0.9259E-02  0.9259E-02
     -1.866 -0.2071E-08 -0.4829E-07  0.9259E-02  0.9259E-02
     -1.777 -0.5255E-14 -0.3593E-14  0.9259E-02  0.9259E-02
     -1.688 -0.8990E-07 -0.3709E-08  0.9259E-02  0.9259E-02
     -1.598 -0.1800E-02 -0.3602E-03  0.9098E-02  0.9227E-02
     -1.509  0.8013E-01  0.1150E-01  0.1626E-01  0.1025E-01
     -1.420  0.2414E+00  0.3094E+00  0.3783E-01  0.3791E-01
     -1.330 -0.8882E-02 -0.9652E-02  0.3704E-01  0.3704E-01
     -1.241 -0.6078E-05 -0.6145E-04  0.3704E-01  0.3704E-01
     -1.151 -0.3736E-11 -0.1591E-09  0.3704E-01  0.3704E-01
     -1.062 -0.1210E-05 -0.6813E-07  0.3704E-01  0.3704E-01
     -0.973 -0.5371E-02 -0.1580E-02  0.3656E-01  0.3690E-01
     -0.883  0.1760E+00  0.7181E-01  0.5228E-01  0.4331E-01
     -0.794  0.1442E+00  0.2500E+00  0.6517E-01  0.6565E-01
     -0.705 -0.3964E-02 -0.9365E-02  0.6481E-01  0.6482E-01
     -0.615 -0.5511E-06 -0.7621E-05  0.6481E-01  0.6481E-01
     -0.526 -0.1654E-03 -0.2386E-04  0.6480E-01  0.6481E-01
     -0.436  0.6647E-02 -0.3012E-02  0.6539E-01  0.6454E-01
     -0.347  0.9071E-01  0.9516E-01  0.7350E-01  0.7305E-01
     -0.258  0.3045E+00  0.2418E+00  0.1007E+00  0.9466E-01
     -0.168  0.1315E-01  0.8238E-01  0.1019E+00  0.1020E+00
     -0.079 -0.3855E-03 -0.1864E-02  0.1019E+00  0.1019E+00
      0.010 -0.8288E-07 -0.9999E-07  0.1019E+00  0.1019E+00
      0.100 -0.2426E-02 -0.4414E-03  0.1016E+00  0.1018E+00
      0.189  0.1133E+00  0.3671E-02  0.1118E+00  0.1021E+00
      0.278  0.5312E+00  0.6318E+00  0.1592E+00  0.1586E+00
      0.368 -0.2293E-01 -0.1370E-01  0.1572E+00  0.1574E+00
      0.457  0.1054E+00  0.2319E-01  0.1666E+00  0.1594E+00
      0.547  0.2154E+00  0.2989E+00  0.1858E+00  0.1862E+00
      0.636 -0.7414E-02 -0.1085E-01  0.1852E+00  0.1852E+00
      0.725 -0.3160E-05 -0.3624E-04  0.1852E+00  0.1852E+00
      0.815 -0.3913E-04 -0.3083E-05  0.1852E+00  0.1852E+00
      0.904 -0.1805E-01 -0.9697E-02  0.1836E+00  0.1843E+00
      0.993  0.5230E+00  0.3106E+00  0.2303E+00  0.2121E+00
      1.083  0.2919E+00  0.4442E+00  0.2564E+00  0.2518E+00
      1.172  0.2488E+00  0.2991E+00  0.2786E+00  0.2785E+00
      1.261 -0.1028E-01 -0.1889E-01  0.2777E+00  0.2768E+00
      1.351  0.3144E+00  0.2808E+00  0.3058E+00  0.3019E+00
      1.440  0.8487E-01  0.3461E-01  0.3134E+00  0.3050E+00
      1.530  0.1099E+01  0.9756E+00  0.4116E+00  0.3922E+00
      1.619  0.3787E+00  0.5702E+00  0.4454E+00  0.4431E+00
      1.708  0.6207E+00  0.5561E+00  0.5009E+00  0.4928E+00
      1.798 -0.9586E-02  0.8187E-01  0.5000E+00  0.5002E+00
      1.887 -0.5809E-02 -0.3253E-02  0.4995E+00  0.4999E+00
      1.976  0.1600E+00  0.5943E-01  0.5138E+00  0.5052E+00
      2.066  0.6516E+00  0.5447E+00  0.5720E+00  0.5539E+00
      2.155  0.9520E+00  0.9632E+00  0.6571E+00  0.6399E+00
      2.245  0.4804E+00  0.6305E+00  0.7000E+00  0.6963E+00
      2.334  0.2509E+00  0.2920E+00  0.7225E+00  0.7224E+00
      2.423  0.1880E+00  0.1034E+00  0.7393E+00  0.7316E+00
      2.513  0.8145E+00  0.6353E+00  0.8121E+00  0.7884E+00
      2.602  0.2455E+00  0.5201E+00  0.8340E+00  0.8349E+00
      2.691 -0.1506E-01 -0.1963E-01  0.8326E+00  0.8331E+00
      2.781  0.1964E+00  0.9701E-01  0.8502E+00  0.8418E+00
      2.870  0.7770E+00  0.5926E+00  0.9196E+00  0.8947E+00
      2.959  0.5442E+00  0.6085E+00  0.9683E+00  0.9491E+00
      3.049  0.1026E+01  0.1190E+01  0.1060E+01  0.1055E+01
      3.138  0.5891E+00  0.5775E+00  0.1113E+01  0.1107E+01
      3.228 -0.2343E-01  0.2471E-01  0.1110E+01  0.1109E+01
      3.317  0.7040E+00  0.5619E+00  0.1173E+01  0.1159E+01
      3.406  0.2387E+00  0.4000E+00  0.1195E+01  0.1195E+01
      3.496  0.1762E+00  0.7070E-01  0.1210E+01  0.1202E+01
      3.585  0.5465E+00  0.4591E+00  0.1259E+01  0.1243E+01
      3.674  0.5186E+00  0.6672E+00  0.1306E+01  0.1302E+01
      3.764  0.9280E-01 -0.1796E-01  0.1314E+01  0.1301E+01
      3.853  0.1825E+01  0.1833E+01  0.1477E+01  0.1464E+01
      3.942  0.1073E+00  0.1268E+00  0.1487E+01  0.1476E+01
      4.032  0.5367E+00  0.6111E+00  0.1535E+01  0.1530E+01
      4.121  0.2437E+00  0.2909E+00  0.1556E+01  0.1556E+01
      4.211  0.2263E-01 -0.1413E-01  0.1558E+01  0.1555E+01
      4.300  0.6429E+00  0.4630E+00  0.1616E+01  0.1596E+01
      4.389  0.5692E+00  0.7462E+00  0.1667E+01  0.1663E+01
      4.479  0.7845E+00  0.6065E+00  0.1737E+01  0.1717E+01
      4.568  0.1082E+01  0.1161E+01  0.1834E+01  0.1821E+01
      4.657 -0.1206E-01  0.1157E+00  0.1832E+01  0.1831E+01
      4.747  0.1251E+01  0.8887E+00  0.1944E+01  0.1911E+01
      4.836  0.3093E+00  0.6999E+00  0.1972E+01  0.1973E+01
      4.926  0.3373E+00  0.2344E+00  0.2002E+01  0.1994E+01
      5.015  0.9660E+00  0.6973E+00  0.2088E+01  0.2057E+01
      5.104  0.9691E+00  0.1200E+01  0.2175E+01  0.2164E+01
      5.194 -0.5811E-02  0.1183E+00  0.2174E+01  0.2174E+01
      5.283  0.9124E+00  0.5650E+00  0.2256E+01  0.2225E+01
      5.372  0.1550E+01  0.1720E+01  0.2395E+01  0.2379E+01
      5.462  0.7449E+00  0.6741E+00  0.2461E+01  0.2439E+01
      5.551  0.8741E+00  0.1077E+01  0.2539E+01  0.2535E+01
      5.640  0.4520E-03  0.1469E-01  0.2539E+01  0.2536E+01
      5.730  0.3354E+00  0.3303E+00  0.2569E+01  0.2566E+01
      5.819  0.3173E+00  0.1641E+00  0.2598E+01  0.2581E+01
      5.909  0.8165E+00  0.9018E+00  0.2671E+01  0.2661E+01
      5.998  0.4200E+00  0.3292E+00  0.2708E+01  0.2691E+01
      6.087  0.1110E+01  0.1140E+01  0.2807E+01  0.2792E+01
      6.177  0.2845E+00  0.3961E+00  0.2833E+01  0.2828E+01
      6.266  0.3568E+00  0.3197E+00  0.2865E+01  0.2856E+01
      6.355  0.1449E+00  0.1463E+00  0.2878E+01  0.2870E+01
      6.445  0.1288E+01  0.1093E+01  0.2993E+01  0.2967E+01
      6.534  0.1210E+01  0.1122E+01  0.3101E+01  0.3068E+01
      6.623  0.9724E+00  0.1240E+01  0.3188E+01  0.3178E+01
      6.713  0.3882E+00  0.4421E+00  0.3222E+01  0.3218E+01
      6.802 -0.1915E-02  0.4948E-01  0.3222E+01  0.3222E+01
      6.892 -0.7600E-02 -0.3168E-02  0.3222E+01  0.3222E+01
      6.981  0.2743E+00  0.9179E-01  0.3246E+01  0.3230E+01
      7.070  0.3906E+00  0.5327E+00  0.3281E+01  0.3278E+01
      7.160  0.5838E+00  0.5838E+00  0.3333E+01  0.3330E+01
      7.249  0.6161E+00  0.3485E+00  0.3388E+01  0.3361E+01
      7.338  0.3719E+00  0.6218E+00  0.3421E+01  0.3417E+01
      7.428  0.8860E+00  0.8503E+00  0.3501E+01  0.3493E+01
      7.517 -0.8737E-02  0.8325E-01  0.3500E+01  0.3500E+01
      7.606  0.9308E-01  0.1523E-01  0.3508E+01  0.3502E+01
      7.696  0.2150E+00  0.2987E+00  0.3527E+01  0.3528E+01
      7.785  0.3506E+00  0.1456E+00  0.3559E+01  0.3541E+01
      7.875  0.1123E+01  0.1143E+01  0.3659E+01  0.3643E+01
      7.964  0.8935E+00  0.8260E+00  0.3739E+01  0.3717E+01
      8.053  0.8215E+00  0.9621E+00  0.3812E+01  0.3803E+01
      8.143  0.1189E+01  0.1171E+01  0.3919E+01  0.3908E+01
      8.232 -0.3499E-01  0.8489E-01  0.3915E+01  0.3915E+01
      8.321  0.6007E+00  0.4685E+00  0.3969E+01  0.3957E+01
      8.411  0.3589E-01  0.1718E+00  0.3972E+01  0.3973E+01
      8.500 -0.9890E-03 -0.4277E-02  0.3972E+01  0.3972E+01
      8.590 -0.6150E-03 -0.1139E-03  0.3972E+01  0.3972E+01
      8.679  0.1967E-01 -0.8133E-02  0.3974E+01  0.3971E+01
      8.768  0.5613E+00  0.4080E+00  0.4024E+01  0.4008E+01
      8.858  0.5399E+00  0.6852E+00  0.4072E+01  0.4069E+01
      8.947  0.2811E+00  0.2192E+00  0.4097E+01  0.4089E+01
      9.036  0.2563E+00  0.3335E+00  0.4120E+01  0.4119E+01
      9.126  0.1454E+00 -0.9381E-02  0.4133E+01  0.4118E+01
      9.215  0.1752E+01  0.1796E+01  0.4290E+01  0.4278E+01
      9.304  0.2095E+00  0.1899E+00  0.4309E+01  0.4295E+01
      9.394  0.7146E+00  0.8428E+00  0.4373E+01  0.4370E+01
      9.483 -0.3111E-01 -0.1141E-01  0.4370E+01  0.4369E+01
      9.573  0.3306E+00  0.2574E+00  0.4399E+01  0.4392E+01
      9.662  0.5828E+00  0.5724E+00  0.4451E+01  0.4444E+01
      9.751  0.3077E+00  0.3240E+00  0.4479E+01  0.4473E+01
      9.841  0.2957E-01  0.1022E+00  0.4482E+01  0.4482E+01
      9.930 -0.6713E-03 -0.2540E-02  0.4481E+01  0.4481E+01
     10.019 -0.6670E-03 -0.1255E-03  0.4481E+01  0.4481E+01
     10.109  0.2724E-01 -0.5806E-02  0.4484E+01  0.4481E+01
     10.198  0.4189E+00  0.3317E+00  0.4521E+01  0.4511E+01
     10.287  0.4799E+00  0.6127E+00  0.4564E+01  0.4565E+01
     10.377  0.7491E+00  0.3784E+00  0.4631E+01  0.4599E+01
     10.466  0.1377E+01  0.1468E+01  0.4754E+01  0.4730E+01
     10.556  0.7203E+00  0.7400E+00  0.4819E+01  0.4796E+01
     10.645  0.1151E+01  0.1305E+01  0.4921E+01  0.4913E+01
     10.734  0.3849E-01  0.1379E+00  0.4925E+01  0.4925E+01
     10.824  0.6033E+00  0.3795E+00  0.4979E+01  0.4959E+01
     10.913  0.2333E+00  0.4662E+00  0.5000E+01  0.5001E+01
     11.002  0.3156E+00  0.1613E+00  0.5028E+01  0.5015E+01
     11.092  0.4048E+00  0.4817E+00  0.5064E+01  0.5058E+01
     11.181  0.3482E+00  0.3326E+00  0.5095E+01  0.5088E+01
     11.271  0.4879E+00  0.4788E+00  0.5139E+01  0.5131E+01
     11.360  0.6619E+00  0.6279E+00  0.5198E+01  0.5187E+01
     11.449  0.1578E+01  0.1478E+01  0.5339E+01  0.5319E+01
     11.539  0.5825E+00  0.7735E+00  0.5391E+01  0.5388E+01
     11.628 -0.2974E-01 -0.2997E-02  0.5388E+01  0.5388E+01
     11.717  0.3144E+00  0.2665E+00  0.5416E+01  0.5412E+01
     11.807  0.4439E-02  0.5522E-01  0.5417E+01  0.5417E+01
     11.896 -0.8414E-02 -0.3769E-02  0.5416E+01  0.5416E+01
     11.985  0.2939E+00  0.1204E+00  0.5442E+01  0.5427E+01
     12.075  0.3452E+00  0.5236E+00  0.5473E+01  0.5474E+01
     12.164  0.4207E-01 -0.1750E-01  0.5477E+01  0.5472E+01
     12.254  0.2498E+00  0.3069E+00  0.5499E+01  0.5500E+01
     12.343  0.5446E+00  0.2818E+00  0.5548E+01  0.5525E+01
     12.432  0.1042E+01  0.1193E+01  0.5641E+01  0.5632E+01
     12.522  0.3621E+00  0.3928E+00  0.5673E+01  0.5667E+01
     12.611  0.2469E+00  0.3191E+00  0.5695E+01  0.5695E+01
     12.700 -0.2031E-01 -0.1178E-01  0.5694E+01  0.5694E+01
     12.790  0.3459E+00  0.1378E+00  0.5724E+01  0.5706E+01
     12.879  0.3164E+00  0.4968E+00  0.5753E+01  0.5751E+01
     12.968  0.2844E+00  0.2908E+00  0.5778E+01  0.5777E+01
     13.058  0.2510E+00  0.9798E-01  0.5801E+01  0.5786E+01
     13.147  0.6075E+00  0.6308E+00  0.5855E+01  0.5842E+01
     13.237  0.3946E+00  0.5464E+00  0.5890E+01  0.5891E+01
     13.326 -0.1350E-01 -0.2183E-01  0.5889E+01  0.5889E+01
     13.415 -0.5681E-05 -0.4148E-04  0.5889E+01  0.5889E+01
     13.505 -0.7619E-02 -0.2196E-02  0.5888E+01  0.5889E+01
     13.594  0.2807E+00  0.1031E+00  0.5913E+01  0.5898E+01
     13.683  0.3597E+00  0.5417E+00  0.5945E+01  0.5946E+01
     13.773 -0.1112E-01 -0.2087E-01  0.5944E+01  0.5944E+01
     13.862 -0.2659E-05 -0.2743E-04  0.5944E+01  0.5944E+01
     13.952 -0.6290E-12 -0.2589E-10  0.5944E+01  0.5944E+01
     14.041 -0.2753E-10 -0.5034E-12  0.5944E+01  0.5944E+01
     14.130 -0.2850E-04 -0.2304E-05  0.5944E+01  0.5944E+01
     14.220 -0.2241E-01 -0.1079E-01  0.5942E+01  0.5943E+01
     14.309  0.6093E+00  0.3365E+00  0.5997E+01  0.5974E+01
     14.398  0.6806E+00  0.9254E+00  0.6058E+01  0.6056E+01
     14.488 -0.2413E-01 -0.7366E-02  0.6056E+01  0.6056E+01
     14.577 -0.1328E-01 -0.4567E-02  0.6054E+01  0.6055E+01
     14.666  0.4013E+00  0.1803E+00  0.6090E+01  0.6071E+01
     14.756  0.2295E+00  0.4576E+00  0.6111E+01  0.6112E+01
     14.845  0.2576E+00  0.1294E+00  0.6134E+01  0.6124E+01
     14.935  0.4004E+00  0.4575E+00  0.6170E+01  0.6165E+01
     15.024  0.5390E+00  0.4146E+00  0.6218E+01  0.6202E+01
     15.113  0.4011E+00  0.5561E+00  0.6254E+01  0.6251E+01
     15.203  0.2820E+00  0.2942E+00  0.6279E+01  0.6278E+01
     15.292 -0.1098E-01  0.1297E-02  0.6278E+01  0.6278E+01
     15.381 -0.3019E-04 -0.2138E-03  0.6278E+01  0.6278E+01
     15.471 -0.3994E-05 -0.2615E-06  0.6278E+01  0.6278E+01
     15.560 -0.1665E-01 -0.5250E-02  0.6276E+01  0.6277E+01
     15.649  0.5390E+00  0.2341E+00  0.6324E+01  0.6298E+01
     15.739  0.4175E+00  0.7286E+00  0.6362E+01  0.6363E+01
     15.828  0.9904E-01  0.1553E-01  0.6371E+01  0.6365E+01
     15.918  0.6470E+00  0.6345E+00  0.6428E+01  0.6421E+01
     16.007  0.6096E+00  0.6346E+00  0.6483E+01  0.6478E+01
     16.096 -0.1579E-01  0.3836E-01  0.6481E+01  0.6482E+01
     16.186 -0.1381E-01 -0.5505E-02  0.6480E+01  0.6481E+01
     16.275  0.4089E+00  0.1925E+00  0.6517E+01  0.6498E+01
     16.364  0.2322E+00  0.4495E+00  0.6538E+01  0.6538E+01
     16.454 -0.1636E-01 -0.2450E-01  0.6536E+01  0.6536E+01
     16.543  0.3033E+00  0.2368E+00  0.6563E+01  0.6557E+01
     16.633  0.1243E-01  0.7363E-01  0.6564E+01  0.6564E+01
     16.722  0.3178E+00  0.2697E+00  0.6593E+01  0.6588E+01
     16.811  0.3157E+00  0.3380E+00  0.6621E+01  0.6618E+01
     16.901  0.1080E-01  0.2643E-02  0.6622E+01  0.6619E+01
     16.990  0.6230E+00  0.6091E+00  0.6678E+01  0.6673E+01
     17.079 -0.1815E-01  0.3372E-01  0.6676E+01  0.6676E+01
     17.169 -0.1691E-03 -0.8892E-03  0.6676E+01  0.6676E+01
     17.258 -0.1340E-01 -0.7069E-02  0.6675E+01  0.6675E+01
     17.347  0.4045E+00  0.2054E+00  0.6711E+01  0.6694E+01
     17.437  0.5592E+00  0.7500E+00  0.6761E+01  0.6761E+01
     17.526  0.9373E-01  0.3297E-01  0.6769E+01  0.6764E+01
     17.616  0.5999E+00  0.4595E+00  0.6823E+01  0.6805E+01
     17.705  0.2482E+00  0.4316E+00  0.6845E+01  0.6843E+01
     17.794  0.2945E+00  0.2971E+00  0.6871E+01  0.6870E+01
     17.884 -0.1174E-01  0.6384E-02  0.6870E+01  0.6870E+01
     17.973  0.3850E-01  0.1475E-01  0.6874E+01  0.6872E+01
     18.062  0.5749E-01  0.8595E-01  0.6879E+01  0.6879E+01
     18.152  0.2695E+00  0.1834E+00  0.6903E+01  0.6896E+01
     18.241  0.4086E+00  0.3967E+00  0.6939E+01  0.6931E+01
     18.330  0.6989E+00  0.7466E+00  0.7002E+01  0.6998E+01
     18.420 -0.2744E-01  0.2183E-01  0.6999E+01  0.7000E+01
     18.509  0.1892E+00  0.8846E-01  0.7016E+01  0.7008E+01
     18.599  0.2344E+00  0.3180E+00  0.7037E+01  0.7036E+01
     18.688 -0.2234E-02 -0.1220E-01  0.7037E+01  0.7035E+01
     18.777  0.6328E+00  0.5945E+00  0.7094E+01  0.7088E+01
     18.867 -0.2419E-01  0.4319E-01  0.7092E+01  0.7092E+01
     18.956  0.1556E+00  0.3277E-01  0.7105E+01  0.7095E+01
     19.045  0.8038E+01  0.6794E+01  0.7824E+01  0.7702E+01
     19.135  0.4536E+01  0.5753E+01  0.8229E+01  0.8216E+01
     19.224  0.5858E-02  0.1634E+00  0.8230E+01  0.8231E+01
     19.313  0.7110E+00  0.4696E+00  0.8293E+01  0.8273E+01
     19.403  0.2310E+00  0.4745E+00  0.8314E+01  0.8315E+01
     19.492  0.5101E+00  0.3305E+00  0.8359E+01  0.8345E+01
     19.582  0.2807E+00  0.3366E+00  0.8384E+01  0.8375E+01
     19.671  0.7312E+00  0.7494E+00  0.8450E+01  0.8442E+01
     19.760  0.3685E-01  0.1272E+00  0.8453E+01  0.8453E+01
     19.850  0.3111E+00  0.2478E+00  0.8481E+01  0.8475E+01
     19.939  0.7461E-02  0.6987E-01  0.8482E+01  0.8482E+01
     20.028 -0.4394E-02 -0.2844E-02  0.8481E+01  0.8481E+01
     20.118  0.1473E+00  0.6102E-01  0.8494E+01  0.8487E+01
     20.207  0.1723E+00  0.2610E+00  0.8510E+01  0.8510E+01
     20.297  0.1535E-01 -0.1712E-01  0.8511E+01  0.8509E+01
     20.386  0.2878E+00  0.2931E+00  0.8537E+01  0.8535E+01
     20.475  0.6934E+00  0.5894E+00  0.8599E+01  0.8587E+01
     20.565  0.2517E+00  0.3796E+00  0.8621E+01  0.8621E+01
     20.654 -0.1103E-01  0.1322E-01  0.8620E+01  0.8623E+01
     20.743  0.3148E+00  0.5631E+00  0.8648E+01  0.8673E+01
     20.833  0.6250E+00  0.5953E+00  0.8704E+01  0.8726E+01
     20.922  0.1647E+00  0.8284E-01  0.8719E+01  0.8734E+01
     21.011  0.5273E+00  0.3032E+00  0.8766E+01  0.8761E+01
     21.101  0.2446E+00  0.3037E+00  0.8788E+01  0.8788E+01
     21.190 -0.2048E-01 -0.1613E-01  0.8786E+01  0.8786E+01
     21.280  0.3040E+00  0.2318E+00  0.8813E+01  0.8807E+01
     21.369  0.1766E-01  0.8929E-01  0.8815E+01  0.8815E+01
     21.458 -0.2030E-01 -0.1455E-01  0.8813E+01  0.8814E+01
     21.548  0.6783E+00  0.4017E+00  0.8874E+01  0.8850E+01
     21.637  0.4923E+00  0.7389E+00  0.8918E+01  0.8916E+01
     21.726 -0.1086E-01  0.1216E-01  0.8917E+01  0.8917E+01
     21.816 -0.1048E-03 -0.6109E-03  0.8917E+01  0.8917E+01
     21.905 -0.4015E-09 -0.9933E-08  0.8917E+01  0.8917E+01
     21.994 -0.4369E-05 -0.3066E-06  0.8917E+01  0.8917E+01
     22.084 -0.1221E-01 -0.4008E-02  0.8916E+01  0.8916E+01
     22.173  0.4074E+00  0.1579E+00  0.8952E+01  0.8930E+01
     22.263  0.5561E+00  0.8064E+00  0.9002E+01  0.9002E+01
     22.352 -0.1876E-01 -0.2772E-01  0.9000E+01  0.9000E+01
     22.441 -0.9356E-05 -0.9007E-04  0.9000E+01  0.9000E+01
     22.531 -0.4459E-11 -0.1805E-09  0.9000E+01  0.9000E+01
     22.620  0.0000E+00  0.0000E+00  0.9000E+01  0.9000E+01
     22.709  0.0000E+00  0.0000E+00  0.9000E+01  0.9000E+01
     22.799  0.0000E+00  0.0000E+00  0.9000E+01  0.9000E+01
     22.888  0.0000E+00  0.0000E+00  0.9000E+01  0.9000E+01
     22.978  0.0000E+00  0.0000E+00  0.9000E+01  0.9000E+01
     23.067  0.0000E+00  0.0000E+00  0.9000E+01  0.9000E+01
     23.156  0.0000E+00  0.0000E+00  0.9000E+01  0.9000E+01
     23.246  0.0000E+00  0.0000E+00  0.9000E+01  0.9000E+01
     23.335  0.0000E+00  0.0000E+00  0.9000E+01  0.9000E+01
     23.424  0.0000E+00  0.0000E+00  0.9000E+01  0.9000E+01
     23.42434807     -3.38557441  301      5.50292692      1.00000000
     -3.386  0.0000E+00  0.0000E+00  0.0000E+00  0.0000E+00  0.0000E+00  0.0000E+00  0.0000E+00  0.0000E+00  0.0000E+00  0.0000E+00  0.0000E+00  0.0000E+00  0.0000E+00  0.0000E+00  0.0000E+00  0.0000E+00  0.0000E+00  0.0000E+00
     -3.296  0.0000E+00  0.0000E+00  0.0000E+00  0.0000E+00  0.0000E+00  0.0000E+00  0.0000E+00  0.0000E+00  0.0000E+00  0.0000E+00  0.0000E+00  0.0000E+00  0.0000E+00  0.0000E+00  0.0000E+00  0.0000E+00  0.0000E+00  0.0000E+00
     -3.207  0.0000E+00  0.0000E+00  0.0000E+00  0.0000E+00  0.0000E+00  0.0000E+00  0.0000E+00  0.0000E+00  0.0000E+00  0.0000E+00  0.0000E+00  0.0000E+00  0.0000E+00  0.0000E+00  0.0000E+00  0.0000E+00  0.0000E+00  0.0000E+00
     -3.117  0.0000E+00  0.0000E+00  0.0000E+00  0.0000E+00  0.0000E+00  0.0000E+00  0.0000E+00  0.0000E+00  0.0000E+00  0.0000E+00  0.0000E+00  0.0000E+00  0.0000E+00  0.0000E+00  0.0000E+00  0.0000E+00  0.0000E+00  0.0000E+00
     -3.028  0.0000E+00  0.0000E+00  0.0000E+00  0.0000E+00  0.0000E+00  0.0000E+00  0.0000E+00  0.0000E+00  0.0000E+00  0.0000E+00  0.0000E+00  0.0000E+00  0.0000E+00  0.0000E+00  0.0000E+00  0.0000E+00  0.0000E+00  0.0000E+00
     -2.939  0.0000E+00  0.0000E+00  0.0000E+00  0.0000E+00  0.0000E+00  0.0000E+00  0.0000E+00  0.0000E+00  0.0000E+00  0.0000E+00  0.0000E+00  0.0000E+00  0.0000E+00  0.0000E+00  0.0000E+00  0.0000E+00  0.0000E+00  0.0000E+00
     -2.849  0.0000E+00  0.0000E+00  0.0000E+00  0.0000E+00  0.0000E+00  0.0000E+00  0.0000E+00  0.0000E+00  0.0000E+00  0.0000E+00  0.0000E+00  0.0000E+00  0.0000E+00  0.0000E+00  0.0000E+00  0.0000E+00  0.0000E+00  0.0000E+00
     -2.760  0.0000E+00  0.0000E+00  0.0000E+00  0.0000E+00  0.0000E+00  0.0000E+00  0.0000E+00  0.0000E+00  0.0000E+00  0.0000E+00  0.0000E+00  0.0000E+00  0.0000E+00  0.0000E+00  0.0000E+00  0.0000E+00  0.0000E+00  0.0000E+00
     -2.671  0.0000E+00  0.0000E+00  0.0000E+00  0.0000E+00  0.0000E+00  0.0000E+00  0.0000E+00  0.0000E+00  0.0000E+00  0.0000E+00  0.0000E+00  0.0000E+00  0.0000E+00  0.0000E+00  0.0000E+00  0.0000E+00  0.0000E+00  0.0000E+00
     -2.581 -0.2901E-30 -0.3106E-33 -0.2345E-32 -0.2513E-35 -0.2345E-32 -0.2513E-35 -0.2345E-32 -0.2513E-35 -0.9049E-34 -0.9685E-37 -0.9049E-34 -0.9685E-37 -0.9155E-46 -0.2637E-52 -0.9049E-34 -0.9685E-37 -0.3954E-45 -0.7497E-52
     -2.492 -0.6829E-19 -0.3157E-21 -0.5521E-21 -0.2554E-23 -0.5521E-21 -0.2554E-23 -0.5521E-21 -0.2554E-23 -0.2130E-22 -0.9844E-25 -0.2130E-22 -0.9844E-25 -0.2155E-34 -0.2680E-40 -0.2130E-22 -0.9844E-25 -0.9308E-34 -0.7620E-40
     -2.403 -0.2386E-10 -0.4841E-12 -0.1929E-12 -0.3915E-14 -0.1929E-12 -0.3915E-14 -0.1929E-12 -0.3915E-14 -0.7444E-14 -0.1509E-15 -0.7444E-14 -0.1509E-15 -0.7531E-26 -0.4109E-31 -0.7444E-14 -0.1509E-15 -0.3253E-25 -0.1168E-30
     -2.313 -0.1167E-04 -0.1079E-05 -0.9431E-07 -0.8729E-08 -0.9431E-07 -0.8729E-08 -0.9431E-07 -0.8729E-08 -0.3639E-08 -0.3365E-09 -0.3639E-08 -0.3365E-09 -0.3682E-20 -0.9161E-25 -0.3639E-08 -0.3365E-09 -0.1590E-19 -0.2605E-24
     -2.224 -0.2805E-02 -0.2119E-02 -0.2268E-04 -0.1714E-04 -0.2268E-04 -0.1714E-04 -0.2268E-04 -0.1714E-04 -0.8750E-06 -0.6605E-06 -0.8750E-06 -0.6605E-06 -0.8853E-18 -0.1798E-21 -0.8750E-06 -0.6605E-06 -0.3823E-17 -0.5113E-21
     -2.134  0.8047E-01  0.5986E-01  0.6506E-03  0.4842E-03  0.6506E-03  0.4842E-03  0.6506E-03  0.4842E-03  0.2510E-04  0.1866E-04  0.2510E-04  0.1866E-04  0.2540E-16  0.5081E-20  0.2510E-04  0.1866E-04  0.1097E-15  0.1445E-19
     -2.045  0.4980E-02  0.2533E-01  0.4026E-04  0.2049E-03  0.4026E-04  0.2049E-03  0.4026E-04  0.2049E-03  0.1554E-05  0.7897E-05  0.1554E-05  0.7897E-05  0.1572E-17  0.2150E-20  0.1554E-05  0.7897E-05  0.6788E-17  0.6113E-20
     -1.956 -0.1259E-03 -0.5944E-03 -0.1018E-05 -0.4808E-05 -0.1018E-05 -0.4808E-05 -0.1018E-05 -0.4808E-05 -0.3927E-07 -0.1853E-06 -0.3927E-07 -0.1853E-06 -0.3972E-19 -0.5045E-22 -0.3927E-07 -0.1853E-06 -0.1716E-18 -0.1434E-21
     -1.866 -0.1650E-08 -0.3844E-07 -0.1334E-10 -0.3109E-09 -0.1334E-10 -0.3109E-09 -0.1334E-10 -0.3109E-09 -0.5146E-12 -0.1198E-10 -0.5146E-12 -0.1198E-10 -0.5209E-24 -0.3263E-26 -0.5146E-12 -0.1198E-10 -0.2249E-23 -0.9278E-26
     -1.777 -0.3962E-14 -0.2858E-14 -0.3012E-16 -0.2310E-16 -0.3012E-16 -0.2310E-16 -0.2899E-15 -0.2561E-16 -0.1091E-16 -0.9843E-18 -0.2033E-17 -0.8988E-18 -0.3771E-17 -0.3642E-19 -0.1091E-16 -0.9843E-18 -0.1131E-16 -0.1093E-18
     -1.688 -0.6774E-07 -0.2793E-08 -0.5147E-09 -0.2123E-10 -0.5147E-09 -0.2123E-10 -0.4999E-08 -0.2062E-09 -0.1881E-09 -0.7751E-11 -0.3490E-10 -0.1438E-11 -0.6509E-10 -0.2687E-11 -0.1881E-09 -0.7751E-11 -0.1953E-09 -0.8061E-11
     -1.598 -0.1356E-02 -0.2713E-03 -0.1030E-04 -0.2062E-05 -0.1030E-04 -0.2062E-05 -0.1001E-03 -0.2003E-04 -0.3765E-05 -0.7528E-06 -0.6985E-06 -0.1397E-06 -0.1303E-05 -0.2610E-06 -0.3765E-05 -0.7528E-06 -0.3909E-05 -0.7830E-06
     -1.509  0.6038E-01  0.8662E-02  0.4588E-03  0.6584E-04  0.4588E-03  0.6584E-04  0.4456E-02  0.6394E-03  0.1676E-03  0.2403E-04  0.3111E-04  0.4459E-05  0.5802E-04  0.8332E-05  0.1676E-03  0.2403E-04  0.1741E-03  0.2500E-04
     -1.420  0.1819E+00  0.2330E+00  0.1382E-02  0.1772E-02  0.1382E-02  0.1772E-02  0.1342E-01  0.1720E-01  0.5050E-03  0.6466E-03  0.9370E-04  0.1200E-03  0.1748E-03  0.2242E-03  0.5050E-03  0.6466E-03  0.5243E-03  0.6725E-03
     -1.330 -0.6693E-02 -0.7270E-02 -0.5085E-04 -0.5527E-04 -0.5085E-04 -0.5527E-04 -0.4939E-03 -0.5367E-03 -0.1858E-04 -0.2017E-04 -0.3448E-05 -0.3742E-05 -0.6431E-05 -0.6994E-05 -0.1858E-04 -0.2017E-04 -0.1929E-04 -0.2098E-04
     -1.241 -0.4580E-05 -0.4628E-04 -0.3480E-07 -0.3518E-06 -0.3480E-07 -0.3518E-06 -0.3379E-06 -0.3417E-05 -0.1272E-07 -0.1284E-06 -0.2359E-08 -0.2382E-07 -0.4400E-08 -0.4452E-07 -0.1272E-07 -0.1284E-06 -0.1320E-07 -0.1336E-06
     -1.151 -0.2804E-11 -0.1199E-09 -0.3326E-13 -0.9113E-12 -0.3326E-13 -0.9113E-12 -0.1939E-12 -0.8848E-11 -0.8149E-14 -0.3326E-12 -0.6275E-14 -0.6176E-13 -0.2642E-14 -0.1153E-12 -0.8149E-14 -0.3326E-12 -0.7925E-14 -0.3459E-12
     -1.062 -0.8601E-06 -0.4842E-07 -0.5977E-07 -0.3367E-08 -0.5977E-07 -0.3367E-08 -0.5438E-08 -0.3064E-09 -0.4013E-08 -0.2258E-09 -0.2196E-07 -0.1235E-08 -0.5940E-09 -0.3350E-10 -0.4013E-08 -0.2258E-09 -0.1782E-08 -0.1005E-09
     -0.973 -0.3819E-02 -0.1123E-02 -0.2654E-03 -0.7807E-04 -0.2654E-03 -0.7807E-04 -0.2415E-04 -0.7104E-05 -0.1782E-04 -0.5235E-05 -0.9750E-04 -0.2865E-04 -0.2637E-05 -0.7768E-06 -0.1782E-04 -0.5235E-05 -0.7912E-05 -0.2330E-05
     -0.883  0.1251E+00  0.5104E-01  0.8697E-02  0.3549E-02  0.8697E-02  0.3549E-02  0.7912E-03  0.3230E-03  0.5838E-03  0.2380E-03  0.3195E-02  0.1302E-02  0.8642E-04  0.3531E-04  0.5838E-03  0.2380E-03  0.2592E-03  0.1059E-03
     -0.794  0.1025E+00  0.1777E+00  0.7125E-02  0.1235E-01  0.7125E-02  0.1235E-01  0.6482E-03  0.1124E-02  0.4783E-03  0.8283E-03  0.2617E-02  0.4533E-02  0.7080E-04  0.1229E-03  0.4783E-03  0.8283E-03  0.2124E-03  0.3688E-03
     -0.705 -0.2819E-02 -0.6656E-02 -0.1959E-03 -0.4629E-03 -0.1959E-03 -0.4629E-03 -0.1782E-04 -0.4212E-04 -0.1315E-04 -0.3103E-04 -0.7196E-04 -0.1698E-03 -0.1946E-05 -0.4605E-05 -0.1315E-04 -0.3103E-04 -0.5839E-05 -0.1382E-04
     -0.615 -0.3917E-06 -0.5416E-05 -0.2721E-07 -0.3766E-06 -0.2721E-07 -0.3766E-06 -0.2553E-08 -0.3428E-07 -0.1883E-08 -0.2525E-07 -0.1002E-07 -0.1382E-06 -0.2695E-09 -0.3747E-08 -0.1883E-08 -0.2525E-07 -0.8084E-09 -0.1124E-07
     -0.526 -0.1097E-03 -0.1581E-04 -0.6284E-05 -0.9067E-06 -0.6284E-05 -0.9067E-06 -0.6284E-05 -0.9067E-06 -0.4566E-05 -0.6580E-06 -0.4566E-05 -0.6580E-06 -0.4795E-11 -0.1110E-12 -0.4566E-05 -0.6580E-06 -0.1183E-15 -0.7353E-14
     -0.436  0.4408E-02 -0.1996E-02  0.2544E-03 -0.1143E-03  0.2469E-03 -0.1150E-03  0.2544E-03 -0.1143E-03  0.1850E-03 -0.8292E-04  0.1848E-03 -0.8294E-04 -0.1962E-05 -0.1978E-06  0.1848E-03 -0.8294E-04 -0.2140E-20 -0.4894E-25
     -0.347  0.6021E-01  0.6312E-01  0.3777E-02  0.3908E-02  0.2468E-02  0.2755E-02  0.3777E-02  0.3908E-02  0.2769E-02  0.2857E-02  0.2730E-02  0.2823E-02 -0.3438E-03 -0.3030E-03  0.2730E-02  0.2823E-02 -0.3760E-18  0.1086E-23
     -0.258  0.1999E+00  0.1587E+00  0.1288E-02  0.1212E-02  0.4189E-01  0.3270E-01  0.1288E-02  0.1212E-02  0.1820E-03  0.2954E-03  0.1385E-02  0.1228E-02  0.1066E-01  0.8280E-02  0.1385E-02  0.1228E-02  0.1167E-16  0.1623E-22
     -0.168  0.8633E-02  0.5406E-01  0.6027E-04  0.3771E-03  0.1795E-02  0.1125E-01  0.6027E-04  0.3771E-03  0.1159E-04  0.7198E-04  0.6299E-04  0.3938E-03  0.4557E-03  0.2858E-02  0.6299E-04  0.3938E-03  0.4985E-18  0.5585E-23
     -0.079 -0.2532E-03 -0.1223E-02 -0.1781E-05 -0.8614E-05 -0.5260E-04 -0.2543E-03 -0.1781E-05 -0.8614E-05 -0.3506E-06 -0.1692E-05 -0.1857E-05 -0.8966E-05 -0.1335E-04 -0.6459E-04 -0.1857E-05 -0.8966E-05 -0.3483E-16 -0.3162E-18
      0.010 -0.5134E-07 -0.6550E-07 -0.3117E-08 -0.5670E-09 -0.7716E-09 -0.1324E-07 -0.9676E-08 -0.8186E-09 -0.3434E-08 -0.2195E-09 -0.6274E-09 -0.4897E-09 -0.7838E-09 -0.3385E-08 -0.6456E-09 -0.4904E-09 -0.8986E-09 -0.3451E-10
      0.100 -0.1498E-02 -0.2724E-03 -0.9551E-04 -0.1739E-04 -0.6083E-05 -0.1108E-05 -0.2978E-03 -0.5418E-04 -0.1058E-03 -0.1923E-04 -0.1872E-04 -0.3402E-05 -0.1967E-04 -0.3587E-05 -0.1928E-04 -0.3504E-05 -0.2771E-04 -0.5047E-05
      0.189  0.6998E-01  0.2265E-02  0.4463E-02  0.1446E-03  0.2842E-03  0.9217E-05  0.1391E-01  0.4506E-03  0.4942E-02  0.1599E-03  0.8747E-03  0.2829E-04  0.9193E-03  0.2983E-04  0.9010E-03  0.2915E-04  0.1295E-02  0.4197E-04
      0.278  0.3280E+00  0.3899E+00  0.2092E-01  0.2489E-01  0.1332E-02  0.1587E-02  0.6520E-01  0.7756E-01  0.2316E-01  0.2752E-01  0.4100E-02  0.4869E-02  0.4308E-02  0.5134E-02  0.4223E-02  0.5016E-02  0.6067E-02  0.7224E-02
      0.368 -0.1402E-01 -0.8424E-02 -0.8542E-03 -0.5291E-03 -0.1028E-03 -0.4419E-04 -0.2733E-02 -0.1664E-02 -0.1052E-02 -0.6079E-03 -0.3040E-03 -0.1330E-03 -0.1709E-03 -0.1080E-03 -0.3250E-03 -0.1396E-03 -0.2495E-03 -0.1540E-03
      0.457  0.5922E-01  0.1302E-01  0.2133E-02  0.4660E-03  0.2134E-02  0.4739E-03  0.9542E-02  0.2094E-02  0.6735E-02  0.1485E-02  0.6061E-02  0.1343E-02  0.2299E-03  0.4945E-04  0.6735E-02  0.1493E-02  0.6900E-03  0.1511E-03
      0.547  0.1211E+00  0.1679E+00  0.4362E-02  0.6059E-02  0.4362E-02  0.6059E-02  0.1951E-01  0.2708E-01  0.1377E-01  0.1908E-01  0.1239E-01  0.1717E-01  0.4703E-03  0.6537E-03  0.1377E-01  0.1908E-01  0.1411E-02  0.1961E-02
      0.636 -0.4167E-02 -0.6093E-02 -0.1501E-03 -0.2199E-03 -0.1501E-03 -0.2199E-03 -0.6716E-03 -0.9827E-03 -0.4739E-03 -0.6926E-03 -0.4264E-03 -0.6231E-03 -0.1619E-04 -0.2372E-04 -0.4739E-03 -0.6926E-03 -0.4857E-04 -0.7117E-04
      0.725 -0.1776E-05 -0.2036E-04 -0.6399E-07 -0.7348E-06 -0.6399E-07 -0.7348E-06 -0.2862E-06 -0.3284E-05 -0.2020E-06 -0.2314E-05 -0.1817E-06 -0.2082E-05 -0.6899E-08 -0.7927E-07 -0.2020E-06 -0.2314E-05 -0.2070E-07 -0.2378E-06
      0.815 -0.1784E-04 -0.1409E-05 -0.1612E-05 -0.1298E-06 -0.1690E-05 -0.1343E-06 -0.1258E-06 -0.9529E-08 -0.4486E-05 -0.3502E-06 -0.5551E-05 -0.4363E-06 -0.1090E-06 -0.6696E-08 -0.4487E-05 -0.3502E-06 -0.5390E-07 -0.4377E-08
      0.904 -0.8144E-02 -0.4390E-02 -0.5464E-03 -0.3454E-03 -0.1180E-02 -0.5164E-03 -0.7211E-04 -0.3566E-04 -0.1793E-02 -0.1049E-02 -0.2141E-02 -0.1273E-02 -0.7407E-03 -0.2024E-03 -0.1801E-02 -0.1051E-02 -0.1720E-04 -0.1127E-04
      0.993  0.2367E+00  0.1404E+00  0.1487E-01  0.1030E-01  0.3848E-01  0.1833E-01  0.2066E-02  0.1186E-02  0.4821E-01  0.3228E-01  0.5763E-01  0.3889E-01  0.2754E-01  0.9438E-02  0.4850E-01  0.3238E-01  0.4609E-03  0.3310E-03
      1.083  0.1390E+00  0.2034E+00  0.8371E-02  0.7131E-02  0.4000E-01  0.5471E-01  0.9324E-03  0.1806E-02  0.7428E-02  0.2192E-01  0.1518E-01  0.2648E-01  0.3685E-01  0.5533E-01  0.7821E-02  0.2251E-01  0.4291E-03  0.2065E-03