    1    1    1    2
  0.1919141E+02  0.3005204E-09  0.3005204E-09  0.3005204E-09  0.5000000E-15
  1.000000000000000E-004
  CAR 
 unknown system                          
    5   28    9
 
  0.8333333E-01  0.8333333E-01  0.8333333E-01  0.9259259E-02
   1       -2.166942     -2.146662
   2        5.820858      5.842233
   3        6.177570      6.198939
   4        6.177570      6.198939
   5        8.829581      8.848065
   6        8.829581      8.848065
   7       18.556275     18.576808
   8       19.029135     19.037320
   9       21.515120     21.531718
 
  0.2500000E+00  0.8333333E-01  0.8333333E-01  0.2777778E-01
   1       -0.886210     -0.866032
   2        4.984406      5.005587
   3        6.425793      6.446385
   4        6.670912      6.691898
   5        8.078804      8.097552
   6        9.296139      9.314701
   7       19.022905     19.031233
   8       19.320925     19.336461
   9       21.031369     21.050772
 
  0.4166667E+00  0.8333333E-01  0.8333333E-01  0.2777778E-01
   1        0.963184      0.984200
   2        5.024585      5.043613
   3        5.831144      5.851204
   4        6.247427      6.267278
   5        9.602599      9.621573
   6       11.022874     11.040897
   7       16.679957     16.696513
   8       19.030386     19.038659
   9       19.611640     19.630500
 
 -0.4166667E+00  0.8333333E-01  0.8333333E-01  0.2777778E-01
   1        1.304166      1.325846
   2        5.302435      5.320655
   3        6.058180      6.078020
   4        6.092198      6.111394
   5       11.237174     11.254964
   6       11.400424     11.418143
   7       15.142357     15.161341
   8       18.196426     18.213777
   9       19.034615     19.042820
 
 -0.2500000E+00  0.8333333E-01  0.8333333E-01  0.2777778E-01
   1        0.467410      0.487914
   2        4.687613      4.707765
   3        6.024967      6.044865
   4        6.512280      6.532493
   5        9.176250      9.195465
   6       10.137215     10.155555
   7       17.531971     17.547668
   8       19.032841     19.041054
   9       20.934273     20.953299
 
 -0.8333333E-01  0.8333333E-01  0.8333333E-01  0.2777778E-01
   1       -1.493443     -1.473255
   2        5.232765      5.254129
   3        6.507294      6.528392
   4        6.528683      6.549813
   5        8.084094      8.102810
   6        9.147775      9.166129
   7       19.028961     19.037148
   8       19.812053     19.831967
   9       20.696873     20.712584
 
  0.2500000E+00  0.2500000E+00  0.8333333E-01  0.2777778E-01
   1       -0.292611     -0.272680
   2        4.341212      4.362604
   3        6.456345      6.475754
   4        7.239174      7.259871
   5        7.762497      7.782643
   6        9.722906      9.740996
   7       19.028238     19.036421
   8       20.492646     20.507474
   9       22.160903     22.180541
 
  0.4166667E+00  0.2500000E+00  0.8333333E-01  0.5555556E-01
   1        1.461369      1.480964
   2        3.800851      3.821866
   3        5.265372      5.284989
   4        7.816555      7.836097
   5        9.148394      9.168007
   6       11.309587     11.327562
   7       18.278013     18.296015
   8       19.041133     19.049479
   9       21.533547     21.555787
 
 -0.4166667E+00  0.2500000E+00  0.8333333E-01  0.5555556E-01
   1        2.483918      2.505142
   2        3.957299      3.974850
   3        5.312514      5.333096
   4        7.239492      7.258712
   5       10.816949     10.835609
   6       13.155118     13.172958
   7       14.336601     14.356365
   8       19.033155     19.041354
   9       20.433529     20.449624
 
 -0.2500000E+00  0.2500000E+00  0.8333333E-01  0.5555556E-01
   1        2.167604      2.187936
   2        4.295988      4.315732
   3        4.721802      4.741562
   4        7.367314      7.386277
   5        9.166080      9.185844
   6       12.391177     12.409017
   7       16.937561     16.956699
   8       19.036048     19.044271
   9       20.786384     20.804526
 
 -0.8333333E-01  0.2500000E+00  0.8333333E-01  0.5555556E-01
   1        0.209966      0.230043
   2        4.434467      4.455573
   3        6.005581      6.025222
   4        7.105399      7.125640
   5        8.100810      8.120404
   6       10.217409     10.235766
   7       18.977162     18.988244
   8       19.099955     19.112316
   9       22.186426     22.205715
 
  0.4166667E+00  0.4166667E+00  0.8333333E-01  0.2777778E-01
   1        1.559306      1.577655
   2        2.854455      2.875889
   3        6.369898      6.390116
   4        9.530932      9.550003
   5       10.571008     10.590453
   6       11.185312     11.202921
   7       17.736216     17.756223
   8       19.031832     19.040092
   9       19.122738     19.142782
 
 -0.4166667E+00  0.4166667E+00  0.8333333E-01  0.5555556E-01
   1        2.048469      2.066422
   2        2.986000      3.007135
   3        6.393668      6.414134
   4        9.335634      9.353802
   5       11.481230     11.499807
   6       13.597644     13.616237
   7       14.659007     14.679750
   8       17.607418     17.627670
   9       19.030122     19.038416
 
 -0.2500000E+00  0.4166667E+00  0.8333333E-01  0.5555556E-01
   1        3.087298      3.107463
   2        3.574527      3.592828
   3        5.068198      5.088880
   4        7.884408      7.903059
   5       10.466933     10.486221
   6       12.787355     12.807679
   7       15.956772     15.974770
   8       18.729747     18.747092
   9       19.042878     19.051413
 
 -0.8333333E-01  0.4166667E+00  0.8333333E-01  0.5555556E-01
   1        1.661965      1.683248
   2        4.740245      4.758013
   3        5.482981      5.503529
   4        6.557310      6.576954
   5       10.385304     10.403915
   6       11.987832     12.005457
   7       15.645288     15.664011
   8       19.034041     19.042256
   9       19.472388     19.489739
 
 -0.4166667E+00 -0.4166667E+00  0.8333333E-01  0.2777778E-01
   1        1.504041      1.522035
   2        2.517922      2.539373
   3        7.619097      7.639503
   4       10.583832     10.601371
   5       11.678018     11.696101
   6       12.186110     12.204695
   7       15.647145     15.668224
   8       17.319148     17.340009
   9       18.503531     18.521972
 
 -0.2500000E+00 -0.4166667E+00  0.8333333E-01  0.5555556E-01
   1        2.103396      2.121893
   2        3.271891      3.292890
   3        5.426412      5.446813
   4        8.772547      8.791317
   5       10.562262     10.581299
   6       12.327204     12.345309
   7       16.266892     16.287090
   8       19.031159     19.039473
   9       19.283389     19.303310
 
 -0.2500000E+00 -0.2500000E+00  0.8333333E-01  0.2777778E-01
   1        0.997622      1.016894
   2        3.488132      3.509546
   3        5.824044      5.843547
   4        8.276959      8.297021
   5        8.924165      8.944214
   6       10.448384     10.466127
   7       19.025619     19.033822
   8       20.120107     20.137603
   9       21.588418     21.607408
 
  0.2500000E+00  0.2500000E+00  0.2500000E+00  0.9259259E-02
   1       -0.404515     -0.384194
   2        4.916817      4.937479
   3        6.446780      6.467331
   4        6.446780      6.467331
   5        8.990969      9.009758
   6        8.990969      9.009758
   7       17.981223     17.996910
   8       19.033180     19.041393
   9       21.498621     21.517493
 
  0.4166667E+00  0.2500000E+00  0.2500000E+00  0.2777778E-01
   1        1.101302      1.121604
   2        4.475237      4.495968
   3        5.505783      5.525127
   4        6.984753      7.004084
   5        8.295675      8.315620
   6       11.386947     11.404995
   7       18.128175     18.144754
   8       19.039069     19.047347
   9       21.246655     21.266068
 
 -0.4166667E+00  0.2500000E+00  0.2500000E+00  0.2777778E-01
   1        2.769447      2.790639
   2        4.051877      4.069288
   3        4.889248      4.909939
   4        7.393884      7.412637
   5        9.632305      9.651919
   6       12.540617     12.559808
   7       16.510511     16.528642
   8       19.033635     19.041859
   9       19.584608     19.602606
 
 -0.2500000E+00  0.2500000E+00  0.2500000E+00  0.2777778E-01
   1        2.267803      2.287749
   2        3.633149      3.652245
   3        5.335485      5.356154
   4        7.808512      7.827736
   5       11.408655     11.426455
   6       12.357737     12.376436
   7       14.825889     14.845754
   8       19.033010     19.041211
   9       20.937555     20.680418
 
  0.4166667E+00  0.4166667E+00  0.2500000E+00  0.2777778E-01
   1        1.510878      1.531389
   2        4.234746      4.254093
   3        5.348508      5.368684
   4        6.985339      7.005155
   5       10.407662     10.426640
   6       11.105508     11.123296
   7       16.762877     16.780822
   8       19.034844     19.043059
   9       20.328228     20.345643
 
 -0.4166667E+00  0.4166667E+00  0.2500000E+00  0.5555556E-01
   1        2.971271      2.990170
   2        3.801533      3.821257
   3        4.523444      4.544325
   4        7.995345      8.013984
   5       10.355495     10.374844
   6       13.062646     13.081610
   7       15.864539     15.883719
   8       18.987822     19.002938
   9       19.057457     19.069833
 
 -0.2500000E+00  0.4166667E+00  0.2500000E+00  0.5555556E-01
   1        2.858891      2.876376
   2        3.791366      3.812277
   3        4.994018      5.014780
   4        7.951016      7.970025
   5       11.404747     11.423524
   6       14.286461     14.306445
   7       15.029738     15.049049
   8       17.368427     17.388032
   9       19.036305     19.044536
 
 -0.4166667E+00 -0.4166667E+00  0.2500000E+00  0.2777778E-01
   1        2.411328      2.430257
   2        3.334664      3.354539
   3        5.875588      5.896127
   4        8.708345      8.726682
   5       10.981516     11.000219
   6       12.910168     12.931299
   7       14.962982     14.981158
   8       18.940412     18.953430
   9       19.089003     19.100434
 
  0.4166667E+00  0.4166667E+00  0.4166667E+00  0.9259259E-02
   1        0.971280      0.992812
   2        5.733220      5.751136
   3        5.924001      5.943954
   4        5.924001      5.943954
   5       10.778745     10.796852
   6       10.778745     10.796852
   7       15.805473     15.822874
   8       18.256215     18.274438
   9       19.036680     19.044926
 
 -0.4166667E+00  0.4166667E+00  0.4166667E+00  0.2777778E-01
   1        1.972908      1.994455
   2        4.530421      4.548004
   3        5.669992      5.690096
   4        6.611817      6.631307
   5       10.630737     10.649172
   6       12.466363     12.484284
   7       14.883887     14.902953
   8       19.033419     19.041620
   9       19.651360     19.668086
