       N       E                     dE             d eps       ncg     rms          rms(c)
DAV:   1     0.250591684679E+01    0.25059E+01   -0.13381E+03  1238   0.213E+02
DAV:   2    -0.164293188546E+01   -0.41488E+01   -0.37307E+01  1174   0.319E+01
DAV:   3    -0.167111125930E+01   -0.28179E-01   -0.28154E-01  1311   0.255E+00
DAV:   4    -0.167114340683E+01   -0.32148E-04   -0.32139E-04  1234   0.657E-02
DAV:   5    -0.167114347083E+01   -0.63995E-07   -0.63854E-07  1271   0.233E-03    0.621E+00
DAV:   6    -0.110270438765E+02   -0.93559E+01   -0.23632E+00  1076   0.402E+00    0.501E+00
DAV:   7    -0.107934518971E+02    0.23359E+00   -0.16646E-01  1192   0.210E+00    0.667E+00
DAV:   8    -0.112576436717E+02   -0.46419E+00   -0.56663E-01  1092   0.424E+00    0.346E+00
DAV:   9    -0.114989145381E+02   -0.24127E+00   -0.28521E-01  1105   0.276E+00    0.166E+00
DAV:  10    -0.115188722868E+02   -0.19958E-01   -0.76193E-03  1377   0.265E-01    0.152E+00
DAV:  11    -0.115332042040E+02   -0.14332E-01   -0.30014E-03  1121   0.260E-01    0.134E+00
DAV:  12    -0.116213901338E+02   -0.88186E-01   -0.43554E-02  1114   0.108E+00    0.224E-01
DAV:  13    -0.116234384532E+02   -0.20483E-02   -0.25690E-03  1214   0.261E-01    0.742E-02
DAV:  14    -0.116230802430E+02    0.35821E-03   -0.80160E-04  1106   0.134E-01    0.724E-02
DAV:  15    -0.116233106913E+02   -0.23045E-03   -0.20353E-04   910   0.678E-02    0.543E-02
DAV:  16    -0.116234958625E+02   -0.18517E-03   -0.37945E-04  1096   0.929E-02    0.287E-02
DAV:  17    -0.116235147756E+02   -0.18913E-04   -0.11268E-05   511   0.183E-02
   1 F= -.11623515E+02 E0= -.11623315E+02  d E =-.600187E-03  mag=     0.0122
