PROCAR lm decomposed
# of k-points:   28         # of bands:   9         # of ions:   1

 k-point    1 :    0.08333333 0.08333333 0.08333333     weight = 0.00925926

band   1 # energy   -2.16694157 # occ.  1.00000000
 
ion      s     py     pz     px    dxy    dyz    dz2    dxz    dx2    tot
  1  0.796  0.006  0.006  0.006  0.000  0.000  0.000  0.000  0.000  0.816
 
band   2 # energy    5.82085752 # occ.  0.00000000
 
ion      s     py     pz     px    dxy    dyz    dz2    dxz    dx2    tot
  1  0.000  0.003  0.003  0.003  0.323  0.323  0.000  0.323  0.000  0.978
 
band   3 # energy    6.17756994 # occ.  0.00000000
 
ion      s     py     pz     px    dxy    dyz    dz2    dxz    dx2    tot
  1  0.000  0.001  0.000  0.001  0.108  0.641  0.001  0.232  0.003  0.986
 
band   4 # energy    6.17756994 # occ.  0.00000000
 
ion      s     py     pz     px    dxy    dyz    dz2    dxz    dx2    tot
  1  0.000  0.001  0.001  0.000  0.546  0.013  0.003  0.422  0.001  0.986
 
band   5 # energy    8.82958050 # occ.  0.00000000
 
ion      s     py     pz     px    dxy    dyz    dz2    dxz    dx2    tot
  1  0.000  0.000  0.000  0.000  0.000  0.002  0.182  0.001  0.783  0.968
 
band   6 # energy    8.82958050 # occ.  0.00000000
 
ion      s     py     pz     px    dxy    dyz    dz2    dxz    dx2    tot
  1  0.000  0.000  0.000  0.000  0.002  0.000  0.783  0.001  0.182  0.968
 
band   7 # energy   18.55627514 # occ.  0.00000000
 
ion      s     py     pz     px    dxy    dyz    dz2    dxz    dx2    tot
  1  0.001  0.000  0.000  0.000  0.008  0.008  0.000  0.008  0.000  0.026
 
band   8 # energy   19.02913505 # occ.  0.00000000
 
ion      s     py     pz     px    dxy    dyz    dz2    dxz    dx2    tot
  1 43.819  0.000  0.000  0.000  0.000  0.000  0.000  0.000  0.000 43.819
 
band   9 # energy   21.51511994 # occ.  0.00000000
 
ion      s     py     pz     px    dxy    dyz    dz2    dxz    dx2    tot
  1  0.061  0.034  0.034  0.034  0.005  0.005  0.000  0.005  0.000  0.179
 

 k-point    2 :    0.25000000 0.08333333 0.08333333     weight = 0.02777778

band   1 # energy   -0.88620970 # occ.  1.00000000
 
ion      s     py     pz     px    dxy    dyz    dz2    dxz    dx2    tot
  1  0.711  0.049  0.049  0.004  0.003  0.018  0.000  0.003  0.001  0.841
 
band   2 # energy    4.98440566 # occ.  1.00000000
 
ion      s     py     pz     px    dxy    dyz    dz2    dxz    dx2    tot
  1  0.001  0.007  0.007  0.043  0.431  0.037  0.000  0.431  0.000  0.957
 
band   3 # energy    6.42579284 # occ.  0.00000000
 
ion      s     py     pz     px    dxy    dyz    dz2    dxz    dx2    tot
  1  0.000  0.014  0.014  0.001  0.020  0.699  0.049  0.020  0.147  0.964
 
band   4 # energy    6.67091168 # occ.  0.00000000
 
ion      s     py     pz     px    dxy    dyz    dz2    dxz    dx2    tot
  1  0.000  0.000  0.000  0.000  0.441  0.000  0.067  0.441  0.022  0.972
 
band   5 # energy    8.07880444 # occ.  0.00000000
 
ion      s     py     pz     px    dxy    dyz    dz2    dxz    dx2    tot
  1  0.000  0.001  0.001  0.000  0.044  0.000  0.639  0.044  0.213  0.943
 
band   6 # energy    9.29613898 # occ.  0.00000000
 
ion      s     py     pz     px    dxy    dyz    dz2    dxz    dx2    tot
  1  0.004  0.005  0.005  0.000  0.004  0.183  0.188  0.004  0.563  0.954
 
band   7 # energy   19.02290502 # occ.  0.00000000
 
ion      s     py     pz     px    dxy    dyz    dz2    dxz    dx2    tot
  1 42.375  0.001  0.001  0.000  0.000  0.001  0.000  0.000  0.000 42.379
 
band   8 # energy   19.32092463 # occ.  0.00000000
 
ion      s     py     pz     px    dxy    dyz    dz2    dxz    dx2    tot
  1  1.500  0.028  0.028  0.012  0.000  0.030  0.006  0.000  0.019  1.625
 
band   9 # energy   21.03136947 # occ.  0.00000000
 
ion      s     py     pz     px    dxy    dyz    dz2    dxz    dx2    tot
  1  0.037  0.010  0.010  0.004  0.075  0.029  0.001  0.075  0.003  0.243
 

 k-point    3 :    0.41666667 0.08333333 0.08333333     weight = 0.02777778

band   1 # energy    0.96318369 # occ.  1.00000000
 
ion      s     py     pz     px    dxy    dyz    dz2    dxz    dx2    tot
  1  0.464  0.046  0.046  0.002  0.108  0.140  0.001  0.108  0.002  0.916
 
band   2 # energy    5.02458487 # occ.  1.00000000
 
ion      s     py     pz     px    dxy    dyz    dz2    dxz    dx2    tot
  1  0.033  0.123  0.123  0.150  0.176  0.044  0.011  0.176  0.033  0.869
 
band   3 # energy    5.83114353 # occ.  0.00000000
 
ion      s     py     pz     px    dxy    dyz    dz2    dxz    dx2    tot
  1  0.003  0.001  0.001  0.011  0.088  0.297  0.117  0.088  0.352  0.959
 
band   4 # energy    6.24742706 # occ.  0.00000000
 
ion      s     py     pz     px    dxy    dyz    dz2    dxz    dx2    tot
  1  0.000  0.000  0.000  0.000  0.195  0.000  0.430  0.195  0.143  0.963
 
band   5 # energy    9.60259924 # occ.  0.00000000
 
ion      s     py     pz     px    dxy    dyz    dz2    dxz    dx2    tot
  1  0.000  0.006  0.006  0.000  0.282  0.000  0.269  0.282  0.090  0.933
 
band   6 # energy   11.02287439 # occ.  0.00000000
 
ion      s     py     pz     px    dxy    dyz    dz2    dxz    dx2    tot
  1  0.011  0.020  0.020  0.001  0.031  0.416  0.107  0.031  0.320  0.958
 
band   7 # energy   16.67995665 # occ.  0.00000000
 
ion      s     py     pz     px    dxy    dyz    dz2    dxz    dx2    tot
  1  0.199  0.038  0.038  0.032  0.056  0.111  0.005  0.056  0.014  0.549
 
band   8 # energy   19.03038567 # occ.  0.00000000
 
ion      s     py     pz     px    dxy    dyz    dz2    dxz    dx2    tot
  1 43.308  0.000  0.000  0.000  0.000  0.000  0.000  0.000  0.000 43.310
 
band   9 # energy   19.61164038 # occ.  0.00000000
 
ion      s     py     pz     px    dxy    dyz    dz2    dxz    dx2    tot
  1  0.775  0.064  0.064  0.034  0.071  0.027  0.001  0.071  0.004  1.111
 

 k-point    4 :   -0.41666667 0.08333333 0.08333333     weight = 0.02777778

band   1 # energy    1.30416554 # occ.  1.00000000
 
ion      s     py     pz     px    dxy    dyz    dz2    dxz    dx2    tot
  1  0.338  0.000  0.000  0.020  0.189  0.218  0.000  0.189  0.001  0.955
 
band   2 # energy    5.30243535 # occ.  1.00000011
 
ion      s     py     pz     px    dxy    dyz    dz2    dxz    dx2    tot
  1  0.001  0.079  0.079  0.043  0.042  0.059  0.136  0.042  0.407  0.887
 
band   3 # energy    6.05818030 # occ.  0.00000000
 
ion      s     py     pz     px    dxy    dyz    dz2    dxz    dx2    tot
  1  0.000  0.003  0.003  0.000  0.186  0.000  0.439  0.186  0.146  0.964
 
band   4 # energy    6.09219826 # occ.  0.00000000
 
ion      s     py     pz     px    dxy    dyz    dz2    dxz    dx2    tot
  1  0.005  0.151  0.151  0.184  0.032  0.271  0.016  0.032  0.049  0.892
 
band   5 # energy   11.23717443 # occ.  0.00000000
 
ion      s     py     pz     px    dxy    dyz    dz2    dxz    dx2    tot
  1  0.000  0.000  0.000  0.000  0.300  0.000  0.273  0.300  0.091  0.964
 
band   6 # energy   11.40042388 # occ.  0.00000000
 
ion      s     py     pz     px    dxy    dyz    dz2    dxz    dx2    tot
  1  0.000  0.022  0.022  0.050  0.098  0.313  0.085  0.098  0.254  0.942
 
band   7 # energy   15.14235654 # occ.  0.00000000
 
ion      s     py     pz     px    dxy    dyz    dz2    dxz    dx2    tot
  1  0.473  0.003  0.003  0.004  0.165  0.127  0.000  0.165  0.000  0.941
 
band   8 # energy   18.19642630 # occ.  0.00000000
 
ion      s     py     pz     px    dxy    dyz    dz2    dxz    dx2    tot
  1  0.003  0.013  0.013  0.023  0.000  0.025  0.004  0.000  0.011  0.093
 
band   9 # energy   19.03461477 # occ.  0.00000000
 
ion      s     py     pz     px    dxy    dyz    dz2    dxz    dx2    tot
  1 43.991  0.000  0.000  0.000  0.000  0.000  0.000  0.000  0.000 43.991
 

 k-point    5 :   -0.25000000 0.08333333 0.08333333     weight = 0.02777778

band   1 # energy    0.46740969 # occ.  1.00000000
 
ion      s     py     pz     px    dxy    dyz    dz2    dxz    dx2    tot
  1  0.562  0.020  0.020  0.091  0.064  0.058  0.002  0.064  0.007  0.887
 
band   2 # energy    4.68761324 # occ.  1.00000000
 
ion      s     py     pz     px    dxy    dyz    dz2    dxz    dx2    tot
  1  0.019  0.083  0.083  0.055  0.101  0.455  0.004  0.101  0.013  0.915
 
band   3 # energy    6.02496749 # occ.  0.00000000
 
ion      s     py     pz     px    dxy    dyz    dz2    dxz    dx2    tot
  1  0.003  0.001  0.001  0.000  0.100  0.228  0.129  0.100  0.388  0.951
 
band   4 # energy    6.51228031 # occ.  0.00000000
 
ion      s     py     pz     px    dxy    dyz    dz2    dxz    dx2    tot
  1  0.000  0.009  0.009  0.000  0.274  0.000  0.300  0.274  0.100  0.964
 
band   5 # energy    9.17625030 # occ.  0.00000000
 
ion      s     py     pz     px    dxy    dyz    dz2    dxz    dx2    tot
  1  0.008  0.005  0.005  0.039  0.161  0.175  0.095  0.161  0.285  0.934
 
band   6 # energy   10.13721460 # occ.  0.00000000
 
ion      s     py     pz     px    dxy    dyz    dz2    dxz    dx2    tot
  1  0.000  0.005  0.005  0.000  0.195  0.000  0.414  0.195  0.138  0.953
 
band   7 # energy   17.53197142 # occ.  0.00000000
 
ion      s     py     pz     px    dxy    dyz    dz2    dxz    dx2    tot
  1  0.100  0.036  0.036  0.030  0.055  0.014  0.004  0.055  0.012  0.341
 
band   8 # energy   19.03284109 # occ.  0.00000000
 
ion      s     py     pz     px    dxy    dyz    dz2    dxz    dx2    tot
  1 43.778  0.000  0.000  0.000  0.000  0.000  0.000  0.000  0.000 43.778
 
band   9 # energy   20.93427292 # occ.  0.00000000
 
ion      s     py     pz     px    dxy    dyz    dz2    dxz    dx2    tot
  1  0.260  0.066  0.066  0.080  0.083  0.124  0.002  0.083  0.007  0.772
 

 k-point    6 :   -0.08333333 0.08333333 0.08333333     weight = 0.02777778

band   1 # energy   -1.49344275 # occ.  1.00000000
 
ion      s     py     pz     px    dxy    dyz    dz2    dxz    dx2    tot
  1  0.754  0.006  0.006  0.056  0.002  0.000  0.001  0.002  0.002  0.828
 
band   2 # energy    5.23276452 # occ.  1.00000000
 
ion      s     py     pz     px    dxy    dyz    dz2    dxz    dx2    tot
  1  0.000  0.007  0.007  0.001  0.061  0.827  0.000  0.061  0.000  0.965
 
band   3 # energy    6.50729370 # occ.  0.00000000
 
ion      s     py     pz     px    dxy    dyz    dz2    dxz    dx2    tot
  1  0.000  0.006  0.006  0.003  0.392  0.129  0.011  0.392  0.032  0.971
 
band   4 # energy    6.52868275 # occ.  0.00000000
 
ion      s     py     pz     px    dxy    dyz    dz2    dxz    dx2    tot
  1  0.000  0.009  0.009  0.000  0.465  0.000  0.022  0.465  0.007  0.977
 
band   5 # energy    8.08409370 # occ.  0.00000000
 
ion      s     py     pz     px    dxy    dyz    dz2    dxz    dx2    tot
  1  0.003  0.000  0.000  0.003  0.018  0.005  0.223  0.018  0.668  0.939
 
band   6 # energy    9.14777543 # occ.  0.00000000
 
ion      s     py     pz     px    dxy    dyz    dz2    dxz    dx2    tot
  1  0.000  0.000  0.000  0.000  0.014  0.000  0.702  0.014  0.234  0.966
 
band   7 # energy   19.02896116 # occ.  0.00000000
 
ion      s     py     pz     px    dxy    dyz    dz2    dxz    dx2    tot
  1 43.740  0.000  0.000  0.000  0.000  0.000  0.000  0.000  0.000 43.740
 
band   8 # energy   19.81205314 # occ.  0.00000000
 
ion      s     py     pz     px    dxy    dyz    dz2    dxz    dx2    tot
  1  0.021  0.002  0.002  0.002  0.002  0.056  0.001  0.002  0.002  0.090
 
band   9 # energy   20.69687324 # occ.  0.00000000
 
ion      s     py     pz     px    dxy    dyz    dz2    dxz    dx2    tot
  1  0.136  0.022  0.022  0.033  0.020  0.017  0.008  0.020  0.024  0.302
 

 k-point    7 :    0.25000000 0.25000000 0.08333333     weight = 0.02777778

band   1 # energy   -0.29261092 # occ.  1.00000000
 
ion      s     py     pz     px    dxy    dyz    dz2    dxz    dx2    tot
  1  0.657  0.005  0.136  0.005  0.001  0.005  0.035  0.005  0.000  0.847
 
band   2 # energy    4.34121151 # occ.  1.00000000
 
ion      s     py     pz     px    dxy    dyz    dz2    dxz    dx2    tot
  1  0.000  0.007  0.001  0.007  0.912  0.017  0.000  0.017  0.000  0.963
 
band   3 # energy    6.45634496 # occ.  0.00000000
 
ion      s     py     pz     px    dxy    dyz    dz2    dxz    dx2    tot
  1  0.014  0.007  0.007  0.007  0.017  0.124  0.631  0.124  0.000  0.930
 
band   4 # energy    7.23917361 # occ.  0.00000000
 
ion      s     py     pz     px    dxy    dyz    dz2    dxz    dx2    tot
  1  0.000  0.022  0.000  0.022  0.000  0.417  0.000  0.417  0.081  0.960
 
band   5 # energy    7.76249661 # occ.  0.00000000
 
ion      s     py     pz     px    dxy    dyz    dz2    dxz    dx2    tot
  1  0.010  0.017  0.021  0.017  0.029  0.305  0.245  0.305  0.000  0.948
 
band   6 # energy    9.72290623 # occ.  0.00000000
 
ion      s     py     pz     px    dxy    dyz    dz2    dxz    dx2    tot
  1  0.000  0.001  0.000  0.001  0.000  0.039  0.000  0.039  0.883  0.964
 
band   7 # energy   19.02823803 # occ.  0.00000000
 
ion      s     py     pz     px    dxy    dyz    dz2    dxz    dx2    tot
  1 43.641  0.000  0.000  0.000  0.000  0.000  0.000  0.000  0.000 43.641
 
band   8 # energy   20.49264601 # occ.  0.00000000
 
ion      s     py     pz     px    dxy    dyz    dz2    dxz    dx2    tot
  1  0.215  0.038  0.022  0.038  0.000  0.029  0.091  0.029  0.000  0.461
 
band   9 # energy   22.16090320 # occ.  0.00000000
 
ion      s     py     pz     px    dxy    dyz    dz2    dxz    dx2    tot
  1  0.009  0.008  0.003  0.008  0.181  0.018  0.001  0.018  0.000  0.247
 

 k-point    8 :    0.41666667 0.25000000 0.08333333     weight = 0.05555556

band   1 # energy    1.46136940 # occ.  1.00000000
 
ion      s     py     pz     px    dxy    dyz    dz2    dxz    dx2    tot
  1  0.444  0.031  0.172  0.001  0.024  0.051  0.139  0.010  0.000  0.874
 
band   2 # energy    3.80085062 # occ.  1.00000000
 
ion      s     py     pz     px    dxy    dyz    dz2    dxz    dx2    tot
  1  0.003  0.015  0.006  0.063  0.789  0.006  0.022  0.052  0.000  0.957
 
band   3 # energy    5.26537215 # occ.  1.00000000
 
ion      s     py     pz     px    dxy    dyz    dz2    dxz    dx2    tot
  1  0.046  0.015  0.038  0.000  0.037  0.233  0.505  0.008  0.033  0.915
 
band   4 # energy    7.81655470 # occ.  0.00000000
 
ion      s     py     pz     px    dxy    dyz    dz2    dxz    dx2    tot
  1  0.004  0.021  0.027  0.017  0.016  0.137  0.077  0.258  0.381  0.937
 
band   5 # energy    9.14839355 # occ.  0.00000000
 
ion      s     py     pz     px    dxy    dyz    dz2    dxz    dx2    tot
  1  0.007  0.012  0.046  0.039  0.066  0.040  0.098  0.515  0.106  0.928
 
band   6 # energy   11.30958656 # occ.  0.00000000
 
ion      s     py     pz     px    dxy    dyz    dz2    dxz    dx2    tot
  1  0.022  0.022  0.029  0.000  0.001  0.421  0.040  0.009  0.422  0.967
 
band   7 # energy   18.27801266 # occ.  0.00000000
 
ion      s     py     pz     px    dxy    dyz    dz2    dxz    dx2    tot
  1  0.299  0.168  0.087  0.044  0.013  0.125  0.011  0.043  0.026  0.816
 
band   8 # energy   19.04113251 # occ.  0.00000000
 
ion      s     py     pz     px    dxy    dyz    dz2    dxz    dx2    tot
  1 43.783  0.002  0.000  0.001  0.000  0.002  0.000  0.001  0.000 43.791
 
band   9 # energy   21.53354732 # occ.  0.00000000
 
ion      s     py     pz     px    dxy    dyz    dz2    dxz    dx2    tot
  1  0.000  0.042  0.000  0.452  0.075  0.016  0.021  0.205  0.016  0.828
 

 k-point    9 :   -0.41666667 0.25000000 0.08333333     weight = 0.05555556

band   1 # energy    2.48391848 # occ.  1.00000000
 
ion      s     py     pz     px    dxy    dyz    dz2    dxz    dx2    tot
  1  0.230  0.000  0.067  0.023  0.332  0.156  0.050  0.087  0.000  0.946
 
band   2 # energy    3.95729879 # occ.  1.00000000
 
ion      s     py     pz     px    dxy    dyz    dz2    dxz    dx2    tot
  1  0.001  0.116  0.008  0.063  0.006  0.045  0.542  0.013  0.060  0.853
 
band   3 # energy    5.31251362 # occ.  1.00000050
 
ion      s     py     pz     px    dxy    dyz    dz2    dxz    dx2    tot
  1  0.014  0.036  0.162  0.088  0.338  0.258  0.020  0.011  0.010  0.935
 
band   4 # energy    7.23949165 # occ.  0.00000000
 
ion      s     py     pz     px    dxy    dyz    dz2    dxz    dx2    tot
  1  0.001  0.008  0.023  0.018  0.006  0.030  0.068  0.205  0.571  0.930
 
band   5 # energy   10.81694918 # occ.  0.00000000
 
ion      s     py     pz     px    dxy    dyz    dz2    dxz    dx2    tot
  1  0.033  0.003  0.006  0.002  0.073  0.173  0.028  0.437  0.181  0.936
 
band   6 # energy   13.15511756 # occ.  0.00000000
 
ion      s     py     pz     px    dxy    dyz    dz2    dxz    dx2    tot
  1  0.002  0.057  0.179  0.118  0.135  0.191  0.167  0.001  0.060  0.911
 
band   7 # energy   14.33660074 # occ.  0.00000000
 
ion      s     py     pz     px    dxy    dyz    dz2    dxz    dx2    tot
  1  0.499  0.003  0.000  0.005  0.056  0.114  0.020  0.201  0.024  0.922
 
band   8 # energy   19.03315462 # occ.  0.00000000
 
ion      s     py     pz     px    dxy    dyz    dz2    dxz    dx2    tot
  1 43.903  0.000  0.000  0.000  0.000  0.000  0.000  0.000  0.000 43.904
 
band   9 # energy   20.43352936 # occ.  0.00000000
 
ion      s     py     pz     px    dxy    dyz    dz2    dxz    dx2    tot
  1  0.032  0.014  0.127  0.000  0.009  0.065  0.200  0.014  0.005  0.466
 

 k-point   10 :   -0.25000000 0.25000000 0.08333333     weight = 0.05555556

band   1 # energy    2.16760449 # occ.  1.00000000
 
ion      s     py     pz     px    dxy    dyz    dz2    dxz    dx2    tot
  1  0.381  0.066  0.002  0.146  0.187  0.052  0.016  0.026  0.025  0.902
 
band   2 # energy    4.29598813 # occ.  1.00000000
 
ion      s     py     pz     px    dxy    dyz    dz2    dxz    dx2    tot
  1  0.004  0.054  0.124  0.027  0.019  0.408  0.120  0.118  0.037  0.911
 
band   3 # energy    4.72180229 # occ.  1.00000000
 
ion      s     py     pz     px    dxy    dyz    dz2    dxz    dx2    tot
  1  0.016  0.016  0.026  0.001  0.239  0.170  0.361  0.025  0.070  0.923
 
band   4 # energy    7.36731377 # occ.  0.00000000
 
ion      s     py     pz     px    dxy    dyz    dz2    dxz    dx2    tot
  1  0.001  0.002  0.002  0.048  0.013  0.033  0.078  0.110  0.643  0.929
 
band   5 # energy    9.16607967 # occ.  0.00000000
 
ion      s     py     pz     px    dxy    dyz    dz2    dxz    dx2    tot
  1  0.000  0.000  0.017  0.015  0.000  0.211  0.006  0.558  0.121  0.928
 
band   6 # energy   12.39117728 # occ.  0.00000000
 
ion      s     py     pz     px    dxy    dyz    dz2    dxz    dx2    tot
  1  0.107  0.020  0.003  0.042  0.511  0.002  0.294  0.001  0.000  0.979
 
band   7 # energy   16.93756133 # occ.  0.00000000
 
ion      s     py     pz     px    dxy    dyz    dz2    dxz    dx2    tot
  1  0.228  0.136  0.029  0.118  0.043  0.025  0.121  0.039  0.002  0.741
 
band   8 # energy   19.03604793 # occ.  0.00000000
 
ion      s     py     pz     px    dxy    dyz    dz2    dxz    dx2    tot
  1 43.988  0.000  0.000  0.000  0.000  0.000  0.000  0.000  0.000 43.989
 
band   9 # energy   20.78638361 # occ.  0.00000000
 
ion      s     py     pz     px    dxy    dyz    dz2    dxz    dx2    tot
  1  0.008  0.020  0.486  0.005  0.002  0.176  0.032  0.221  0.000  0.950
 

 k-point   11 :   -0.08333333 0.25000000 0.08333333     weight = 0.05555556

band   1 # energy    0.20996555 # occ.  1.00000000
 
ion      s     py     pz     px    dxy    dyz    dz2    dxz    dx2    tot
  1  0.617  0.039  0.003  0.123  0.044  0.008  0.008  0.008  0.011  0.861
 
band   2 # energy    4.43446692 # occ.  1.00000000
 
ion      s     py     pz     px    dxy    dyz    dz2    dxz    dx2    tot
  1  0.002  0.011  0.060  0.007  0.013  0.700  0.001  0.157  0.002  0.953
 
band   3 # energy    6.00558075 # occ.  0.00000000
 
ion      s     py     pz     px    dxy    dyz    dz2    dxz    dx2    tot
  1  0.004  0.024  0.000  0.001  0.367  0.037  0.314  0.004  0.184  0.935
 
band   4 # energy    7.10539938 # occ.  0.00000000
 
ion      s     py     pz     px    dxy    dyz    dz2    dxz    dx2    tot
  1  0.001  0.006  0.011  0.006  0.100  0.085  0.045  0.429  0.269  0.952
 
band   5 # energy    8.10080964 # occ.  0.00000000
 
ion      s     py     pz     px    dxy    dyz    dz2    dxz    dx2    tot
  1  0.005  0.003  0.008  0.025  0.073  0.102  0.001  0.293  0.429  0.939
 
band   6 # energy   10.21740851 # occ.  0.00000000
 
ion      s     py     pz     px    dxy    dyz    dz2    dxz    dx2    tot
  1  0.009  0.016  0.000  0.012  0.311  0.001  0.566  0.010  0.032  0.957
 
band   7 # energy   18.97716220 # occ.  0.00000000
 
ion      s     py     pz     px    dxy    dyz    dz2    dxz    dx2    tot
  1 22.927  0.029  0.009  0.018  0.038  0.001  0.022  0.006  0.004 23.054
 
band   8 # energy   19.09995515 # occ.  0.00000000
 
ion      s     py     pz     px    dxy    dyz    dz2    dxz    dx2    tot
  1 20.990  0.034  0.011  0.019  0.048  0.001  0.029  0.007  0.006 21.145
 
band   9 # energy   22.18642560 # occ.  0.00000000
 
ion      s     py     pz     px    dxy    dyz    dz2    dxz    dx2    tot
  1  0.076  0.049  0.045  0.041  0.041  0.160  0.002  0.092  0.005  0.511
 

 k-point   12 :    0.41666667 0.41666667 0.08333333     weight = 0.02777778

band   1 # energy    1.55930571 # occ.  1.00000000
 
ion      s     py     pz     px    dxy    dyz    dz2    dxz    dx2    tot
  1  0.224  0.004  0.080  0.004  0.005  0.001  0.554  0.001  0.000  0.873
 
band   2 # energy    2.85445511 # occ.  1.00000000
 
ion      s     py     pz     px    dxy    dyz    dz2    dxz    dx2    tot
  1  0.000  0.007  0.000  0.007  0.965  0.002  0.004  0.002  0.000  0.987
 
band   3 # energy    6.36989780 # occ.  0.00000000
 
ion      s     py     pz     px    dxy    dyz    dz2    dxz    dx2    tot
  1  0.146  0.001  0.399  0.001  0.002  0.058  0.244  0.058  0.000  0.909
 
band   4 # energy    9.53093209 # occ.  0.00000000
 
ion      s     py     pz     px    dxy    dyz    dz2    dxz    dx2    tot
  1  0.000  0.035  0.000  0.035  0.000  0.253  0.000  0.253  0.354  0.931
 
band   5 # energy   10.57100799 # occ.  0.00000000
 
ion      s     py     pz     px    dxy    dyz    dz2    dxz    dx2    tot
  1  0.011  0.045  0.073  0.045  0.007  0.355  0.032  0.355  0.000  0.924
 
band   6 # energy   11.18531248 # occ.  0.00000000
 
ion      s     py     pz     px    dxy    dyz    dz2    dxz    dx2    tot
  1  0.000  0.005  0.000  0.005  0.000  0.178  0.000  0.178  0.599  0.965
 
band   7 # energy   17.73621584 # occ.  0.00000000
 
ion      s     py     pz     px    dxy    dyz    dz2    dxz    dx2    tot
  1  0.148  0.185  0.062  0.185  0.009  0.078  0.008  0.078  0.000  0.753
 
band   8 # energy   19.03183202 # occ.  0.00000000
 
ion      s     py     pz     px    dxy    dyz    dz2    dxz    dx2    tot
  1 43.521  0.002  0.000  0.002  0.000  0.001  0.000  0.001  0.000 43.527
 
band   9 # energy   19.12273819 # occ.  0.00000000
 
ion      s     py     pz     px    dxy    dyz    dz2    dxz    dx2    tot
  1  0.000  0.292  0.000  0.292  0.000  0.084  0.000  0.084  0.022  0.775
 

 k-point   13 :   -0.41666667 0.41666667 0.08333333     weight = 0.05555556

band   1 # energy    2.04846890 # occ.  1.00000000
 
ion      s     py     pz     px    dxy    dyz    dz2    dxz    dx2    tot
  1  0.092  0.035  0.008  0.001  0.033  0.001  0.699  0.000  0.004  0.873
 
band   2 # energy    2.98600029 # occ.  1.00000000
 
ion      s     py     pz     px    dxy    dyz    dz2    dxz    dx2    tot
  1  0.000  0.013  0.000  0.061  0.880  0.001  0.021  0.002  0.000  0.978
 
band   3 # energy    6.39366754 # occ.  0.00000000
 
ion      s     py     pz     px    dxy    dyz    dz2    dxz    dx2    tot
  1  0.033  0.001  0.452  0.000  0.003  0.369  0.018  0.029  0.008  0.913
 
band   4 # energy    9.33563396 # occ.  0.00000000
 
ion      s     py     pz     px    dxy    dyz    dz2    dxz    dx2    tot
  1  0.031  0.054  0.025  0.007  0.000  0.001  0.007  0.022  0.763  0.910
 
band   5 # energy   11.48123024 # occ.  0.00000000
 
ion      s     py     pz     px    dxy    dyz    dz2    dxz    dx2    tot
  1  0.010  0.001  0.001  0.016  0.006  0.123  0.000  0.774  0.021  0.953
 
band   6 # energy   13.59764390 # occ.  0.00000000
 
ion      s     py     pz     px    dxy    dyz    dz2    dxz    dx2    tot
  1  0.025  0.007  0.306  0.014  0.003  0.488  0.024  0.094  0.007  0.968
 
band   7 # energy   14.65900738 # occ.  0.00000000
 
ion      s     py     pz     px    dxy    dyz    dz2    dxz    dx2    tot
  1  0.413  0.089  0.017  0.134  0.033  0.002  0.016  0.028  0.088  0.821
 
band   8 # energy   17.60741768 # occ.  0.00000000
 
ion      s     py     pz     px    dxy    dyz    dz2    dxz    dx2    tot
  1  0.069  0.026  0.022  0.496  0.039  0.002  0.047  0.032  0.071  0.805
 
band   9 # energy   19.03012193 # occ.  0.00000000
 
ion      s     py     pz     px    dxy    dyz    dz2    dxz    dx2    tot
  1 43.240  0.005  0.000  0.001  0.000  0.000  0.002  0.000  0.002 43.250
 

 k-point   14 :   -0.25000000 0.41666667 0.08333333     weight = 0.05555556

band   1 # energy    3.08729815 # occ.  1.00000000
 
ion      s     py     pz     px    dxy    dyz    dz2    dxz    dx2    tot
  1  0.110  0.005  0.016  0.017  0.421  0.022  0.320  0.012  0.006  0.929
 
band   2 # energy    3.57452676 # occ.  1.00000000
 
ion      s     py     pz     px    dxy    dyz    dz2    dxz    dx2    tot
  1  0.035  0.130  0.002  0.124  0.169  0.027  0.332  0.010  0.043  0.872
 
band   3 # energy    5.06819779 # occ.  1.00000000
 
ion      s     py     pz     px    dxy    dyz    dz2    dxz    dx2    tot
  1  0.001  0.008  0.261  0.019  0.079  0.466  0.002  0.093  0.001  0.932
 
band   4 # energy    7.88440787 # occ.  0.00000000
 
ion      s     py     pz     px    dxy    dyz    dz2    dxz    dx2    tot
  1  0.024  0.008  0.007  0.040  0.006  0.005  0.044  0.049  0.730  0.913
 
band   5 # energy   10.46693297 # occ.  0.00000000
 
ion      s     py     pz     px    dxy    dyz    dz2    dxz    dx2    tot
  1  0.022  0.000  0.009  0.000  0.018  0.242  0.002  0.606  0.035  0.935
 
band   6 # energy   12.78735492 # occ.  0.00000000
 
ion      s     py     pz     px    dxy    dyz    dz2    dxz    dx2    tot
  1  0.426  0.018  0.017  0.082  0.240  0.001  0.014  0.023  0.050  0.870
 
band   7 # energy   15.95677234 # occ.  0.00000000
 
ion      s     py     pz     px    dxy    dyz    dz2    dxz    dx2    tot
  1  0.105  0.037  0.252  0.074  0.013  0.179  0.153  0.144  0.002  0.960
 
band   8 # energy   18.72974705 # occ.  0.00000000
 
ion      s     py     pz     px    dxy    dyz    dz2    dxz    dx2    tot
  1  0.912  0.051  0.240  0.135  0.025  0.093  0.223  0.081  0.008  1.769
 
band   9 # energy   19.04287767 # occ.  0.00000000
 
ion      s     py     pz     px    dxy    dyz    dz2    dxz    dx2    tot
  1 43.132  0.002  0.006  0.004  0.000  0.002  0.009  0.002  0.000 43.157
 

 k-point   15 :   -0.08333333 0.41666667 0.08333333     weight = 0.05555556

band   1 # energy    1.66196490 # occ.  1.00000000
 
ion      s     py     pz     px    dxy    dyz    dz2    dxz    dx2    tot
  1  0.347  0.012  0.003  0.067  0.186  0.189  0.003  0.122  0.008  0.938
 
band   2 # energy    4.74024478 # occ.  1.00000000
 
ion      s     py     pz     px    dxy    dyz    dz2    dxz    dx2    tot
  1  0.005  0.129  0.082  0.061  0.068  0.017  0.309  0.027  0.154  0.853
 
band   3 # energy    5.48298128 # occ.  0.80964941
 
ion      s     py     pz     px    dxy    dyz    dz2    dxz    dx2    tot
  1  0.025  0.029  0.098  0.074  0.160  0.396  0.118  0.016  0.030  0.946
 
band   4 # energy    6.55730969 # occ.  0.00000000
 
ion      s     py     pz     px    dxy    dyz    dz2    dxz    dx2    tot
  1  0.000  0.004  0.004  0.016  0.047  0.049  0.146  0.244  0.440  0.948
 
band   5 # energy   10.38530390 # occ.  0.00000000
 
ion      s     py     pz     px    dxy    dyz    dz2    dxz    dx2    tot
  1  0.000  0.002  0.013  0.034  0.005  0.176  0.012  0.410  0.281  0.933
 
band   6 # energy   11.98783156 # occ.  0.00000000
 
ion      s     py     pz     px    dxy    dyz    dz2    dxz    dx2    tot
  1  0.032  0.027  0.021  0.053  0.442  0.033  0.339  0.012  0.002  0.961
 
band   7 # energy   15.64528828 # occ.  0.00000000
 
ion      s     py     pz     px    dxy    dyz    dz2    dxz    dx2    tot
  1  0.371  0.045  0.033  0.042  0.105  0.085  0.026  0.135  0.001  0.842
 
band   8 # energy   19.03404080 # occ.  0.00000000
 
ion      s     py     pz     px    dxy    dyz    dz2    dxz    dx2    tot
  1 43.857  0.000  0.000  0.000  0.000  0.000  0.000  0.000  0.000 43.858
 
band   9 # energy   19.47238805 # occ.  0.00000000
 
ion      s     py     pz     px    dxy    dyz    dz2    dxz    dx2    tot
  1  0.140  0.012  0.013  0.042  0.008  0.042  0.028  0.009  0.022  0.314
 

 k-point   16 :   -0.41666667-0.41666667 0.08333333     weight = 0.02777778

band   1 # energy    1.50404128 # occ.  1.00000000
 
ion      s     py     pz     px    dxy    dyz    dz2    dxz    dx2    tot
  1  0.123  0.004  0.008  0.004  0.004  0.000  0.733  0.000  0.000  0.876
 
band   2 # energy    2.51792167 # occ.  1.00000000
 
ion      s     py     pz     px    dxy    dyz    dz2    dxz    dx2    tot
  1  0.000  0.007  0.000  0.007  0.980  0.000  0.003  0.000  0.000  0.997
 
band   3 # energy    7.61909667 # occ.  0.00000000
 
ion      s     py     pz     px    dxy    dyz    dz2    dxz    dx2    tot
  1  0.037  0.000  0.684  0.000  0.000  0.075  0.028  0.075  0.000  0.900
 
band   4 # energy   10.58383188 # occ.  0.00000000
 
ion      s     py     pz     px    dxy    dyz    dz2    dxz    dx2    tot
  1  0.000  0.020  0.000  0.020  0.000  0.061  0.000  0.061  0.780  0.943
 
band   5 # energy   11.67801836 # occ.  0.00000000
 
ion      s     py     pz     px    dxy    dyz    dz2    dxz    dx2    tot
  1  0.000  0.002  0.000  0.002  0.000  0.408  0.000  0.408  0.146  0.966
 
band   6 # energy   12.18611025 # occ.  0.00000000
 
ion      s     py     pz     px    dxy    dyz    dz2    dxz    dx2    tot
  1  0.002  0.017  0.134  0.017  0.001  0.388  0.007  0.388  0.000  0.955
 