<?xml version="1.0" encoding="ISO-8859-1"?>
<modeling>
 <generator>
  <i name="program" type="string">vasp </i>
  <i name="version" type="string">5.2.12  </i>
  <i name="subversion" type="string">11Nov11 complex                                                      parallel </i>
  <i name="platform" type="string">LinuxIFC </i>
  <i name="date" type="string">2012 10 17 </i>
  <i name="time" type="string">11:06:58 </i>
 </generator>
 <incar>
  <i type="int" name="ISTART">     0</i>
  <i type="string" name="PREC">accurate</i>
  <i type="int" name="ISPIN">     2</i>
  <i name="ENCUT">    200.00000000</i>
  <v name="MAGMOM">      6.00000000</v>
  <i type="logical" name="LREAL"> F  </i>
  <i type="int" name="ISMEAR">     1</i>
  <i name="SIGMA">      0.05000000</i>
  <i type="logical" name="LORBIT"> F  </i>
 </incar>
 <kpoints>
  <generation param="Monkhorst-Pack">
   <v type="int" name="divisions">       6        6        6 </v>
   <v name="usershift">      0.00000000       0.00000000       0.00000000 </v>
   <v name="genvec1">      0.16666667       0.00000000       0.00000000 </v>
   <v name="genvec2">      0.00000000       0.16666667       0.00000000 </v>
   <v name="genvec3">      0.00000000       0.00000000       0.16666667 </v>
   <v name="shift">      0.50000000       0.50000000       0.50000000 </v>
  </generation>
  <varray name="kpointlist" >
   <v>       0.08333333       0.08333333       0.08333333 </v>
   <v>       0.25000000       0.08333333       0.08333333 </v>
   <v>       0.41666667       0.08333333       0.08333333 </v>
   <v>      -0.41666667       0.08333333       0.08333333 </v>
   <v>      -0.25000000       0.08333333       0.08333333 </v>
   <v>      -0.08333333       0.08333333       0.08333333 </v>
   <v>       0.25000000       0.25000000       0.08333333 </v>
   <v>       0.41666667       0.25000000       0.08333333 </v>
   <v>      -0.41666667       0.25000000       0.08333333 </v>
   <v>      -0.25000000       0.25000000       0.08333333 </v>
   <v>      -0.08333333       0.25000000       0.08333333 </v>
   <v>       0.41666667       0.41666667       0.08333333 </v>
   <v>      -0.41666667       0.41666667       0.08333333 </v>
   <v>      -0.25000000       0.41666667       0.08333333 </v>
   <v>      -0.08333333       0.41666667       0.08333333 </v>
   <v>      -0.41666667      -0.41666667       0.08333333 </v>
   <v>      -0.25000000      -0.41666667       0.08333333 </v>
   <v>      -0.25000000      -0.25000000       0.08333333 </v>
   <v>       0.25000000       0.25000000       0.25000000 </v>
   <v>       0.41666667       0.25000000       0.25000000 </v>
   <v>      -0.41666667       0.25000000       0.25000000 </v>
   <v>      -0.25000000       0.25000000       0.25000000 </v>
   <v>       0.41666667       0.41666667       0.25000000 </v>
   <v>      -0.41666667       0.41666667       0.25000000 </v>
   <v>      -0.25000000       0.41666667       0.25000000 </v>
   <v>      -0.41666667      -0.41666667       0.25000000 </v>
   <v>       0.41666667       0.41666667       0.41666667 </v>
   <v>      -0.41666667       0.41666667       0.41666667 </v>
  </varray>
  <varray name="weights" >
   <v>       0.00925926 </v>
   <v>       0.02777778 </v>
   <v>       0.02777778 </v>
   <v>       0.02777778 </v>
   <v>       0.02777778 </v>
   <v>       0.02777778 </v>
   <v>       0.02777778 </v>
   <v>       0.05555556 </v>
   <v>       0.05555556 </v>
   <v>       0.05555556 </v>
   <v>       0.05555556 </v>
   <v>       0.02777778 </v>
   <v>       0.05555556 </v>
   <v>       0.05555556 </v>
   <v>       0.05555556 </v>
   <v>       0.02777778 </v>
   <v>       0.05555556 </v>
   <v>       0.02777778 </v>
   <v>       0.00925926 </v>
   <v>       0.02777778 </v>
   <v>       0.02777778 </v>
   <v>       0.02777778 </v>
   <v>       0.02777778 </v>
   <v>       0.05555556 </v>
   <v>       0.05555556 </v>
   <v>       0.02777778 </v>
   <v>       0.00925926 </v>
   <v>       0.02777778 </v>
  </varray>
 </kpoints>
 <parameters>
  <separator name="general" >
   <i type="string" name="SYSTEM">unknown system</i>
   <i type="logical" name="LCOMPAT"> F  </i>
  </separator>
  <separator name="electronic" >
   <i type="string" name="PREC">accura</i>
   <i name="ENMAX">    200.00000000</i>
   <i name="ENAUG">    332.07500000</i>
   <i name="EDIFF">      0.00010000</i>
   <i type="int" name="IALGO">    38</i>
   <i type="int" name="IWAVPR">    10</i>
   <i type="int" name="NBANDS">     9</i>
   <i name="NELECT">      5.00000000</i>
   <i type="int" name="TURBO">     0</i>
   <i type="int" name="IRESTART">     0</i>
   <i type="int" name="NREBOOT">     0</i>
   <i type="int" name="NMIN">     0</i>
   <i name="EREF">      0.00000000</i>
   <separator name="electronic smearing" >
    <i type="int" name="ISMEAR">     1</i>
    <i name="SIGMA">      0.05000000</i>
    <i name="KSPACING">      0.50000000</i>
    <i type="logical" name="KGAMMA"> T  </i>
   </separator>
   <separator name="electronic projectors" >
    <i type="logical" name="LREAL"> F  </i>
    <v name="ROPT">      0.00000000</v>
    <i type="int" name="LMAXPAW">  -100</i>
    <i type="int" name="LMAXMIX">     2</i>
    <i type="logical" name="NLSPLINE"> F  </i>
   </separator>
   <separator name="electronic startup" >
    <i type="int" name="ISTART">     0</i>
    <i type="int" name="ICHARG">     2</i>
    <i type="int" name="INIWAV">     1</i>
   </separator>
   <separator name="electronic spin" >
    <i type="int" name="ISPIN">     2</i>
    <i type="logical" name="LNONCOLLINEAR"> F  </i>
    <v name="MAGMOM">      6.00000000</v>
    <i name="NUPDOWN">     -1.00000000</i>
    <i type="logical" name="LSORBIT"> F  </i>
    <v name="SAXIS">      0.00000000      0.00000000      1.00000000</v>
    <i type="logical" name="LSPIRAL"> F  </i>
    <v name="QSPIRAL">      0.00000000      0.00000000      0.00000000</v>
    <i type="logical" name="LZEROZ"> F  </i>
   </separator>
   <separator name="electronic exchange-correlation" >
    <i type="logical" name="LASPH"> F  </i>
    <i type="logical" name="LMETAGGA"> F  </i>
   </separator>
   <separator name="electronic convergence" >
    <i type="int" name="NELM">    60</i>
    <i type="int" name="NELMDL">    -5</i>
    <i type="int" name="NELMIN">     2</i>
    <i name="ENINI">    200.00000000</i>
    <separator name="electronic convergence detail" >
     <i type="logical" name="LDIAG"> T  </i>
     <i type="logical" name="LSUBROT"> T  </i>
     <i name="WEIMIN">      0.00000000</i>
     <i name="EBREAK">      0.00000278</i>
     <i name="DEPER">      0.30000000</i>
     <i type="int" name="NRMM">     4</i>
     <i name="TIME">      0.40000000</i>
    </separator>
   </separator>
   <separator name="electronic mixer" >
    <i name="AMIX">      0.40000000</i>
    <i name="BMIX">      1.00000000</i>
    <i name="AMIN">      0.10000000</i>
    <i name="AMIX_MAG">      1.60000000</i>
    <i name="BMIX_MAG">      1.00000000</i>
    <separator name="electronic mixer details" >
     <i type="int" name="IMIX">     4</i>
     <i type="int" name="MAXMIX">   -45</i>
     <i name="WC">    100.00000000</i>
     <i type="int" name="INIMIX">     1</i>
     <i type="int" name="MIXPRE">     1</i>
     <i type="int" name="MREMOVE">     5</i>
    </separator>
   </separator>
   <separator name="electronic dipolcorrection" >
    <i type="logical" name="LDIPOL"> F  </i>
    <i type="logical" name="LMONO"> F  </i>
    <i type="int" name="IDIPOL">     0</i>
    <i name="EPSILON">      1.00000000</i>
    <v name="DIPOL">   -100.00000000   -100.00000000   -100.00000000</v>
    <i name="EFIELD">      0.00000000</i>
   </separator>
  </separator>
  <separator name="grids" >
   <i type="int" name="NGX">    14</i>
   <i type="int" name="NGY">    14</i>
   <i type="int" name="NGZ">    14</i>
   <i type="int" name="NGXF">    28</i>
   <i type="int" name="NGYF">    28</i>
   <i type="int" name="NGZF">    28</i>
   <i type="logical" name="ADDGRID"> F  </i>
  </separator>
  <separator name="ionic" >
   <i type="int" name="NSW">     0</i>
   <i type="int" name="IBRION">    -1</i>
   <i type="int" name="ISIF">     2</i>
   <i name="PSTRESS">      0.00000000</i>
   <i name="EDIFFG">      0.00100000</i>
   <i type="int" name="NFREE">     0</i>
   <i name="POTIM">      0.50000000</i>
   <i name="SMASS">     -3.00000000</i>
   <i name="SCALEE">      1.00000000</i>
  </separator>
  <separator name="ionic md" >
   <i name="TEBEG">      0.00010000</i>
   <i name="TEEND">      0.00010000</i>
   <i type="int" name="NBLOCK">     1</i>
   <i type="int" name="KBLOCK">     1</i>
   <i type="int" name="NPACO">   256</i>
   <i name="APACO">     16.00000000</i>
  </separator>
  <separator name="symmetry" >
   <i type="int" name="ISYM">     2</i>
   <i name="SYMPREC">      0.00001000</i>
  </separator>
  <separator name="dos" >
   <i type="logical" name="LORBIT"> F  </i>
   <v name="RWIGS">     -1.00000000</v>
   <i type="int" name="NEDOS">   301</i>
   <i name="EMIN">     10.00000000</i>
   <i name="EMAX">    -10.00000000</i>
   <i name="EFERMI">      0.00000000</i>
  </separator>
  <separator name="writing" >
   <i type="int" name="NWRITE">     2</i>
   <i type="logical" name="LWAVE"> T  </i>
   <i type="logical" name="LCHARG"> T  </i>
   <i type="logical" name="LPARD"> F  </i>
   <i type="logical" name="LVTOT"> F  </i>
   <i type="logical" name="LVHAR"> F  </i>
   <i type="logical" name="LELF"> F  </i>
   <i type="logical" name="LOPTICS"> F  </i>
   <v name="STM">      0.00000000      0.00000000      0.00000000      0.00000000      0.00000000      0.00000000      0.00000000</v>
  </separator>
  <separator name="performance" >
   <i type="int" name="NPAR">     1</i>
   <i type="int" name="NSIM">     4</i>
   <i type="int" name="NBLK">    -1</i>
   <i type="logical" name="LPLANE"> T  </i>
   <i type="logical" name="LSCALAPACK"> F  </i>
   <i type="logical" name="LSCAAWARE"> F  </i>
   <i type="logical" name="LSCALU"> F  </i>
   <i type="logical" name="LASYNC"> F  </i>
   <i type="logical" name="LORBITALREAL"> F  </i>
  </separator>
  <separator name="miscellaneous" >
   <i type="int" name="IDIOT">     3</i>
   <i type="logical" name="LMUSIC"> F  </i>
   <v name="POMASS">    180.94800000</v>
   <v name="DARWINR">      0.00000000</v>
   <v name="DARWINV">      1.00000000</v>
   <i type="logical" name="LCORR"> T  </i>
  </separator>
  <i type="logical" name="GGA_COMPAT"> T  </i>
  <i type="logical" name="LBERRY"> F  </i>
  <i type="int" name="ICORELEVEL">     0</i>
  <i type="logical" name="LDAU"> F  </i>
  <i type="int" name="I_CONSTRAINED_M">     0</i>
  <separator name="electronic exchange-correlation" >
   <i type="string" name="GGA">--</i>
   <i type="int" name="VOSKOWN">     0</i>
   <i type="logical" name="LHFCALC"> F  </i>
   <i type="string" name="PRECFOCK"></i>
   <i type="logical" name="LHFONE"> F  </i>
   <i type="logical" name="LRHFCALC"> F  </i>
   <i type="logical" name="LTHOMAS"> F  </i>
   <i type="logical" name="LMODELHF"> F  </i>
   <i name="ENCUT4O">     -1.00000000</i>
   <i type="int" name="EXXOEP">     0</i>
   <i type="int" name="FOURORBIT">     0</i>
   <i name="AEXX">      0.00000000</i>
   <i name="HFALPHA">      0.00000000</i>
   <i name="ALDAX">      1.00000000</i>
   <i name="AGGAX">      1.00000000</i>
   <i name="ALDAC">      1.00000000</i>
   <i name="AGGAC">      1.00000000</i>
   <i type="int" name="NKREDX">     1</i>
   <i type="int" name="NKREDY">     1</i>
   <i type="int" name="NKREDZ">     1</i>
   <i type="logical" name="SHIFTRED"> F  </i>
   <i type="logical" name="ODDONLY"> F  </i>
   <i type="logical" name="EVENONLY"> F  </i>
   <i type="int" name="LMAXFOCK">     0</i>
   <i type="int" name="NMAXFOCKAE">     0</i>
   <i type="logical" name="LFOCKAEDFT"> F  </i>
   <i name="HFSCREEN">      0.00000000</i>
   <i name="HFSCREENC">      0.00000000</i>
  </separator>
  <separator name="vdW DFT" >
   <i type="logical" name="LUSE_VDW"> F  </i>
   <i name="Zab_VDW">     -0.84910000</i>
   <i name="PARAM1">      0.12340000</i>
   <i name="PARAM2">      1.00000000</i>
   <i name="PARAM3">      0.00000000</i>
  </separator>
  <separator name="model GW" >
   <i type="int" name="MODEL_GW">     0</i>
   <i name="MODEL_EPS0">     11.51484375</i>
   <i name="MODEL_ALPHA">      1.00000000</i>
  </separator>
  <separator name="linear response parameters" >
   <i type="logical" name="LEPSILON"> F  </i>
   <i type="logical" name="LRPA"> F  </i>
   <i type="logical" name="LNABLA"> F  </i>
   <i type="logical" name="LVEL"> F  </i>
   <i type="int" name="KINTER">     0</i>
   <i name="CSHIFT">      0.10000000</i>
   <i name="OMEGAMAX">     -1.00000000</i>
  </separator>
  <separator name="orbital magnetization" >
   <i type="logical" name="NUCIND"> F  </i>
   <v name="MAGPOS">      0.00000000      0.00000000      0.00000000</v>
   <i type="logical" name="LNICSALL"> T  </i>
   <i type="logical" name="ORBITALMAG"> F  </i>
   <i type="logical" name="LMAGBLOCH"> F  </i>
   <i type="logical" name="LCHIMAG"> F  </i>
   <i type="logical" name="LGAUGE"> T  </i>
   <i type="int" name="MAGATOM">     0</i>
   <v name="MAGDIPOL">      0.00000000      0.00000000      0.00000000</v>
   <v name="AVECCONST">      0.00000000      0.00000000      0.00000000</v>
  </separator>
  <separator name="response functions" >
   <i type="logical" name="LADDER"> F  </i>
   <i type="logical" name="LHARTREE"> T  </i>
   <i type="int" name="IBSE">     0</i>
   <i type="logical" name="LTCTE"> F  </i>
   <i type="logical" name="LTETE"> F  </i>
   <i type="logical" name="LFXCEPS"> F  </i>
   <i type="logical" name="L2ORDER"> F  </i>
   <i type="logical" name="LUSEW"> F  </i>
   <i name="ENCUTGW">     -2.00000000</i>
   <i name="ENCUTGWSOFT">     -2.00000000</i>
   <i name="ENCUTLF">     -1.00000000</i>
   <i type="int" name="LMAXMP2">    -1</i>
   <i name="SCISSOR">      0.00000000</i>
   <i type="int" name="NOMEGA">     0</i>
   <i type="int" name="NOMEGAR">     0</i>
   <i type="int" name="NBANDSGW">    -1</i>
   <i type="int" name="NBANDSO">    -1</i>
   <i type="int" name="NBANDSV">    -1</i>
   <i name="OPTEMAX">      0.00000000</i>
   <i type="int" name="NELM">     1</i>
   <i type="int" name="DIM">     3</i>
   <i type="int" name="ANTIRES">     0</i>
   <i name="OMEGAMAX">    -30.00000000</i>
   <i name="OMEGATL">   -200.00000000</i>
   <i type="int" name="OMEGAGRID">     0</i>
   <i name="CSHIFT">     -0.10000000</i>
   <i type="logical" name="SELFENERGY"> F  </i>
   <i type="logical" name="LSPECTRAL"> F  </i>
   <i type="logical" name="ODDONLYGW"> F  </i>
   <i type="logical" name="EVENONLYGW"> F  </i>
   <i type="int" name="NKREDLFX">     1</i>
   <i type="int" name="NKREDLFY">     1</i>
   <i type="int" name="NKREDLFZ">     1</i>
   <i type="int" name="MAXMEM">  1800</i>
   <i type="int" name="TELESCOPE">     0</i>
  </separator>
 </parameters>
 <atominfo>
  <atoms>       1 </atoms>
  <types>       1 </types>
  <array name="atoms" >
   <dimension dim="1">ion</dimension>
   <field type="string">element</field>
   <field type="int">atomtype</field>
   <set>
    <rc><c>Ta</c><c>   1</c></rc>
   </set>
  </array>
  <array name="atomtypes" >
   <dimension dim="1">type</dimension>
   <field type="int">atomspertype</field>
   <field type="string">element</field>
   <field>mass</field>
   <field>valence</field>
   <field type="string">pseudopotential</field>
   <set>
    <rc><c>   1</c><c>Ta</c><c>    180.94800000</c><c>      5.00000000</c><c>  PAW_PBE Ta 17Jan2003                  </c></rc>
   </set>
  </array>
 </atominfo>
 <structure name="initialpos" >
  <crystal>
   <varray name="basis" >
    <v>       0.00000000       2.12500000       2.12500000 </v>
    <v>       2.12500000       0.00000000       2.12500000 </v>
    <v>       2.12500000       2.12500000       0.00000000 </v>
   </varray>
   <i name="volume">     19.19140625 </i>
   <varray name="rec_basis" >
    <v>      -0.23529412       0.23529412       0.23529412 </v>
    <v>       0.23529412      -0.23529412       0.23529412 </v>
    <v>       0.23529412       0.23529412      -0.23529412 </v>
   </varray>
  </crystal>
  <varray name="positions" >
   <v>       0.00000000       0.00000000       0.00000000 </v>
  </varray>
 </structure>
 <calculation>
  <scstep>
   <time name="dav">    0.63    0.63</time>
   <time name="total">    0.72    0.73</time>
   <energy>
    <i name="alphaZ">     28.89562613 </i>
    <i name="ewald">   -194.17952367 </i>
    <i name="hartreedc">     -2.88472841 </i>
    <i name="XCdc">    -60.68594117 </i>
    <i name="pawpsdc">    143.51874798 </i>
    <i name="pawaedc">    -69.33493833 </i>
    <i name="eentropy">     -0.00082430 </i>
    <i name="bandstr">     26.59799830 </i>
    <i name="atom">    130.57950032 </i>
    <i name="e_fr_energy">      2.50591685 </i>
    <i name="e_wo_entrp">      2.50674115 </i>
    <i name="e_0_energy">      2.50619161 </i>
   </energy>
  </scstep>
  <scstep>
   <time name="dav">    0.60    0.60</time>
   <time name="total">    0.60    0.61</time>
   <energy>
    <i name="e_fr_energy">     -1.64293189 </i>
    <i name="e_wo_entrp">     -1.64262495 </i>
    <i name="e_0_energy">     -1.64282957 </i>
   </energy>
  </scstep>
  <scstep>
   <time name="dav">    0.65    0.65</time>
   <time name="total">    0.66    0.68</time>
   <energy>
    <i name="e_fr_energy">     -1.67111126 </i>
    <i name="e_wo_entrp">     -1.67068717 </i>
    <i name="e_0_energy">     -1.67096990 </i>
   </energy>
  </scstep>
  <scstep>
   <time name="dav">    0.62    0.62</time>
   <time name="total">    0.63    0.64</time>
   <energy>
    <i name="e_fr_energy">     -1.67114341 </i>
    <i name="e_wo_entrp">     -1.67071932 </i>
    <i name="e_0_energy">     -1.67100205 </i>
   </energy>
  </scstep>
  <scstep>
   <time name="dav">    0.64    0.64</time>
   <time name="total">    0.69    0.71</time>
   <energy>
    <i name="e_fr_energy">     -1.67114347 </i>
    <i name="e_wo_entrp">     -1.67071939 </i>
    <i name="e_0_energy">     -1.67100211 </i>
   </energy>
  </scstep>
  <scstep>
   <time name="dav">    0.56    0.56</time>
   <time name="total">    0.69    0.71</time>
   <energy>
    <i name="e_fr_energy">    -11.02704388 </i>
    <i name="e_wo_entrp">    -11.02733794 </i>
    <i name="e_0_energy">    -11.02714190 </i>
   </energy>
  </scstep>
  <scstep>
   <time name="dav">    0.61    0.61</time>
   <time name="total">    0.74    0.75</time>
   <energy>
    <i name="e_fr_energy">    -10.79345190 </i>
    <i name="e_wo_entrp">    -10.79340552 </i>
    <i name="e_0_energy">    -10.79343644 </i>
   </energy>
  </scstep>
  <scstep>
   <time name="dav">    0.56    0.56</time>
   <time name="total">    0.70    0.71</time>
   <energy>
    <i name="e_fr_energy">    -11.25764367 </i>
    <i name="e_wo_entrp">    -11.25743666 </i>
    <i name="e_0_energy">    -11.25757467 </i>
   </energy>
  </scstep>
  <scstep>
   <time name="dav">    0.57    0.57</time>
   <time name="total">    0.70    0.72</time>
   <energy>
    <i name="e_fr_energy">    -11.49891454 </i>
    <i name="e_wo_entrp">    -11.49899450 </i>
    <i name="e_0_energy">    -11.49894119 </i>
   </energy>
  </scstep>
  <scstep>
   <time name="dav">    0.68    0.68</time>
   <time name="total">    0.82    0.83</time>
   <energy>
    <i name="e_fr_energy">    -11.51887229 </i>
    <i name="e_wo_entrp">    -11.51865214 </i>
    <i name="e_0_energy">    -11.51879890 </i>
   </energy>
  </scstep>
  <scstep>
   <time name="dav">    0.58    0.58</time>
   <time name="total">    0.72    0.73</time>
   <energy>
    <i name="e_fr_energy">    -11.53320420 </i>
    <i name="e_wo_entrp">    -11.53295739 </i>
    <i name="e_0_energy">    -11.53312193 </i>
   </energy>
  </scstep>
  <scstep>
   <time name="dav">    0.58    0.58</time>
   <time name="total">    0.72    0.74</time>
   <energy>
    <i name="e_fr_energy">    -11.62139013 </i>
    <i name="e_wo_entrp">    -11.62142362 </i>
    <i name="e_0_energy">    -11.62140130 </i>
   </energy>
  </scstep>
  <scstep>
   <time name="dav">    0.63    0.63</time>
   <time name="total">    0.77    0.79</time>
   <energy>
    <i name="e_fr_energy">    -11.62343845 </i>
    <i name="e_wo_entrp">    -11.62286477 </i>
    <i name="e_0_energy">    -11.62324723 </i>
   </energy>
  </scstep>
  <scstep>
   <time name="dav">    0.59    0.59</time>
   <time name="total">    0.72    0.75</time>
   <energy>
    <i name="e_fr_energy">    -11.62308024 </i>
    <i name="e_wo_entrp">    -11.62278356 </i>
    <i name="e_0_energy">    -11.62298135 </i>
   </energy>
  </scstep>
  <scstep>
   <time name="dav">    0.50    0.50</time>
   <time name="total">    0.65    0.67</time>
   <energy>
    <i name="e_fr_energy">    -11.62331069 </i>
    <i name="e_wo_entrp">    -11.62300655 </i>
    <i name="e_0_energy">    -11.62320931 </i>
   </energy>
  </scstep>
  <scstep>
   <time name="dav">    0.57    0.57</time>
   <time name="total">    0.71    0.72</time>
   <energy>
    <i name="e_fr_energy">    -11.62349586 </i>
    <i name="e_wo_entrp">    -11.62292925 </i>
    <i name="e_0_energy">    -11.62330699 </i>
   </energy>
  </scstep>
  <scstep>
   <time name="dav">    0.35    0.35</time>
   <time name="total">    0.44    0.46</time>
   <energy>
    <i name="alphaZ">     28.89562613 </i>
    <i name="ewald">   -194.17952367 </i>
    <i name="hartreedc">     -0.73085046 </i>
    <i name="XCdc">    -66.05231502 </i>
    <i name="pawpsdc">    183.67618596 </i>
    <i name="pawaedc">   -110.23406563 </i>
    <i name="eentropy">     -0.00060019 </i>
    <i name="bandstr">     16.42252778 </i>
    <i name="atom">    130.57950032 </i>
    <i name="e_fr_energy">    -11.62351478 </i>
    <i name="e_wo_entrp">    -11.62291459 </i>
    <i name="e_0_energy">    -11.62331471 </i>
   </energy>
  </scstep>
  <parameters_embedded>
   <separator name="dft+d2" >
    <i type="logical" name="LVDW"> F  </i>
   </separator>
  </parameters_embedded>
  <structure>
   <crystal>
    <varray name="basis" >
     <v>       0.00000000       2.12500000       2.12500000 </v>
     <v>       2.12500000       0.00000000       2.12500000 </v>
     <v>       2.12500000       2.12500000       0.00000000 </v>
    </varray>
    <i name="volume">     19.19140625 </i>
    <varray name="rec_basis" >
     <v>      -0.23529412       0.23529412       0.23529412 </v>
     <v>       0.23529412      -0.23529412       0.23529412 </v>
     <v>       0.23529412       0.23529412      -0.23529412 </v>
    </varray>
   </crystal>
   <varray name="positions" >
    <v>       0.00000000       0.00000000       0.00000000 </v>
   </varray>
  </structure>
  <varray name="forces" >
   <v>       0.00000000       0.00000000       0.00000000 </v>
  </varray>
  <varray name="stress" >
   <v>     -81.29781070       0.00000000       0.00000000 </v>
   <v>       0.00000000     -81.29781070       0.00000000 </v>
   <v>       0.00000000       0.00000000     -81.29781070 </v>
  </varray>
  <energy>
   <i name="e_fr_energy">    -11.62351478 </i>
   <i name="e_wo_entrp">    -11.62331471 </i>
   <i name="e_0_energy">     -0.00060019 </i>
  </energy>
  <time name="totalsc">   12.27   14.10</time>
  <eigenvalues>
   <array>
    <dimension dim="1">band</dimension>
    <dimension dim="2">kpoint</dimension>
    <dimension dim="3">spin</dimension>
    <field>eigene</field>
    <field>occ</field>
    <set>
     <set comment="spin 1">
      <set comment="kpoint 1">
       <r>   -2.1669    1.0000 </r>
       <r>    5.8209    0.0000 </r>
       <r>    6.1776    0.0000 </r>
       <r>    6.1776    0.0000 </r>
       <r>    8.8296    0.0000 </r>
       <r>    8.8296    0.0000 </r>
       <r>   18.5563    0.0000 </r>
       <r>   19.0291    0.0000 </r>
       <r>   21.5151    0.0000 </r>
      </set>
      <set comment="kpoint 2">
       <r>   -0.8862    1.0000 </r>
       <r>    4.9844    1.0000 </r>
       <r>    6.4258    0.0000 </r>
       <r>    6.6709    0.0000 </r>
       <r>    8.0788    0.0000 </r>
       <r>    9.2961    0.0000 </r>
       <r>   19.0229    0.0000 </r>
       <r>   19.3209    0.0000 </r>
       <r>   21.0314    0.0000 </r>
      </set>
      <set comment="kpoint 3">
       <r>    0.9632    1.0000 </r>
       <r>    5.0246    1.0000 </r>
       <r>    5.8311    0.0000 </r>
       <r>    6.2474    0.0000 </r>
       <r>    9.6026    0.0000 </r>
       <r>   11.0229    0.0000 </r>
       <r>   16.6800    0.0000 </r>
       <r>   19.0304    0.0000 </r>
       <r>   19.6116    0.0000 </r>
      </set>
      <set comment="kpoint 4">
       <r>    1.3042    1.0000 </r>
       <r>    5.3024    1.0000 </r>
       <r>    6.0582    0.0000 </r>
       <r>    6.0922    0.0000 </r>
       <r>   11.2372    0.0000 </r>
       <r>   11.4004    0.0000 </r>
       <r>   15.1424    0.0000 </r>
       <r>   18.1964    0.0000 </r>
       <r>   19.0346    0.0000 </r>
      </set>
      <set comment="kpoint 5">
       <r>    0.4674    1.0000 </r>
       <r>    4.6876    1.0000 </r>
       <r>    6.0250    0.0000 </r>
       <r>    6.5123    0.0000 </r>
       <r>    9.1763    0.0000 </r>
       <r>   10.1372    0.0000 </r>
       <r>   17.5320    0.0000 </r>
       <r>   19.0328    0.0000 </r>
       <r>   20.9343    0.0000 </r>
      </set>
      <set comment="kpoint 6">
       <r>   -1.4934    1.0000 </r>
       <r>    5.2328    1.0000 </r>
       <r>    6.5073    0.0000 </r>
       <r>    6.5287    0.0000 </r>
       <r>    8.0841    0.0000 </r>
       <r>    9.1478    0.0000 </r>
       <r>   19.0290    0.0000 </r>
       <r>   19.8121    0.0000 </r>
       <r>   20.6969    0.0000 </r>
      </set>
      <set comment="kpoint 7">
       <r>   -0.2926    1.0000 </r>
       <r>    4.3412    1.0000 </r>
       <r>    6.4563    0.0000 </r>
       <r>    7.2392    0.0000 </r>
       <r>    7.7625    0.0000 </r>
       <r>    9.7229    0.0000 </r>
       <r>   19.0282    0.0000 </r>
       <r>   20.4926    0.0000 </r>
       <r>   22.1609    0.0000 </r>
      </set>
      <set comment="kpoint 8">
       <r>    1.4614    1.0000 </r>
       <r>    3.8009    1.0000 </r>
       <r>    5.2654    1.0000 </r>
       <r>    7.8166    0.0000 </r>
       <r>    9.1484    0.0000 </r>
       <r>   11.3096    0.0000 </r>
       <r>   18.2780    0.0000 </r>
       <r>   19.0411    0.0000 </r>
       <r>   21.5335    0.0000 </r>
      </set>
      <set comment="kpoint 9">
       <r>    2.4839    1.0000 </r>
       <r>    3.9573    1.0000 </r>
       <r>    5.3125    1.0000 </r>
       <r>    7.2395    0.0000 </r>
       <r>   10.8169    0.0000 </r>
       <r>   13.1551    0.0000 </r>
       <r>   14.3366    0.0000 </r>
       <r>   19.0332    0.0000 </r>
       <r>   20.4335    0.0000 </r>
      </set>
      <set comment="kpoint 10">
       <r>    2.1676    1.0000 </r>
       <r>    4.2960    1.0000 </r>
       <r>    4.7218    1.0000 </r>
       <r>    7.3673    0.0000 </r>
       <r>    9.1661    0.0000 </r>
       <r>   12.3912    0.0000 </r>
       <r>   16.9376    0.0000 </r>
       <r>   19.0360    0.0000 </r>
       <r>   20.7864    0.0000 </r>
      </set>
      <set comment="kpoint 11">
       <r>    0.2100    1.0000 </r>
       <r>    4.4345    1.0000 </r>
       <r>    6.0056    0.0000 </r>
       <r>    7.1054    0.0000 </r>
       <r>    8.1008    0.0000 </r>
       <r>   10.2174    0.0000 </r>
       <r>   18.9772    0.0000 </r>
       <r>   19.1000    0.0000 </r>
       <r>   22.1864    0.0000 </r>
      </set>
      <set comment="kpoint 12">
       <r>    1.5593    1.0000 </r>
       <r>    2.8545    1.0000 </r>
       <r>    6.3699    0.0000 </r>
       <r>    9.5309    0.0000 </r>
       <r>   10.5710    0.0000 </r>
       <r>   11.1853    0.0000 </r>
       <r>   17.7362    0.0000 </r>
       <r>   19.0318    0.0000 </r>
       <r>   19.1227    0.0000 </r>
      </set>
      <set comment="kpoint 13">
       <r>    2.0485    1.0000 </r>
       <r>    2.9860    1.0000 </r>
       <r>    6.3937    0.0000 </r>
       <r>    9.3356    0.0000 </r>
       <r>   11.4812    0.0000 </r>
       <r>   13.5976    0.0000 </r>
       <r>   14.6590    0.0000 </r>
       <r>   17.6074    0.0000 </r>
       <r>   19.0301    0.0000 </r>
      </set>
      <set comment="kpoint 14">
       <r>    3.0873    1.0000 </r>
       <r>    3.5745    1.0000 </r>
       <r>    5.0682    1.0000 </r>
       <r>    7.8844    0.0000 </r>
       <r>   10.4669    0.0000 </r>
       <r>   12.7874    0.0000 </r>
       <r>   15.9568    0.0000 </r>
       <r>   18.7297    0.0000 </r>
       <r>   19.0429    0.0000 </r>
      </set>
      <set comment="kpoint 15">
       <r>    1.6620    1.0000 </r>
       <r>    4.7402    1.0000 </r>
       <r>    5.4830    0.8096 </r>
       <r>    6.5573    0.0000 </r>
       <r>   10.3853    0.0000 </r>
       <r>   11.9878    0.0000 </r>
       <r>   15.6453    0.0000 </r>
       <r>   19.0340    0.0000 </r>
       <r>   19.4724    0.0000 </r>
      </set>
      <set comment="kpoint 16">
       <r>    1.5040    1.0000 </r>
       <r>    2.5179    1.0000 </r>
       <r>    7.6191    0.0000 </r>
       <r>   10.5838    0.0000 </r>
       <r>   11.6780    0.0000 </r>
       <r>   12.1861    0.0000 </r>
       <r>   15.6471    0.0000 </r>
       <r>   17.3191    0.0000 </r>
       <r>   18.5035    0.0000 </r>
      </set>
      <set comment="kpoint 17">
       <r>    2.1034    1.0000 </r>
       <r>    3.2719    1.0000 </r>
       <r>    5.4264    1.0263 </r>
       <r>    8.7725    0.0000 </r>
       <r>   10.5623    0.0000 </r>
       <r>   12.3272    0.0000 </r>
       <r>   16.2669    0.0000 </r>
       <r>   19.0312    0.0000 </r>
       <r>   19.2834    0.0000 </r>
      </set>
      <set comment="kpoint 18">
       <r>    0.9976    1.0000 </r>
       <r>    3.4881    1.0000 </r>
       <r>    5.8240    0.0000 </r>
       <r>    8.2770    0.0000 </r>
       <r>    8.9242    0.0000 </r>
       <r>   10.4484    0.0000 </r>
       <r>   19.0256    0.0000 </r>
       <r>   20.1201    0.0000 </r>
       <r>   21.5884    0.0000 </r>
      </set>
      <set comment="kpoint 19">
       <r>   -0.4045    1.0000 </r>
       <r>    4.9168    1.0000 </r>
       <r>    6.4468    0.0000 </r>
       <r>    6.4468    0.0000 </r>
       <r>    8.9910    0.0000 </r>
       <r>    8.9910    0.0000 </r>
       <r>   17.9812    0.0000 </r>
       <r>   19.0332    0.0000 </r>
       <r>   21.4986    0.0000 </r>
      </set>
      <set comment="kpoint 20">
       <r>    1.1013    1.0000 </r>
       <r>    4.4752    1.0000 </r>
       <r>    5.5058    0.4517 </r>
       <r>    6.9848    0.0000 </r>
       <r>    8.2957    0.0000 </r>
       <r>   11.3869    0.0000 </r>
       <r>   18.1282    0.0000 </r>
       <r>   19.0391    0.0000 </r>
       <r>   21.2467    0.0000 </r>
      </set>
      <set comment="kpoint 21">
       <r>    2.7694    1.0000 </r>
       <r>    4.0519    1.0000 </r>
       <r>    4.8892    1.0000 </r>
       <r>    7.3939    0.0000 </r>
       <r>    9.6323    0.0000 </r>
       <r>   12.5406    0.0000 </r>
       <r>   16.5105    0.0000 </r>
       <r>   19.0336    0.0000 </r>
       <r>   19.5846    0.0000 </r>
      </set>
      <set comment="kpoint 22">
       <r>    2.2678    1.0000 </r>
       <r>    3.6331    1.0000 </r>
       <r>    5.3355    1.0000 </r>
       <r>    7.8085    0.0000 </r>
       <r>   11.4087    0.0000 </r>
       <r>   12.3577    0.0000 </r>
       <r>   14.8259    0.0000 </r>
       <r>   19.0330    0.0000 </r>
       <r>   20.9376    0.0000 </r>
      </set>
      <set comment="kpoint 23">
       <r>    1.5109    1.0000 </r>
       <r>    4.2347    1.0000 </r>
       <r>    5.3485    1.0001 </r>
       <r>    6.9853    0.0000 </r>
       <r>   10.4077    0.0000 </r>
       <r>   11.1055    0.0000 </r>
       <r>   16.7629    0.0000 </r>
       <r>   19.0348    0.0000 </r>
       <r>   20.3282    0.0000 </r>
      </set>
      <set comment="kpoint 24">
       <r>    2.9713    1.0000 </r>
       <r>    3.8015    1.0000 </r>
       <r>    4.5234    1.0000 </r>
       <r>    7.9953    0.0000 </r>
       <r>   10.3555    0.0000 </r>
       <r>   13.0626    0.0000 </r>
       <r>   15.8645    0.0000 </r>
       <r>   18.9878    0.0000 </r>
       <r>   19.0575    0.0000 </r>
      </set>
      <set comment="kpoint 25">
       <r>    2.8589    1.0000 </r>
       <r>    3.7914    1.0000 </r>
       <r>    4.9940    1.0000 </r>
       <r>    7.9510    0.0000 </r>
       <r>   11.4047    0.0000 </r>
       <r>   14.2865    0.0000 </r>
       <r>   15.0297    0.0000 </r>
       <r>   17.3684    0.0000 </r>
       <r>   19.0363    0.0000 </r>
      </set>
      <set comment="kpoint 26">
       <r>    2.4113    1.0000 </r>
       <r>    3.3347    1.0000 </r>
       <r>    5.8756    0.0000 </r>
       <r>    8.7083    0.0000 </r>
       <r>   10.9815    0.0000 </r>
       <r>   12.9102    0.0000 </r>
       <r>   14.9630    0.0000 </r>
       <r>   18.9404    0.0000 </r>
       <r>   19.0890    0.0000 </r>
      </set>
      <set comment="kpoint 27">
       <r>    0.9713    1.0000 </r>
       <r>    5.7332    0.0000 </r>
       <r>    5.9240    0.0000 </r>
       <r>    5.9240    0.0000 </r>
       <r>   10.7787    0.0000 </r>
       <r>   10.7787    0.0000 </r>
       <r>   15.8055    0.0000 </r>
       <r>   18.2562    0.0000 </r>
       <r>   19.0367    0.0000 </r>
      </set>
      <set comment="kpoint 28">
       <r>    1.9729    1.0000 </r>
       <r>    4.5304    1.0000 </r>
       <r>    5.6700    0.0000 </r>
       <r>    6.6118    0.0000 </r>
       <r>   10.6307    0.0000 </r>
       <r>   12.4664    0.0000 </r>
       <r>   14.8839    0.0000 </r>
       <r>   19.0334    0.0000 </r>
       <r>   19.6514    0.0000 </r>
      </set>
     </set>
     <set comment="spin 2">
      <set comment="kpoint 1">
       <r>   -2.1467    1.0000 </r>
       <r>    5.8422    0.0000 </r>
       <r>    6.1989    0.0000 </r>
       <r>    6.1989    0.0000 </r>
       <r>    8.8481    0.0000 </r>
       <r>    8.8481    0.0000 </r>
       <r>   18.5768    0.0000 </r>
       <r>   19.0373    0.0000 </r>
       <r>   21.5317    0.0000 </r>
      </set>
      <set comment="kpoint 2">
       <r>   -0.8660    1.0000 </r>
       <r>    5.0056    1.0000 </r>
       <r>    6.4464    0.0000 </r>
       <r>    6.6919    0.0000 </r>
       <r>    8.0976    0.0000 </r>
       <r>    9.3147    0.0000 </r>
       <r>   19.0312    0.0000 </r>
       <r>   19.3365    0.0000 </r>
       <r>   21.0508    0.0000 </r>
      </set>
      <set comment="kpoint 3">
       <r>    0.9842    1.0000 </r>
       <r>    5.0436    1.0000 </r>
       <r>    5.8512    0.0000 </r>
       <r>    6.2673    0.0000 </r>
       <r>    9.6216    0.0000 </r>
       <r>   11.0409    0.0000 </r>
       <r>   16.6965    0.0000 </r>
       <r>   19.0387    0.0000 </r>
       <r>   19.6305    0.0000 </r>
      </set>
      <set comment="kpoint 4">
       <r>    1.3258    1.0000 </r>
       <r>    5.3207    1.0000 </r>
       <r>    6.0780    0.0000 </r>
       <r>    6.1114    0.0000 </r>
       <r>   11.2550    0.0000 </r>
       <r>   11.4181    0.0000 </r>
       <r>   15.1613    0.0000 </r>
       <r>   18.2138    0.0000 </r>
       <r>   19.0428    0.0000 </r>
      </set>
      <set comment="kpoint 5">
       <r>    0.4879    1.0000 </r>
       <r>    4.7078    1.0000 </r>
       <r>    6.0449    0.0000 </r>
       <r>    6.5325    0.0000 </r>
       <r>    9.1955    0.0000 </r>
       <r>   10.1556    0.0000 </r>
       <r>   17.5477    0.0000 </r>
       <r>   19.0411    0.0000 </r>
       <r>   20.9533    0.0000 </r>
      </set>
      <set comment="kpoint 6">
       <r>   -1.4733    1.0000 </r>
       <r>    5.2541    1.0000 </r>
       <r>    6.5284    0.0000 </r>
       <r>    6.5498    0.0000 </r>
       <r>    8.1028    0.0000 </r>
       <r>    9.1661    0.0000 </r>
       <r>   19.0371    0.0000 </r>
       <r>   19.8320    0.0000 </r>
       <r>   20.7126    0.0000 </r>
      </set>
      <set comment="kpoint 7">
       <r>   -0.2727    1.0000 </r>
       <r>    4.3626    1.0000 </r>
       <r>    6.4758    0.0000 </r>
       <r>    7.2599    0.0000 </r>
       <r>    7.7826    0.0000 </r>
       <r>    9.7410    0.0000 </r>
       <r>   19.0364    0.0000 </r>
       <r>   20.5075    0.0000 </r>
       <r>   22.1805    0.0000 </r>
      </set>
      <set comment="kpoint 8">
       <r>    1.4810    1.0000 </r>
       <r>    3.8219    1.0000 </r>
       <r>    5.2850    1.0000 </r>
       <r>    7.8361    0.0000 </r>
       <r>    9.1680    0.0000 </r>
       <r>   11.3276    0.0000 </r>
       <r>   18.2960    0.0000 </r>
       <r>   19.0495    0.0000 </r>
       <r>   21.5558    0.0000 </r>
      </set>
      <set comment="kpoint 9">
       <r>    2.5051    1.0000 </r>
       <r>    3.9749    1.0000 </r>
       <r>    5.3331    1.0000 </r>
       <r>    7.2587    0.0000 </r>
       <r>   10.8356    0.0000 </r>
       <r>   13.1730    0.0000 </r>
       <r>   14.3564    0.0000 </r>
       <r>   19.0414    0.0000 </r>
       <r>   20.4496    0.0000 </r>
      </set>
      <set comment="kpoint 10">
       <r>    2.1879    1.0000 </r>
       <r>    4.3157    1.0000 </r>
       <r>    4.7416    1.0000 </r>
       <r>    7.3863    0.0000 </r>
       <r>    9.1858    0.0000 </r>
       <r>   12.4090    0.0000 </r>
       <r>   16.9567    0.0000 </r>
       <r>   19.0443    0.0000 </r>
       <r>   20.8045    0.0000 </r>
      </set>
      <set comment="kpoint 11">
       <r>    0.2300    1.0000 </r>
       <r>    4.4556    1.0000 </r>
       <r>    6.0252    0.0000 </r>
       <r>    7.1256    0.0000 </r>
       <r>    8.1204    0.0000 </r>
       <r>   10.2358    0.0000 </r>
       <r>   18.9882    0.0000 </r>
       <r>   19.1123    0.0000 </r>
       <r>   22.2057    0.0000 </r>
      </set>
      <set comment="kpoint 12">
       <r>    1.5777    1.0000 </r>
       <r>    2.8759    1.0000 </r>
       <r>    6.3901    0.0000 </r>
       <r>    9.5500    0.0000 </r>
       <r>   10.5905    0.0000 </r>
       <r>   11.2029    0.0000 </r>
       <r>   17.7562    0.0000 </r>
       <r>   19.0401    0.0000 </r>
       <r>   19.1428    0.0000 </r>
      </set>
      <set comment="kpoint 13">
       <r>    2.0664    1.0000 </r>
       <r>    3.0071    1.0000 </r>
       <r>    6.4141    0.0000 </r>
       <r>    9.3538    0.0000 </r>
       <r>   11.4998    0.0000 </r>
       <r>   13.6162    0.0000 </r>
       <r>   14.6797    0.0000 </r>
       <r>   17.6277    0.0000 </r>
       <r>   19.0384    0.0000 </r>
      </set>
      <set comment="kpoint 14">
       <r>    3.1075    1.0000 </r>
       <r>    3.5928    1.0000 </r>
       <r>    5.0889    1.0000 </r>
       <r>    7.9031    0.0000 </r>
       <r>   10.4862    0.0000 </r>
       <r>   12.8077    0.0000 </r>
       <r>   15.9748    0.0000 </r>
       <r>   18.7471    0.0000 </r>
       <r>   19.0514    0.0000 </r>
      </set>
      <set comment="kpoint 15">
       <r>    1.6832    1.0000 </r>
       <r>    4.7580    1.0000 </r>
       <r>    5.5035    0.4898 </r>
       <r>    6.5770    0.0000 </r>
       <r>   10.4039    0.0000 </r>
       <r>   12.0055    0.0000 </r>
       <r>   15.6640    0.0000 </r>
       <r>   19.0423    0.0000 </r>
       <r>   19.4897    0.0000 </r>
      </set>
      <set comment="kpoint 16">
       <r>    1.5220    1.0000 </r>
       <r>    2.5394    1.0000 </r>
       <r>    7.6395    0.0000 </r>
       <r>   10.6014    0.0000 </r>
       <r>   11.6961    0.0000 </r>
       <r>   12.2047    0.0000 </r>
       <r>   15.6682    0.0000 </r>
       <r>   17.3400    0.0000 </r>
       <r>   18.5220    0.0000 </r>
      </set>
      <set comment="kpoint 17">
       <r>    2.1219    1.0000 </r>
       <r>    3.2929    1.0000 </r>
       <r>    5.4468    1.0336 </r>
       <r>    8.7913    0.0000 </r>
       <r>   10.5813    0.0000 </r>
       <r>   12.3453    0.0000 </r>
       <r>   16.2871    0.0000 </r>
       <r>   19.0395    0.0000 </r>
       <r>   19.3033    0.0000 </r>
      </set>
      <set comment="kpoint 18">
       <r>    1.0169    1.0000 </r>
       <r>    3.5095    1.0000 </r>
       <r>    5.8435    0.0000 </r>
       <r>    8.2970    0.0000 </r>
       <r>    8.9442    0.0000 </r>
       <r>   10.4661    0.0000 </r>
       <r>   19.0338    0.0000 </r>
       <r>   20.1376    0.0000 </r>
       <r>   21.6074    0.0000 </r>
      </set>
      <set comment="kpoint 19">
       <r>   -0.3842    1.0000 </r>
       <r>    4.9375    1.0000 </r>
       <r>    6.4673    0.0000 </r>
       <r>    6.4673    0.0000 </r>
       <r>    9.0098    0.0000 </r>
       <r>    9.0098    0.0000 </r>
       <r>   17.9969    0.0000 </r>
       <r>   19.0414    0.0000 </r>
       <r>   21.5175    0.0000 </r>
      </set>
      <set comment="kpoint 20">
       <r>    1.1216    1.0000 </r>
       <r>    4.4960    1.0000 </r>
       <r>    5.5251    0.1622 </r>
       <r>    7.0041    0.0000 </r>
       <r>    8.3156    0.0000 </r>
       <r>   11.4050    0.0000 </r>
       <r>   18.1448    0.0000 </r>
       <r>   19.0473    0.0000 </r>
       <r>   21.2661    0.0000 </r>
      </set>
      <set comment="kpoint 21">
       <r>    2.7906    1.0000 </r>
       <r>    4.0693    1.0000 </r>
       <r>    4.9099    1.0000 </r>
       <r>    7.4126    0.0000 </r>
       <r>    9.6519    0.0000 </r>
       <r>   12.5598    0.0000 </r>
       <r>   16.5286    0.0000 </r>
       <r>   19.0419    0.0000 </r>
       <r>   19.6026    0.0000 </r>
      </set>
      <set comment="kpoint 22">
       <r>    2.2877    1.0000 </r>
       <r>    3.6522    1.0000 </r>
       <r>    5.3562    1.0001 </r>
       <r>    7.8277    0.0000 </r>
       <r>   11.4265    0.0000 </r>
       <r>   12.3764    0.0000 </r>
       <r>   14.8458    0.0000 </r>
       <r>   19.0412    0.0000 </r>
       <r>   20.6804    0.0000 </r>
      </set>
      <set comment="kpoint 23">
       <r>    1.5314    1.0000 </r>
       <r>    4.2541    1.0000 </r>
       <r>    5.3687    1.0005 </r>
       <r>    7.0052    0.0000 </r>
       <r>   10.4266    0.0000 </r>
       <r>   11.1233    0.0000 </r>
       <r>   16.7808    0.0000 </r>
       <r>   19.0431    0.0000 </r>
       <r>   20.3456    0.0000 </r>
      </set>
      <set comment="kpoint 24">
       <r>    2.9902    1.0000 </r>
       <r>    3.8213    1.0000 </r>
       <r>    4.5443    1.0000 </r>
       <r>    8.0140    0.0000 </r>
       <r>   10.3748    0.0000 </r>
       <r>   13.0816    0.0000 </r>
       <r>   15.8837    0.0000 </r>
       <r>   19.0029    0.0000 </r>
       <r>   19.0698    0.0000 </r>
      </set>
      <set comment="kpoint 25">
       <r>    2.8764    1.0000 </r>
       <r>    3.8123    1.0000 </r>
       <r>    5.0148    1.0000 </r>
       <r>    7.9700    0.0000 </r>
       <r>   11.4235    0.0000 </r>
       <r>   14.3064    0.0000 </r>
       <r>   15.0490    0.0000 </r>
       <r>   17.3880    0.0000 </r>
       <r>   19.0445    0.0000 </r>
      </set>
      <set comment="kpoint 26">
       <r>    2.4303    1.0000 </r>
       <r>    3.3545    1.0000 </r>
       <r>    5.8961    0.0000 </r>
       <r>    8.7267    0.0000 </r>
       <r>   11.0002    0.0000 </r>
       <r>   12.9313    0.0000 </r>
       <r>   14.9812    0.0000 </r>
       <r>   18.9534    0.0000 </r>
       <r>   19.1004    0.0000 </r>
      </set>
      <set comment="kpoint 27">
       <r>    0.9928    1.0000 </r>
       <r>    5.7511    0.0000 </r>
       <r>    5.9440    0.0000 </r>
       <r>    5.9440    0.0000 </r>
       <r>   10.7969    0.0000 </r>
       <r>   10.7969    0.0000 </r>
       <r>   15.8229    0.0000 </r>
       <r>   18.2744    0.0000 </r>
       <r>   19.0449    0.0000 </r>
      </set>
      <set comment="kpoint 28">
       <r>    1.9945    1.0000 </r>
       <r>    4.5480    1.0000 </r>
       <r>    5.6901    0.0000 </r>
       <r>    6.6313    0.0000 </r>
       <r>   10.6492    0.0000 </r>
       <r>   12.4843    0.0000 </r>
       <r>   14.9030    0.0000 </r>
       <r>   19.0416    0.0000 </r>
       <r>   19.6681    0.0000 </r>
      </set>
     </set>
    </set>
   </array>
  </eigenvalues>
  <separator name="orbital magnetization" >
   <v name="MAGDIPOLOUT">      0.00000000      0.00000000      0.00000000</v>
  </separator>
  <dos>
   <i name="efermi">      5.50292692 </i>
   <total>
    <array>
     <dimension dim="1">gridpoints</dimension>
     <dimension dim="2">spin</dimension>
     <field>energy</field>
     <field>total</field>
     <field>integrated</field>
     <set>
      <set comment="spin 1">
       <r>    -3.3856     0.0000     0.0000 </r>
       <r>    -3.2962     0.0000     0.0000 </r>
       <r>    -3.2068     0.0000     0.0000 </r>
       <r>    -3.1175     0.0000     0.0000 </r>
       <r>    -3.0281     0.0000     0.0000 </r>
       <r>    -2.9387     0.0000     0.0000 </r>
       <r>    -2.8494     0.0000     0.0000 </r>
       <r>    -2.7600     0.0000     0.0000 </r>
       <r>    -2.6706     0.0000     0.0000 </r>
       <r>    -2.5813     0.0000     0.0000 </r>
       <r>    -2.4919     0.0000     0.0000 </r>
       <r>    -2.4025     0.0000     0.0000 </r>
       <r>    -2.3132     0.0000     0.0000 </r>
       <r>    -2.2238    -0.0035    -0.0003 </r>
       <r>    -2.1344     0.1011     0.0087 </r>
       <r>    -2.0451     0.0063     0.0093 </r>
       <r>    -1.9557    -0.0002     0.0093 </r>
       <r>    -1.8663     0.0000     0.0093 </r>
       <r>    -1.7770     0.0000     0.0093 </r>
       <r>    -1.6876     0.0000     0.0093 </r>
       <r>    -1.5982    -0.0018     0.0091 </r>
       <r>    -1.5089     0.0801     0.0163 </r>
       <r>    -1.4195     0.2414     0.0378 </r>
       <r>    -1.3301    -0.0089     0.0370 </r>
       <r>    -1.2408     0.0000     0.0370 </r>
       <r>    -1.1514     0.0000     0.0370 </r>
       <r>    -1.0620     0.0000     0.0370 </r>
       <r>    -0.9727    -0.0054     0.0366 </r>
       <r>    -0.8833     0.1760     0.0523 </r>
       <r>    -0.7939     0.1442     0.0652 </r>
       <r>    -0.7046    -0.0040     0.0648 </r>
       <r>    -0.6152     0.0000     0.0648 </r>
       <r>    -0.5258    -0.0002     0.0648 </r>
       <r>    -0.4365     0.0066     0.0654 </r>
       <r>    -0.3471     0.0907     0.0735 </r>
       <r>    -0.2578     0.3045     0.1007 </r>
       <r>    -0.1684     0.0131     0.1019 </r>
       <r>    -0.0790    -0.0004     0.1019 </r>
       <r>     0.0103     0.0000     0.1019 </r>
       <r>     0.0997    -0.0024     0.1016 </r>
       <r>     0.1891     0.1133     0.1118 </r>
       <r>     0.2784     0.5312     0.1592 </r>
       <r>     0.3678    -0.0229     0.1572 </r>
       <r>     0.4572     0.1054     0.1666 </r>
       <r>     0.5465     0.2154     0.1858 </r>
       <r>     0.6359    -0.0074     0.1852 </r>
       <r>     0.7253     0.0000     0.1852 </r>
       <r>     0.8146     0.0000     0.1852 </r>
       <r>     0.9040    -0.0180     0.1836 </r>
       <r>     0.9934     0.5230     0.2303 </r>
       <r>     1.0827     0.2919     0.2564 </r>
       <r>     1.1721     0.2488     0.2786 </r>
       <r>     1.2615    -0.0103     0.2777 </r>
       <r>     1.3508     0.3144     0.3058 </r>
       <r>     1.4402     0.0849     0.3134 </r>
       <r>     1.5296     1.0986     0.4116 </r>
       <r>     1.6189     0.3787     0.4454 </r>
       <r>     1.7083     0.6207     0.5009 </r>
       <r>     1.7977    -0.0096     0.5000 </r>
       <r>     1.8870    -0.0058     0.4995 </r>
       <r>     1.9764     0.1600     0.5138 </r>
       <r>     2.0658     0.6516     0.5720 </r>
       <r>     2.1551     0.9520     0.6571 </r>
       <r>     2.2445     0.4804     0.7000 </r>
       <r>     2.3339     0.2509     0.7225 </r>
       <r>     2.4232     0.1880     0.7393 </r>
       <r>     2.5126     0.8145     0.8121 </r>
       <r>     2.6020     0.2455     0.8340 </r>
       <r>     2.6913    -0.0151     0.8326 </r>
       <r>     2.7807     0.1964     0.8502 </r>
       <r>     2.8701     0.7770     0.9196 </r>
       <r>     2.9594     0.5442     0.9683 </r>
       <r>     3.0488     1.0257     1.0599 </r>
       <r>     3.1382     0.5891     1.1126 </r>
       <r>     3.2275    -0.0234     1.1105 </r>
       <r>     3.3169     0.7040     1.1734 </r>
       <r>     3.4063     0.2387     1.1947 </r>
       <r>     3.4956     0.1762     1.2105 </r>
       <r>     3.5850     0.5465     1.2593 </r>
       <r>     3.6744     0.5186     1.3057 </r>
       <r>     3.7637     0.0928     1.3140 </r>
       <r>     3.8531     1.8249     1.4770 </r>
       <r>     3.9425     0.1073     1.4866 </r>
       <r>     4.0318     0.5367     1.5346 </r>
       <r>     4.1212     0.2437     1.5564 </r>
       <r>     4.2106     0.0226     1.5584 </r>
       <r>     4.2999     0.6429     1.6158 </r>
       <r>     4.3893     0.5692     1.6667 </r>
       <r>     4.4787     0.7845     1.7368 </r>
       <r>     4.5680     1.0824     1.8336 </r>
       <r>     4.6574    -0.0121     1.8325 </r>
       <r>     4.7468     1.2507     1.9443 </r>
       <r>     4.8361     0.3093     1.9719 </r>
       <r>     4.9255     0.3373     2.0020 </r>
       <r>     5.0149     0.9660     2.0884 </r>
       <r>     5.1042     0.9691     2.1750 </r>
       <r>     5.1936    -0.0058     2.1745 </r>
       <r>     5.2830     0.9124     2.2560 </r>
       <r>     5.3723     1.5504     2.3945 </r>
       <r>     5.4617     0.7449     2.4611 </r>
       <r>     5.5511     0.8741     2.5392 </r>
       <r>     5.6404     0.0005     2.5393 </r>
       <r>     5.7298     0.3354     2.5692 </r>
       <r>     5.8192     0.3173     2.5976 </r>
       <r>     5.9085     0.8165     2.6706 </r>
       <r>     5.9979     0.4200     2.7081 </r>
       <r>     6.0873     1.1104     2.8073 </r>
       <r>     6.1766     0.2845     2.8328 </r>
       <r>     6.2660     0.3568     2.8646 </r>
       <r>     6.3554     0.1449     2.8776 </r>
       <r>     6.4447     1.2878     2.9927 </r>
       <r>     6.5341     1.2100     3.1008 </r>
       <r>     6.6235     0.9724     3.1877 </r>
       <r>     6.7128     0.3882     3.2224 </r>
       <r>     6.8022    -0.0019     3.2222 </r>
       <r>     6.8916    -0.0076     3.2216 </r>
       <r>     6.9809     0.2743     3.2461 </r>
       <r>     7.0703     0.3906     3.2810 </r>
       <r>     7.1597     0.5838     3.3332 </r>
       <r>     7.2490     0.6161     3.3882 </r>
       <r>     7.3384     0.3719     3.4215 </r>
       <r>     7.4278     0.8860     3.5006 </r>
       <r>     7.5171    -0.0087     3.4998 </r>
       <r>     7.6065     0.0931     3.5082 </r>
       <r>     7.6959     0.2150     3.5274 </r>
       <r>     7.7852     0.3506     3.5587 </r>
       <r>     7.8746     1.1228     3.6590 </r>
       <r>     7.9640     0.8935     3.7389 </r>
       <r>     8.0533     0.8215     3.8123 </r>
       <r>     8.1427     1.1889     3.9186 </r>
       <r>     8.2321    -0.0350     3.9154 </r>
       <r>     8.3214     0.6007     3.9691 </r>
       <r>     8.4108     0.0359     3.9723 </r>
       <r>     8.5002    -0.0010     3.9722 </r>
       <r>     8.5895    -0.0006     3.9722 </r>
       <r>     8.6789     0.0197     3.9739 </r>
       <r>     8.7683     0.5613     4.0241 </r>
       <r>     8.8576     0.5399     4.0723 </r>
       <r>     8.9470     0.2811     4.0975 </r>
       <r>     9.0364     0.2563     4.1204 </r>
       <r>     9.1257     0.1454     4.1334 </r>
       <r>     9.2151     1.7525     4.2900 </r>
       <r>     9.3045     0.2095     4.3087 </r>
       <r>     9.3938     0.7146     4.3726 </r>
       <r>     9.4832    -0.0311     4.3698 </r>
       <r>     9.5726     0.3306     4.3993 </r>
       <r>     9.6619     0.5828     4.4514 </r>
       <r>     9.7513     0.3077     4.4789 </r>
       <r>     9.8407     0.0296     4.4815 </r>
       <r>     9.9300    -0.0007     4.4815 </r>
       <r>    10.0194    -0.0007     4.4814 </r>
       <r>    10.1088     0.0272     4.4839 </r>
       <r>    10.1981     0.4189     4.5213 </r>
       <r>    10.2875     0.4799     4.5642 </r>
       <r>    10.3769     0.7491     4.6311 </r>
       <r>    10.4662     1.3767     4.7541 </r>
       <r>    10.5556     0.7203     4.8185 </r>
       <r>    10.6450     1.1506     4.9213 </r>
       <r>    10.7343     0.0385     4.9248 </r>
       <r>    10.8237     0.6033     4.9787 </r>
       <r>    10.9131     0.2333     4.9996 </r>
       <r>    11.0024     0.3156     5.0278 </r>
       <r>    11.0918     0.4048     5.0639 </r>
       <r>    11.1812     0.3482     5.0950 </r>
       <r>    11.2705     0.4879     5.1387 </r>
       <r>    11.3599     0.6619     5.1978 </r>
       <r>    11.4492     1.5778     5.3388 </r>
       <r>    11.5386     0.5825     5.3909 </r>
       <r>    11.6280    -0.0297     5.3882 </r>
       <r>    11.7173     0.3144     5.4163 </r>
       <r>    11.8067     0.0044     5.4167 </r>
       <r>    11.8961    -0.0084     5.4159 </r>
       <r>    11.9854     0.2939     5.4422 </r>
       <r>    12.0748     0.3452     5.4731 </r>
       <r>    12.1642     0.0421     5.4768 </r>
       <r>    12.2535     0.2498     5.4991 </r>
       <r>    12.3429     0.5446     5.5478 </r>
       <r>    12.4323     1.0417     5.6409 </r>
       <r>    12.5216     0.3621     5.6733 </r>
       <r>    12.6110     0.2469     5.6953 </r>
       <r>    12.7004    -0.0203     5.6935 </r>
       <r>    12.7897     0.3459     5.7244 </r>
       <r>    12.8791     0.3164     5.7527 </r>
       <r>    12.9685     0.2844     5.7781 </r>
       <r>    13.0578     0.2510     5.8005 </r>
       <r>    13.1472     0.6075     5.8548 </r>
       <r>    13.2366     0.3946     5.8901 </r>
       <r>    13.3259    -0.0135     5.8889 </r>
       <r>    13.4153     0.0000     5.8889 </r>
       <r>    13.5047    -0.0076     5.8882 </r>
       <r>    13.5940     0.2807     5.9133 </r>
       <r>    13.6834     0.3597     5.9454 </r>
       <r>    13.7728    -0.0111     5.9444 </r>
       <r>    13.8621     0.0000     5.9444 </r>
       <r>    13.9515     0.0000     5.9444 </r>
       <r>    14.0409     0.0000     5.9444 </r>
       <r>    14.1302     0.0000     5.9444 </r>
       <r>    14.2196    -0.0224     5.9424 </r>
       <r>    14.3090     0.6093     5.9969 </r>
       <r>    14.3983     0.6806     6.0577 </r>
       <r>    14.4877    -0.0241     6.0556 </r>
       <r>    14.5771    -0.0133     6.0544 </r>
       <r>    14.6664     0.4013     6.0902 </r>
       <r>    14.7558     0.2295     6.1107 </r>
       <r>    14.8452     0.2576     6.1338 </r>
       <r>    14.9345     0.4004     6.1695 </r>
       <r>    15.0239     0.5390     6.2177 </r>
       <r>    15.1133     0.4011     6.2536 </r>
       <r>    15.2026     0.2820     6.2788 </r>
       <r>    15.2920    -0.0110     6.2778 </r>
       <r>    15.3814     0.0000     6.2778 </r>
       <r>    15.4707     0.0000     6.2778 </r>
       <r>    15.5601    -0.0167     6.2763 </r>
       <r>    15.6495     0.5390     6.3245 </r>
       <r>    15.7388     0.4175     6.3618 </r>
       <r>    15.8282     0.0990     6.3706 </r>
       <r>    15.9176     0.6470     6.4284 </r>
       <r>    16.0069     0.6096     6.4829 </r>
       <r>    16.0963    -0.0158     6.4815 </r>
       <r>    16.1857    -0.0138     6.4803 </r>
       <r>    16.2750     0.4089     6.5168 </r>
       <r>    16.3644     0.2322     6.5376 </r>
       <r>    16.4538    -0.0164     6.5361 </r>
       <r>    16.5431     0.3033     6.5632 </r>
       <r>    16.6325     0.0124     6.5643 </r>
       <r>    16.7219     0.3178     6.5927 </r>
       <r>    16.8112     0.3157     6.6209 </r>
       <r>    16.9006     0.0108     6.6219 </r>
       <r>    16.9900     0.6230     6.6776 </r>
       <r>    17.0793    -0.0182     6.6759 </r>
       <r>    17.1687    -0.0002     6.6759 </r>
       <r>    17.2581    -0.0134     6.6747 </r>
       <r>    17.3474     0.4045     6.7109 </r>
       <r>    17.4368     0.5592     6.7608 </r>
       <r>    17.5262     0.0937     6.7692 </r>
       <r>    17.6155     0.5999     6.8228 </r>
       <r>    17.7049     0.2482     6.8450 </r>
       <r>    17.7943     0.2945     6.8713 </r>
       <r>    17.8836    -0.0117     6.8703 </r>
       <r>    17.9730     0.0385     6.8737 </r>
       <r>    18.0624     0.0575     6.8789 </r>
       <r>    18.1517     0.2695     6.9029 </r>
       <r>    18.2411     0.4086     6.9395 </r>
       <r>    18.3305     0.6989     7.0019 </r>
       <r>    18.4198    -0.0274     6.9995 </r>
       <r>    18.5092     0.1892     7.0164 </r>
       <r>    18.5986     0.2344     7.0373 </r>
       <r>    18.6879    -0.0022     7.0371 </r>
       <r>    18.7773     0.6328     7.0937 </r>
       <r>    18.8667    -0.0242     7.0915 </r>
       <r>    18.9560     0.1556     7.1054 </r>
       <r>    19.0454     8.0375     7.8237 </r>
       <r>    19.1348     4.5356     8.2290 </r>
       <r>    19.2241     0.0059     8.2295 </r>
       <r>    19.3135     0.7110     8.2931 </r>
       <r>    19.4029     0.2310     8.3137 </r>
       <r>    19.4922     0.5101     8.3593 </r>
       <r>    19.5816     0.2807     8.3844 </r>
       <r>    19.6710     0.7312     8.4497 </r>
       <r>    19.7603     0.0368     8.4530 </r>
       <r>    19.8497     0.3111     8.4808 </r>
       <r>    19.9391     0.0075     8.4815 </r>
       <r>    20.0284    -0.0044     8.4811 </r>
       <r>    20.1178     0.1473     8.4943 </r>
       <r>    20.2072     0.1723     8.5097 </r>
       <r>    20.2965     0.0153     8.5111 </r>
       <r>    20.3859     0.2878     8.5368 </r>
       <r>    20.4753     0.6934     8.5987 </r>
       <r>    20.5646     0.2517     8.6212 </r>
       <r>    20.6540    -0.0110     8.6202 </r>
       <r>    20.7434     0.3148     8.6484 </r>
       <r>    20.8327     0.6250     8.7042 </r>
       <r>    20.9221     0.1647     8.7189 </r>
       <r>    21.0115     0.5273     8.7661 </r>
       <r>    21.1008     0.2446     8.7879 </r>
       <r>    21.1902    -0.0205     8.7861 </r>
       <r>    21.2796     0.3040     8.8133 </r>
       <r>    21.3689     0.0177     8.8148 </r>
       <r>    21.4583    -0.0203     8.8130 </r>
       <r>    21.5477     0.6783     8.8736 </r>
       <r>    21.6370     0.4923     8.9176 </r>
       <r>    21.7264    -0.0109     8.9167 </r>
       <r>    21.8158    -0.0001     8.9167 </r>
       <r>    21.9051     0.0000     8.9167 </r>
       <r>    21.9945     0.0000     8.9167 </r>
       <r>    22.0839    -0.0122     8.9156 </r>
       <r>    22.1732     0.4074     8.9520 </r>
       <r>    22.2626     0.5561     9.0017 </r>
       <r>    22.3520    -0.0188     9.0000 </r>
       <r>    22.4413     0.0000     9.0000 </r>
       <r>    22.5307     0.0000     9.0000 </r>
       <r>    22.6201     0.0000     9.0000 </r>
       <r>    22.7094     0.0000     9.0000 </r>
       <r>    22.7988     0.0000     9.0000 </r>
       <r>    22.8881     0.0000     9.0000 </r>
       <r>    22.9775     0.0000     9.0000 </r>
       <r>    23.0669     0.0000     9.0000 </r>
       <r>    23.1562     0.0000     9.0000 </r>
       <r>    23.2456     0.0000     9.0000 </r>
       <r>    23.3350     0.0000     9.0000 </r>
       <r>    23.4243     0.0000     9.0000 </r>
      </set>
      <set comment="spin 2">
       <r>    -3.3856     0.0000     0.0000 </r>
       <r>    -3.2962     0.0000     0.0000 </r>
       <r>    -3.2068     0.0000     0.0000 </r>
       <r>    -3.1175     0.0000     0.0000 </r>
       <r>    -3.0281     0.0000     0.0000 </r>
       <r>    -2.9387     0.0000     0.0000 </r>
       <r>    -2.8494     0.0000     0.0000 </r>
       <r>    -2.7600     0.0000     0.0000 </r>
       <r>    -2.6706     0.0000     0.0000 </r>
       <r>    -2.5813     0.0000     0.0000 </r>
       <r>    -2.4919     0.0000     0.0000 </r>
       <r>    -2.4025     0.0000     0.0000 </r>
       <r>    -2.3132     0.0000     0.0000 </r>
       <r>    -2.2238    -0.0027    -0.0002 </r>
       <r>    -2.1344     0.0752     0.0065 </r>
       <r>    -2.0451     0.0318     0.0093 </r>
       <r>    -1.9557    -0.0007     0.0093 </r>
       <r>    -1.8663     0.0000     0.0093 </r>
       <r>    -1.7770     0.0000     0.0093 </r>
       <r>    -1.6876     0.0000     0.0093 </r>
       <r>    -1.5982    -0.0004     0.0092 </r>
       <r>    -1.5089     0.0115     0.0103 </r>
       <r>    -1.4195     0.3094     0.0379 </r>
       <r>    -1.3301    -0.0097     0.0370 </r>
       <r>    -1.2408    -0.0001     0.0370 </r>
       <r>    -1.1514     0.0000     0.0370 </r>
       <r>    -1.0620     0.0000     0.0370 </r>
       <r>    -0.9727    -0.0016     0.0369 </r>
       <r>    -0.8833     0.0718     0.0433 </r>
       <r>    -0.7939     0.2500     0.0657 </r>
       <r>    -0.7046    -0.0094     0.0648 </r>
       <r>    -0.6152     0.0000     0.0648 </r>
       <r>    -0.5258     0.0000     0.0648 </r>
       <r>    -0.4365    -0.0030     0.0645 </r>
       <r>    -0.3471     0.0952     0.0730 </r>
       <r>    -0.2578     0.2418     0.0947 </r>
       <r>    -0.1684     0.0824     0.1020 </r>
       <r>    -0.0790    -0.0019     0.1019 </r>
       <r>     0.0103     0.0000     0.1019 </r>
       <r>     0.0997    -0.0004     0.1018 </r>
       <r>     0.1891     0.0037     0.1021 </r>
       <r>     0.2784     0.6318     0.1586 </r>
       <r>     0.3678    -0.0137     0.1574 </r>
       <r>     0.4572     0.0232     0.1594 </r>
       <r>     0.5465     0.2989     0.1862 </r>
       <r>     0.6359    -0.0108     0.1852 </r>
       <r>     0.7253     0.0000     0.1852 </r>
       <r>     0.8146     0.0000     0.1852 </r>
       <r>     0.9040    -0.0097     0.1843 </r>
       <r>     0.9934     0.3106     0.2121 </r>
       <r>     1.0827     0.4442     0.2518 </r>
       <r>     1.1721     0.2991     0.2785 </r>
       <r>     1.2615    -0.0189     0.2768 </r>
       <r>     1.3508     0.2808     0.3019 </r>
       <r>     1.4402     0.0346     0.3050 </r>
       <r>     1.5296     0.9756     0.3922 </r>
       <r>     1.6189     0.5702     0.4431 </r>
       <r>     1.7083     0.5561     0.4928 </r>
       <r>     1.7977     0.0819     0.5002 </r>
       <r>     1.8870    -0.0033     0.4999 </r>
       <r>     1.9764     0.0594     0.5052 </r>
       <r>     2.0658     0.5447     0.5539 </r>
       <r>     2.1551     0.9632     0.6399 </r>
       <r>     2.2445     0.6305     0.6963 </r>
       <r>     2.3339     0.2920     0.7224 </r>
       <r>     2.4232     0.1034     0.7316 </r>
       <r>     2.5126     0.6353     0.7884 </r>
       <r>     2.6020     0.5201     0.8349 </r>
       <r>     2.6913    -0.0196     0.8331 </r>
       <r>     2.7807     0.0970     0.8418 </r>
       <r>     2.8701     0.5926     0.8947 </r>
       <r>     2.9594     0.6085     0.9491 </r>
       <r>     3.0488     1.1900     1.0555 </r>
       <r>     3.1382     0.5775     1.1071 </r>
       <r>     3.2275     0.0247     1.1093 </r>
       <r>     3.3169     0.5619     1.1595 </r>
       <r>     3.4063     0.4000     1.1952 </r>
       <r>     3.4956     0.0707     1.2015 </r>
       <r>     3.5850     0.4591     1.2426 </r>
       <r>     3.6744     0.6672     1.3022 </r>
       <r>     3.7637    -0.0180     1.3006 </r>
       <r>     3.8531     1.8331     1.4644 </r>
       <r>     3.9425     0.1268     1.4757 </r>
       <r>     4.0318     0.6111     1.5303 </r>
       <r>     4.1212     0.2909     1.5563 </r>
       <r>     4.2106    -0.0141     1.5551 </r>
       <r>     4.2999     0.4630     1.5965 </r>
       <r>     4.3893     0.7462     1.6631 </r>
       <r>     4.4787     0.6065     1.7173 </r>
       <r>     4.5680     1.1607     1.8211 </r>
       <r>     4.6574     0.1157     1.8314 </r>
       <r>     4.7468     0.8887     1.9108 </r>
       <r>     4.8361     0.6999     1.9734 </r>
       <r>     4.9255     0.2344     1.9943 </r>
       <r>     5.0149     0.6973     2.0566 </r>
       <r>     5.1042     1.2003     2.1639 </r>
       <r>     5.1936     0.1183     2.1745 </r>
       <r>     5.2830     0.5650     2.2250 </r>
       <r>     5.3723     1.7196     2.3787 </r>
       <r>     5.4617     0.6741     2.4389 </r>
       <r>     5.5511     1.0766     2.5351 </r>
       <r>     5.6404     0.0147     2.5364 </r>
       <r>     5.7298     0.3303     2.5659 </r>
       <r>     5.8192     0.1641     2.5806 </r>
       <r>     5.9085     0.9018     2.6612 </r>
       <r>     5.9979     0.3292     2.6906 </r>
       <r>     6.0873     1.1400     2.7925 </r>
       <r>     6.1766     0.3961     2.8279 </r>
       <r>     6.2660     0.3197     2.8565 </r>
       <r>     6.3554     0.1463     2.8695 </r>
       <r>     6.4447     1.0935     2.9673 </r>
       <r>     6.5341     1.1224     3.0676 </r>
       <r>     6.6235     1.2402     3.1784 </r>
       <r>     6.7128     0.4421     3.2179 </r>
       <r>     6.8022     0.0495     3.2223 </r>
       <r>     6.8916    -0.0032     3.2220 </r>
       <r>     6.9809     0.0918     3.2303 </r>
       <r>     7.0703     0.5327     3.2779 </r>
       <r>     7.1597     0.5838     3.3300 </r>
       <r>     7.2490     0.3485     3.3612 </r>
       <r>     7.3384     0.6218     3.4167 </r>
       <r>     7.4278     0.8503     3.4927 </r>
       <r>     7.5171     0.0832     3.5002 </r>
       <r>     7.6065     0.0152     3.5015 </r>
       <r>     7.6959     0.2987     3.5282 </r>
       <r>     7.7852     0.1456     3.5412 </r>
       <r>     7.8746     1.1429     3.6434 </r>
       <r>     7.9640     0.8260     3.7172 </r>
       <r>     8.0533     0.9621     3.8032 </r>
       <r>     8.1427     1.1709     3.9078 </r>
       <r>     8.2321     0.0849     3.9154 </r>
       <r>     8.3214     0.4685     3.9573 </r>
       <r>     8.4108     0.1718     3.9726 </r>
       <r>     8.5002    -0.0043     3.9722 </r>
       <r>     8.5895    -0.0001     3.9722 </r>
       <r>     8.6789    -0.0081     3.9715 </r>
       <r>     8.7683     0.4080     4.0079 </r>
       <r>     8.8576     0.6852     4.0692 </r>
       <r>     8.9470     0.2192     4.0888 </r>
       <r>     9.0364     0.3335     4.1186 </r>
       <r>     9.1257    -0.0094     4.1177 </r>
       <r>     9.2151     1.7955     4.2782 </r>
       <r>     9.3045     0.1899     4.2952 </r>
       <r>     9.3938     0.8428     4.3705 </r>
       <r>     9.4832    -0.0114     4.3695 </r>
       <r>     9.5726     0.2574     4.3925 </r>
       <r>     9.6619     0.5724     4.4436 </r>
       <r>     9.7513     0.3240     4.4726 </r>
       <r>     9.8407     0.1022     4.4817 </r>
       <r>     9.9300    -0.0025     4.4815 </r>
       <r>    10.0194    -0.0001     4.4815 </r>
       <r>    10.1088    -0.0058     4.4810 </r>
       <r>    10.1981     0.3317     4.5106 </r>
       <r>    10.2875     0.6127     4.5653 </r>
       <r>    10.3769     0.3784     4.5992 </r>
       <r>    10.4662     1.4679     4.7303 </r>
       <r>    10.5556     0.7400     4.7965 </r>
       <r>    10.6450     1.3047     4.9131 </r>
       <r>    10.7343     0.1379     4.9254 </r>
       <r>    10.8237     0.3795     4.9593 </r>
       <r>    10.9131     0.4662     5.0010 </r>
       <r>    11.0024     0.1613     5.0154 </r>
       <r>    11.0918     0.4817     5.0584 </r>
       <r>    11.1812     0.3326     5.0881 </r>
       <r>    11.2705     0.4788     5.1309 </r>
       <r>    11.3599     0.6279     5.1871 </r>
       <r>    11.4492     1.4783     5.3192 </r>
       <r>    11.5386     0.7735     5.3883 </r>
       <r>    11.6280    -0.0030     5.3880 </r>
       <r>    11.7173     0.2665     5.4118 </r>
       <r>    11.8067     0.0552     5.4168 </r>
       <r>    11.8961    -0.0038     5.4164 </r>
       <r>    11.9854     0.1204     5.4272 </r>
       <r>    12.0748     0.5236     5.4740 </r>
       <r>    12.1642    -0.0175     5.4724 </r>
       <r>    12.2535     0.3069     5.4999 </r>
       <r>    12.3429     0.2818     5.5250 </r>
       <r>    12.4323     1.1925     5.6316 </r>
       <r>    12.5216     0.3928     5.6667 </r>
       <r>    12.6110     0.3191     5.6952 </r>
       <r>    12.7004    -0.0118     5.6942 </r>
       <r>    12.7897     0.1378     5.7065 </r>
       <r>    12.8791     0.4968     5.7509 </r>
       <r>    12.9685     0.2908     5.7769 </r>
       <r>    13.0578     0.0980     5.7856 </r>
       <r>    13.1472     0.6308     5.8420 </r>
       <r>    13.2366     0.5464     5.8908 </r>
       <r>    13.3259    -0.0218     5.8889 </r>
       <r>    13.4153     0.0000     5.8889 </r>
       <r>    13.5047    -0.0022     5.8887 </r>
       <r>    13.5940     0.1031     5.8979 </r>
       <r>    13.6834     0.5417     5.9463 </r>
       <r>    13.7728    -0.0209     5.9444 </r>
       <r>    13.8621     0.0000     5.9444 </r>
       <r>    13.9515     0.0000     5.9444 </r>
       <r>    14.0409     0.0000     5.9444 </r>
       <r>    14.1302     0.0000     5.9444 </r>
       <r>    14.2196    -0.0108     5.9435 </r>
       <r>    14.3090     0.3365     5.9736 </r>
       <r>    14.3983     0.9254     6.0562 </r>
       <r>    14.4877    -0.0074     6.0556 </r>
       <r>    14.5771    -0.0046     6.0552 </r>
       <r>    14.6664     0.1803     6.0713 </r>
       <r>    14.7558     0.4576     6.1122 </r>
       <r>    14.8452     0.1294     6.1238 </r>
       <r>    14.9345     0.4575     6.1646 </r>
       <r>    15.0239     0.4146     6.2017 </r>
       <r>    15.1133     0.5561     6.2514 </r>
       <r>    15.2026     0.2942     6.2777 </r>
       <r>    15.2920     0.0013     6.2778 </r>
       <r>    15.3814    -0.0002     6.2778 </r>
       <r>    15.4707     0.0000     6.2778 </r>
       <r>    15.5601    -0.0052     6.2773 </r>
       <r>    15.6495     0.2341     6.2982 </r>
       <r>    15.7388     0.7286     6.3633 </r>
       <r>    15.8282     0.0155     6.3647 </r>
       <r>    15.9176     0.6345     6.4214 </r>
       <r>    16.0069     0.6346     6.4781 </r>
       <r>    16.0963     0.0384     6.4816 </r>
       <r>    16.1857    -0.0055     6.4811 </r>
       <r>    16.2750     0.1925     6.4983 </r>
       <r>    16.3644     0.4495     6.5385 </r>
       <r>    16.4538    -0.0245     6.5363 </r>
       <r>    16.5431     0.2368     6.5574 </r>
       <r>    16.6325     0.0736     6.5640 </r>
       <r>    16.7219     0.2697     6.5881 </r>
       <r>    16.8112     0.3380     6.6183 </r>
       <r>    16.9006     0.0026     6.6186 </r>
       <r>    16.9900     0.6091     6.6730 </r>
       <r>    17.0793     0.0337     6.6760 </r>
       <r>    17.1687    -0.0009     6.6759 </r>
       <r>    17.2581    -0.0071     6.6753 </r>
       <r>    17.3474     0.2054     6.6936 </r>
       <r>    17.4368     0.7500     6.7607 </r>
       <r>    17.5262     0.0330     6.7636 </r>
       <r>    17.6155     0.4595     6.8047 </r>
       <r>    17.7049     0.4316     6.8432 </r>
       <r>    17.7943     0.2971     6.8698 </r>
       <r>    17.8836     0.0064     6.8704 </r>
       <r>    17.9730     0.0147     6.8717 </r>
       <r>    18.0624     0.0860     6.8794 </r>
       <r>    18.1517     0.1834     6.8958 </r>
       <r>    18.2411     0.3967     6.9312 </r>
       <r>    18.3305     0.7466     6.9979 </r>
       <r>    18.4198     0.0218     6.9999 </r>
       <r>    18.5092     0.0885     7.0078 </r>
       <r>    18.5986     0.3180     7.0362 </r>
       <r>    18.6879    -0.0122     7.0351 </r>
       <r>    18.7773     0.5945     7.0882 </r>
       <r>    18.8667     0.0432     7.0921 </r>
       <r>    18.9560     0.0328     7.0950 </r>
       <r>    19.0454     6.7937     7.7022 </r>
       <r>    19.1348     5.7531     8.2163 </r>
       <r>    19.2241     0.1634     8.2309 </r>
       <r>    19.3135     0.4696     8.2729 </r>
       <r>    19.4029     0.4745     8.3153 </r>
       <r>    19.4922     0.3305     8.3448 </r>
       <r>    19.5816     0.3366     8.3749 </r>
       <r>    19.6710     0.7494     8.4419 </r>
       <r>    19.7603     0.1272     8.4532 </r>
       <r>    19.8497     0.2478     8.4754 </r>
       <r>    19.9391     0.0699     8.4816 </r>
       <r>    20.0284    -0.0028     8.4814 </r>
       <r>    20.1178     0.0610     8.4868 </r>
       <r>    20.2072     0.2610     8.5101 </r>
       <r>    20.2965    -0.0171     8.5086 </r>
       <r>    20.3859     0.2931     8.5348 </r>
       <r>    20.4753     0.5894     8.5875 </r>
       <r>    20.5646     0.3796     8.6214 </r>
       <r>    20.6540     0.0132     8.6226 </r>
       <r>    20.7434     0.5631     8.6729 </r>
       <r>    20.8327     0.5953     8.7261 </r>
       <r>    20.9221     0.0828     8.7335 </r>
       <r>    21.0115     0.3032     8.7606 </r>
       <r>    21.1008     0.3037     8.7877 </r>
       <r>    21.1902    -0.0161     8.7863 </r>
       <r>    21.2796     0.2318     8.8070 </r>
       <r>    21.3689     0.0893     8.8150 </r>
       <r>    21.4583    -0.0146     8.8137 </r>
       <r>    21.5477     0.4017     8.8496 </r>
       <r>    21.6370     0.7389     8.9156 </r>
       <r>    21.7264     0.0122     8.9167 </r>
       <r>    21.8158    -0.0006     8.9167 </r>
       <r>    21.9051     0.0000     8.9167 </r>
       <r>    21.9945     0.0000     8.9167 </r>
       <r>    22.0839    -0.0040     8.9163 </r>
       <r>    22.1732     0.1579     8.9304 </r>
       <r>    22.2626     0.8064     9.0025 </r>
       <r>    22.3520    -0.0277     9.0000 </r>
       <r>    22.4413    -0.0001     9.0000 </r>
       <r>    22.5307     0.0000     9.0000 </r>
       <r>    22.6201     0.0000     9.0000 </r>
       <r>    22.7094     0.0000     9.0000 </r>
       <r>    22.7988     0.0000     9.0000 </r>
       <r>    22.8881     0.0000     9.0000 </r>
       <r>    22.9775     0.0000     9.0000 </r>
       <r>    23.0669     0.0000     9.0000 </r>
       <r>    23.1562     0.0000     9.0000 </r>
       <r>    23.2456     0.0000     9.0000 </r>
       <r>    23.3350     0.0000     9.0000 </r>
       <r>    23.4243     0.0000     9.0000 </r>
      </set>
     </set>
    </array>
   </total>
   <partial>
    <array>
     <dimension dim="1">gridpoints</dimension>
     <dimension dim="2">spin</dimension>
     <dimension dim="3">ion</dimension>
     <field>energy</field>
     <field>  s</field>
     <field> py</field>
     <field> pz</field>
     <field> px</field>
     <field>dxy</field>
     <field>dyz</field>
     <field>dz2</field>
     <field>dxz</field>
     <field>dx2</field>
     <set>
      <set comment="ion 1">
       <set comment="spin 1">
        <r>    -3.3856     0.0000     0.0000     0.0000     0.0000     0.0000     0.0000     0.0000     0.0000     0.0000 </r>
        <r>    -3.2962     0.0000     0.0000     0.0000     0.0000     0.0000     0.0000     0.0000     0.0000     0.0000 </r>
        <r>    -3.2068     0.0000     0.0000     0.0000     0.0000     0.0000     0.0000     0.0000     0.0000     0.0000 </r>
        <r>    -3.1175     0.0000     0.0000     0.0000     0.0000     0.0000     0.0000     0.0000     0.0000     0.0000 </r>
        <r>    -3.0281     0.0000     0.0000     0.0000     0.0000     0.0000     0.0000     0.0000     0.0000     0.0000 </r>
        <r>    -2.9387     0.0000     0.0000     0.0000     0.0000     0.0000     0.0000     0.0000     0.0000     0.0000 </r>
        <r>    -2.8494     0.0000     0.0000     0.0000     0.0000     0.0000     0.0000     0.0000     0.0000     0.0000 </r>
        <r>    -2.7600     0.0000     0.0000     0.0000     0.0000     0.0000     0.0000     0.0000     0.0000     0.0000 </r>
        <r>    -2.6706     0.0000     0.0000     0.0000     0.0000     0.0000     0.0000     0.0000     0.0000     0.0000 </r>
        <r>    -2.5813     0.0000     0.0000     0.0000     0.0000     0.0000     0.0000     0.0000     0.0000     0.0000 </r>
        <r>    -2.4919     0.0000     0.0000     0.0000     0.0000     0.0000     0.0000     0.0000     0.0000     0.0000 </r>
        <r>    -2.4025     0.0000     0.0000     0.0000     0.0000     0.0000     0.0000     0.0000     0.0000     0.0000 </r>
        <r>    -2.3132     0.0000     0.0000     0.0000     0.0000     0.0000     0.0000     0.0000     0.0000     0.0000 </r>
        <r>    -2.2238    -0.0028     0.0000     0.0000     0.0000     0.0000     0.0000     0.0000     0.0000     0.0000 </r>
        <r>    -2.1344     0.0805     0.0007     0.0007     0.0007     0.0000     0.0000     0.0000     0.0000     0.0000 </r>
        <r>    -2.0451     0.0050     0.0000     0.0000     0.0000     0.0000     0.0000     0.0000     0.0000     0.0000 </r>
        <r>    -1.9557    -0.0001     0.0000     0.0000     0.0000     0.0000     0.0000     0.0000     0.0000     0.0000 </r>
        <r>    -1.8663     0.0000     0.0000     0.0000     0.0000     0.0000     0.0000     0.0000     0.0000     0.0000 </r>
        <r>    -1.7770     0.0000     0.0000     0.0000     0.0000     0.0000     0.0000     0.0000     0.0000     0.0000 </r>
        <r>    -1.6876     0.0000     0.0000     0.0000     0.0000     0.0000     0.0000     0.0000     0.0000     0.0000 </r>
        <r>    -1.5982    -0.0014     0.0000     0.0000    -0.0001     0.0000     0.0000     0.0000     0.0000     0.0000 </r>
        <r>    -1.5089     0.0604     0.0005     0.0005     0.0045     0.0002     0.0000     0.0001     0.0002     0.0002 </r>
        <r>    -1.4195     0.1819     0.0014     0.0014     0.0134     0.0005     0.0001     0.0002     0.0005     0.0005 </r>
        <r>    -1.3301    -0.0067    -0.0001    -0.0001    -0.0005     0.0000     0.0000     0.0000     0.0000     0.0000 </r>
        <r>    -1.2408     0.0000     0.0000     0.0000     0.0000     0.0000     0.0000     0.0000     0.0000     0.0000 </r>
        <r>    -1.1514     0.0000     0.0000     0.0000     0.0000     0.0000     0.0000     0.0000     0.0000     0.0000 </r>
        <r>    -1.0620     0.0000     0.0000     0.0000     0.0000     0.0000     0.0000     0.0000     0.0000     0.0000 </r>
        <r>    -0.9727    -0.0038    -0.0003    -0.0003     0.0000     0.0000    -0.0001     0.0000     0.0000     0.0000 </r>
        <r>    -0.8833     0.1251     0.0087     0.0087     0.0008     0.0006     0.0032     0.0001     0.0006     0.0003 </r>
        <r>    -0.7939     0.1025     0.0071     0.0071     0.0006     0.0005     0.0026     0.0001     0.0005     0.0002 </r>
        <r>    -0.7046    -0.0028    -0.0002    -0.0002     0.0000     0.0000    -0.0001     0.0000     0.0000     0.0000 </r>
        <r>    -0.6152     0.0000     0.0000     0.0000     0.0000     0.0000     0.0000     0.0000     0.0000     0.0000 </r>
        <r>    -0.5258    -0.0001     0.0000     0.0000     0.0000     0.0000     0.0000     0.0000     0.0000     0.0000 </r>
        <r>    -0.4365     0.0044     0.0003     0.0002     0.0003     0.0002     0.0002     0.0000     0.0002     0.0000 </r>
        <r>    -0.3471     0.0602     0.0038     0.0025     0.0038     0.0028     0.0027    -0.0003     0.0027     0.0000 </r>
        <r>    -0.2578     0.1999     0.0013     0.0419     0.0013     0.0002     0.0014     0.0107     0.0014     0.0000 </r>
        <r>    -0.1684     0.0086     0.0001     0.0018     0.0001     0.0000     0.0001     0.0005     0.0001     0.0000 </r>
        <r>    -0.0790    -0.0003     0.0000    -0.0001     0.0000     0.0000     0.0000     0.0000     0.0000     0.0000 </r>
        <r>     0.0103     0.0000     0.0000     0.0000     0.0000     0.0000     0.0000     0.0000     0.0000     0.0000 </r>
        <r>     0.0997    -0.0015    -0.0001     0.0000    -0.0003    -0.0001     0.0000     0.0000     0.0000     0.0000 </r>
        <r>     0.1891     0.0700     0.0045     0.0003     0.0139     0.0049     0.0009     0.0009     0.0009     0.0013 </r>
        <r>     0.2784     0.3280     0.0209     0.0013     0.0652     0.0232     0.0041     0.0043     0.0042     0.0061 </r>
[...]
        <r>  0.0004 </r>
       </set>
       <set comment="band 3">
        <r>  0.0015 </r>
       </set>
       <set comment="band 4">
        <r>  0.0000 </r>
       </set>
       <set comment="band 5">
        <r>  0.0000 </r>
       </set>
       <set comment="band 6">
        <r>  0.0954 </r>
       </set>
       <set comment="band 7">
        <r>  0.4181 </r>
       </set>
       <set comment="band 8">
        <r> 43.9496 </r>
       </set>
       <set comment="band 9">
        <r>  0.0001 </r>
       </set>
      </set>
     </set>
     <set comment="spin2">
      <set comment="kpoint 1">
       <set comment="band 1">
        <r>  0.7960 </r>
       </set>
       <set comment="band 2">
        <r>  0.0001 </r>
       </set>
       <set comment="band 3">
        <r>  0.0000 </r>
       </set>
       <set comment="band 4">
        <r>  0.0000 </r>
       </set>
       <set comment="band 5">
        <r>  0.0000 </r>
       </set>
       <set comment="band 6">
        <r>  0.0000 </r>
       </set>
       <set comment="band 7">
        <r>  0.0008 </r>
       </set>
       <set comment="band 8">
        <r> 43.8188 </r>
       </set>
       <set comment="band 9">
        <r>  0.0615 </r>
       </set>
      </set>
      <set comment="kpoint 2">
       <set comment="band 1">
        <r>  0.7107 </r>
       </set>
       <set comment="band 2">
        <r>  0.0012 </r>
       </set>
       <set comment="band 3">
        <r>  0.0000 </r>
       </set>
       <set comment="band 4">
        <r>  0.0000 </r>
       </set>
       <set comment="band 5">
        <r>  0.0000 </r>
       </set>
       <set comment="band 6">
        <r>  0.0038 </r>
       </set>
       <set comment="band 7">
        <r> 42.4274 </r>
       </set>
       <set comment="band 8">
        <r>  1.4477 </r>
       </set>
       <set comment="band 9">
        <r>  0.0365 </r>
       </set>
      </set>
      <set comment="kpoint 3">
       <set comment="band 1">
        <r>  0.4634 </r>
       </set>
       <set comment="band 2">
        <r>  0.0327 </r>
       </set>
       <set comment="band 3">
        <r>  0.0035 </r>
       </set>
       <set comment="band 4">
        <r>  0.0000 </r>
       </set>
       <set comment="band 5">
        <r>  0.0000 </r>
       </set>
       <set comment="band 6">
        <r>  0.0114 </r>
       </set>
       <set comment="band 7">
        <r>  0.1986 </r>
       </set>
       <set comment="band 8">
        <r> 43.3247 </r>
       </set>
       <set comment="band 9">
        <r>  0.7586 </r>
       </set>
      </set>
      <set comment="kpoint 4">
       <set comment="band 1">
        <r>  0.3374 </r>
       </set>
       <set comment="band 2">
        <r>  0.0006 </r>
       </set>
       <set comment="band 3">
        <r>  0.0000 </r>
       </set>
       <set comment="band 4">
        <r>  0.0050 </r>
       </set>
       <set comment="band 5">
        <r>  0.0000 </r>
       </set>
       <set comment="band 6">
        <r>  0.0000 </r>
       </set>
       <set comment="band 7">
        <r>  0.4727 </r>
       </set>
       <set comment="band 8">
        <r>  0.0036 </r>
       </set>
       <set comment="band 9">
        <r> 43.9910 </r>
       </set>
      </set>
      <set comment="kpoint 5">
       <set comment="band 1">
        <r>  0.5618 </r>
       </set>
       <set comment="band 2">
        <r>  0.0192 </r>
       </set>
       <set comment="band 3">
        <r>  0.0033 </r>
       </set>
       <set comment="band 4">
        <r>  0.0000 </r>
       </set>
       <set comment="band 5">
        <r>  0.0075 </r>
       </set>
       <set comment="band 6">
        <r>  0.0000 </r>
       </set>
       <set comment="band 7">
        <r>  0.1004 </r>
       </set>
       <set comment="band 8">
        <r> 43.7787 </r>
       </set>
       <set comment="band 9">
        <r>  0.2596 </r>
       </set>
      </set>
      <set comment="kpoint 6">
       <set comment="band 1">
        <r>  0.7532 </r>
       </set>
       <set comment="band 2">
        <r>  0.0002 </r>
       </set>
       <set comment="band 3">
        <r>  0.0000 </r>
       </set>
       <set comment="band 4">
        <r>  0.0000 </r>
       </set>
       <set comment="band 5">
        <r>  0.0031 </r>
       </set>
       <set comment="band 6">
        <r>  0.0000 </r>
       </set>
       <set comment="band 7">
        <r> 43.7403 </r>
       </set>
       <set comment="band 8">
        <r>  0.0208 </r>
       </set>
       <set comment="band 9">
        <r>  0.1353 </r>
       </set>
      </set>
      <set comment="kpoint 7">
       <set comment="band 1">
        <r>  0.6563 </r>
       </set>
       <set comment="band 2">
        <r>  0.0002 </r>
       </set>
       <set comment="band 3">
        <r>  0.0138 </r>
       </set>
       <set comment="band 4">
        <r>  0.0000 </r>
       </set>
       <set comment="band 5">
        <r>  0.0097 </r>
       </set>
       <set comment="band 6">
        <r>  0.0000 </r>
       </set>
       <set comment="band 7">
        <r> 43.6410 </r>
       </set>
       <set comment="band 8">
        <r>  0.2143 </r>
       </set>
       <set comment="band 9">
        <r>  0.0094 </r>
       </set>
      </set>
      <set comment="kpoint 8">
       <set comment="band 1">
        <r>  0.4435 </r>
       </set>
       <set comment="band 2">
        <r>  0.0025 </r>
       </set>
       <set comment="band 3">
        <r>  0.0457 </r>
       </set>
       <set comment="band 4">
        <r>  0.0037 </r>
       </set>
       <set comment="band 5">
        <r>  0.0072 </r>
       </set>
       <set comment="band 6">
        <r>  0.0221 </r>
       </set>
       <set comment="band 7">
        <r>  0.3070 </r>
       </set>
       <set comment="band 8">
        <r> 43.7749 </r>
       </set>
       <set comment="band 9">
        <r>  0.0052 </r>
       </set>
      </set>
      <set comment="kpoint 9">
       <set comment="band 1">
        <r>  0.2301 </r>
       </set>
       <set comment="band 2">
        <r>  0.0008 </r>
       </set>
       <set comment="band 3">
        <r>  0.0139 </r>
       </set>
       <set comment="band 4">
        <r>  0.0012 </r>
       </set>
       <set comment="band 5">
        <r>  0.0332 </r>
       </set>
       <set comment="band 6">
        <r>  0.0017 </r>
       </set>
       <set comment="band 7">
        <r>  0.4981 </r>
       </set>
       <set comment="band 8">
        <r> 43.9037 </r>
       </set>
       <set comment="band 9">
        <r>  0.0315 </r>
       </set>
      </set>
      <set comment="kpoint 10">
       <set comment="band 1">
        <r>  0.3808 </r>
       </set>
       <set comment="band 2">
        <r>  0.0038 </r>
       </set>
       <set comment="band 3">
        <r>  0.0164 </r>
       </set>
       <set comment="band 4">
        <r>  0.0009 </r>
       </set>
       <set comment="band 5">
        <r>  0.0001 </r>
       </set>
       <set comment="band 6">
        <r>  0.1064 </r>
       </set>
       <set comment="band 7">
        <r>  0.2279 </r>
       </set>
       <set comment="band 8">
        <r> 43.9882 </r>
       </set>
       <set comment="band 9">
        <r>  0.0072 </r>
       </set>
      </set>
      <set comment="kpoint 11">
       <set comment="band 1">
        <r>  0.6172 </r>
       </set>
       <set comment="band 2">
        <r>  0.0025 </r>
       </set>
       <set comment="band 3">
        <r>  0.0039 </r>
       </set>
       <set comment="band 4">
        <r>  0.0011 </r>
       </set>
       <set comment="band 5">
        <r>  0.0055 </r>
       </set>
       <set comment="band 6">
        <r>  0.0092 </r>
       </set>
       <set comment="band 7">
        <r> 24.1582 </r>
       </set>
       <set comment="band 8">
        <r> 19.7596 </r>
       </set>
       <set comment="band 9">
        <r>  0.0761 </r>
       </set>
      </set>
      <set comment="kpoint 12">
       <set comment="band 1">
        <r>  0.2240 </r>
       </set>
       <set comment="band 2">
        <r>  0.0001 </r>
       </set>
       <set comment="band 3">
        <r>  0.1463 </r>
       </set>
       <set comment="band 4">
        <r>  0.0000 </r>
       </set>
       <set comment="band 5">
        <r>  0.0114 </r>
       </set>
       <set comment="band 6">
        <r>  0.0000 </r>
       </set>
       <set comment="band 7">
        <r>  0.1481 </r>
       </set>
       <set comment="band 8">
        <r> 43.5165 </r>
       </set>
       <set comment="band 9">
        <r>  0.0000 </r>
       </set>
      </set>
      <set comment="kpoint 13">
       <set comment="band 1">
        <r>  0.0923 </r>
       </set>
       <set comment="band 2">
        <r>  0.0002 </r>
       </set>
       <set comment="band 3">
        <r>  0.0335 </r>
       </set>
       <set comment="band 4">
        <r>  0.0307 </r>
       </set>
       <set comment="band 5">
        <r>  0.0099 </r>
       </set>
       <set comment="band 6">
        <r>  0.0253 </r>
       </set>
       <set comment="band 7">
        <r>  0.4123 </r>
       </set>
       <set comment="band 8">
        <r>  0.0697 </r>
       </set>
       <set comment="band 9">
        <r> 43.2593 </r>
       </set>
      </set>
      <set comment="kpoint 14">
       <set comment="band 1">
        <r>  0.1093 </r>
       </set>
       <set comment="band 2">
        <r>  0.0352 </r>
       </set>
       <set comment="band 3">
        <r>  0.0014 </r>
       </set>
       <set comment="band 4">
        <r>  0.0237 </r>
       </set>
       <set comment="band 5">
        <r>  0.0220 </r>
       </set>
       <set comment="band 6">
        <r>  0.4255 </r>
       </set>
       <set comment="band 7">
        <r>  0.1048 </r>
       </set>
       <set comment="band 8">
        <r>  0.9825 </r>
       </set>
       <set comment="band 9">
        <r> 43.0614 </r>
       </set>
      </set>
      <set comment="kpoint 15">
       <set comment="band 1">
        <r>  0.3468 </r>
       </set>
       <set comment="band 2">
        <r>  0.0047 </r>
       </set>
       <set comment="band 3">
        <r>  0.0249 </r>
       </set>
       <set comment="band 4">
        <r>  0.0003 </r>
       </set>
       <set comment="band 5">
        <r>  0.0000 </r>
       </set>
       <set comment="band 6">
        <r>  0.0320 </r>
       </set>
       <set comment="band 7">
        <r>  0.3700 </r>
       </set>
       <set comment="band 8">
        <r> 43.8611 </r>
       </set>
       <set comment="band 9">
        <r>  0.1370 </r>
       </set>
      </set>
      <set comment="kpoint 16">
       <set comment="band 1">
        <r>  0.1226 </r>
       </set>
       <set comment="band 2">
        <r>  0.0000 </r>
       </set>
       <set comment="band 3">
        <r>  0.0366 </r>
       </set>
       <set comment="band 4">
        <r>  0.0000 </r>
       </set>
       <set comment="band 5">
        <r>  0.0000 </r>
       </set>
       <set comment="band 6">
        <r>  0.0022 </r>
       </set>
       <set comment="band 7">
        <r>  0.2800 </r>
       </set>
       <set comment="band 8">
        <r>  0.0000 </r>
       </set>
       <set comment="band 9">
        <r>  1.3754 </r>
       </set>
      </set>
      <set comment="kpoint 17">
       <set comment="band 1">
        <r>  0.1985 </r>
       </set>
       <set comment="band 2">
        <r>  0.0001 </r>
       </set>
       <set comment="band 3">
        <r>  0.1173 </r>
       </set>
       <set comment="band 4">
        <r>  0.0003 </r>
       </set>
       <set comment="band 5">
        <r>  0.0000 </r>
       </set>
       <set comment="band 6">
        <r>  0.0545 </r>
       </set>
       <set comment="band 7">
        <r>  0.2882 </r>
       </set>
       <set comment="band 8">
        <r> 43.3011 </r>
       </set>
       <set comment="band 9">
        <r>  0.5874 </r>
       </set>
      </set>
      <set comment="kpoint 18">
       <set comment="band 1">
        <r>  0.4662 </r>
       </set>
       <set comment="band 2">
        <r>  0.0003 </r>
       </set>
       <set comment="band 3">
        <r>  0.0832 </r>
       </set>
       <set comment="band 4">
        <r>  0.0000 </r>
       </set>
       <set comment="band 5">
        <r>  0.0109 </r>
       </set>
       <set comment="band 6">
        <r>  0.0000 </r>
       </set>
       <set comment="band 7">
        <r> 43.3329 </r>
       </set>
       <set comment="band 8">
        <r>  0.5187 </r>
       </set>
       <set comment="band 9">
        <r>  0.0000 </r>
       </set>
      </set>
      <set comment="kpoint 19">
       <set comment="band 1">
        <r>  0.6628 </r>
       </set>
       <set comment="band 2">
        <r>  0.0094 </r>
       </set>
       <set comment="band 3">
        <r>  0.0000 </r>
       </set>
       <set comment="band 4">
        <r>  0.0000 </r>
       </set>
       <set comment="band 5">
        <r>  0.0000 </r>
       </set>
       <set comment="band 6">
        <r>  0.0000 </r>
       </set>
       <set comment="band 7">
        <r>  0.0631 </r>
       </set>
       <set comment="band 8">
        <r> 43.8205 </r>
       </set>
       <set comment="band 9">
        <r>  0.1127 </r>
       </set>
      </set>
      <set comment="kpoint 20">
       <set comment="band 1">
        <r>  0.5279 </r>
       </set>
       <set comment="band 2">
        <r>  0.0069 </r>
       </set>
       <set comment="band 3">
        <r>  0.0014 </r>
       </set>
       <set comment="band 4">
        <r>  0.0000 </r>
       </set>
       <set comment="band 5">
        <r>  0.0000 </r>
       </set>
       <set comment="band 6">
        <r>  0.0346 </r>
       </set>
       <set comment="band 7">
        <r>  0.2056 </r>
       </set>
       <set comment="band 8">
        <r> 43.8553 </r>
       </set>
       <set comment="band 9">
        <r>  0.1247 </r>
       </set>
      </set>
      <set comment="kpoint 21">
       <set comment="band 1">
        <r>  0.2657 </r>
       </set>
       <set comment="band 2">
        <r>  0.0007 </r>
       </set>
       <set comment="band 3">
        <r>  0.0051 </r>
       </set>
       <set comment="band 4">
        <r>  0.0000 </r>
       </set>
       <set comment="band 5">
        <r>  0.0000 </r>
       </set>
       <set comment="band 6">
        <r>  0.3121 </r>
       </set>
       <set comment="band 7">
        <r>  0.1792 </r>
       </set>
       <set comment="band 8">
        <r> 43.8249 </r>
       </set>
       <set comment="band 9">
        <r>  0.1679 </r>
       </set>
      </set>
      <set comment="kpoint 22">
       <set comment="band 1">
        <r>  0.2078 </r>
       </set>
       <set comment="band 2">
        <r>  0.0000 </r>
       </set>
       <set comment="band 3">
        <r>  0.0791 </r>
       </set>
       <set comment="band 4">
        <r>  0.0000 </r>
       </set>
       <set comment="band 5">
        <r>  0.0000 </r>
       </set>
       <set comment="band 6">
        <r>  0.0012 </r>
       </set>
       <set comment="band 7">
        <r>  0.4407 </r>
       </set>
       <set comment="band 8">
        <r> 43.8585 </r>
       </set>
       <set comment="band 9">
        <r>  0.1253 </r>
       </set>
      </set>
      <set comment="kpoint 23">
       <set comment="band 1">
        <r>  0.4029 </r>
       </set>
       <set comment="band 2">
        <r>  0.0122 </r>
       </set>
       <set comment="band 3">
        <r>  0.0377 </r>
       </set>
       <set comment="band 4">
        <r>  0.0000 </r>
       </set>
       <set comment="band 5">
        <r>  0.0172 </r>
       </set>
       <set comment="band 6">
        <r>  0.0000 </r>
       </set>
       <set comment="band 7">
        <r>  0.2446 </r>
       </set>
       <set comment="band 8">
        <r> 43.9079 </r>
       </set>
       <set comment="band 9">
        <r>  0.1102 </r>
       </set>
      </set>
      <set comment="kpoint 24">
       <set comment="band 1">
        <r>  0.1527 </r>
       </set>
       <set comment="band 2">
        <r>  0.0234 </r>
       </set>
       <set comment="band 3">
        <r>  0.0602 </r>
       </set>
       <set comment="band 4">
        <r>  0.0092 </r>
       </set>
       <set comment="band 5">
        <r>  0.0124 </r>
       </set>
       <set comment="band 6">
        <r>  0.2513 </r>
       </set>
       <set comment="band 7">
        <r>  0.2277 </r>
       </set>
       <set comment="band 8">
        <r> 16.9869 </r>
       </set>
       <set comment="band 9">
        <r> 27.0039 </r>
       </set>
      </set>
      <set comment="kpoint 25">
       <set comment="band 1">
        <r>  0.0253 </r>
       </set>
       <set comment="band 2">
        <r>  0.0180 </r>
       </set>
       <set comment="band 3">
        <r>  0.0278 </r>
       </set>
       <set comment="band 4">
        <r>  0.1213 </r>
       </set>
       <set comment="band 5">
        <r>  0.0169 </r>
       </set>
       <set comment="band 6">
        <r>  0.4455 </r>
       </set>
       <set comment="band 7">
        <r>  0.0224 </r>
       </set>
       <set comment="band 8">
        <r>  0.0889 </r>
       </set>
       <set comment="band 9">
        <r> 44.0100 </r>
       </set>
      </set>
      <set comment="kpoint 26">
       <set comment="band 1">
        <r>  0.0944 </r>
       </set>
       <set comment="band 2">
        <r>  0.0053 </r>
       </set>
       <set comment="band 3">
        <r>  0.0213 </r>
       </set>
       <set comment="band 4">
        <r>  0.0000 </r>
       </set>
       <set comment="band 5">
        <r>  0.0000 </r>
       </set>
       <set comment="band 6">
        <r>  0.4614 </r>
       </set>
       <set comment="band 7">
        <r>  0.0767 </r>
       </set>
       <set comment="band 8">
        <r> 15.5913 </r>
       </set>
       <set comment="band 9">
        <r> 28.5273 </r>
       </set>
      </set>
      <set comment="kpoint 27">
       <set comment="band 1">
        <r>  0.3965 </r>
       </set>
       <set comment="band 2">
        <r>  0.0312 </r>
       </set>
       <set comment="band 3">
        <r>  0.0000 </r>
       </set>
       <set comment="band 4">
        <r>  0.0000 </r>
       </set>
       <set comment="band 5">
        <r>  0.0000 </r>
       </set>
       <set comment="band 6">
        <r>  0.0000 </r>
       </set>
       <set comment="band 7">
        <r>  0.3226 </r>
       </set>
       <set comment="band 8">
        <r>  0.0737 </r>
       </set>
       <set comment="band 9">
        <r> 43.9947 </r>
       </set>
      </set>
      <set comment="kpoint 28">
       <set comment="band 1">
        <r>  0.2875 </r>
       </set>
       <set comment="band 2">
        <r>  0.0004 </r>
       </set>
       <set comment="band 3">
        <r>  0.0015 </r>
       </set>
       <set comment="band 4">
        <r>  0.0000 </r>
       </set>
       <set comment="band 5">
        <r>  0.0000 </r>
       </set>
       <set comment="band 6">
        <r>  0.0951 </r>
       </set>
       <set comment="band 7">
        <r>  0.4177 </r>
       </set>
       <set comment="band 8">
        <r> 43.9500 </r>
       </set>
       <set comment="band 9">
        <r>  0.0001 </r>
       </set>
      </set>
     </set>
    </set>
   </array>
  </projected>
 </calculation>
 <structure name="finalpos" >
  <crystal>
   <varray name="basis" >
    <v>       0.00000000       2.12500000       2.12500000 </v>
    <v>       2.12500000       0.00000000       2.12500000 </v>
    <v>       2.12500000       2.12500000       0.00000000 </v>
   </varray>
   <i name="volume">     19.19140625 </i>
   <varray name="rec_basis" >
    <v>      -0.23529412       0.23529412       0.23529412 </v>
    <v>       0.23529412      -0.23529412       0.23529412 </v>
    <v>       0.23529412       0.23529412      -0.23529412 </v>
   </varray>
  </crystal>
  <varray name="positions" >
   <v>       0.00000000       0.00000000       0.00000000 </v>
  </varray>
 </structure>
</modeling>
