   1   1   1   0
  0.1813235E+02  0.2866544E-09  0.2866544E-09  0.2866544E-09  0.5000000E-15
  1.000000000000000E-004
  CAR 
 unknown system                          
     16.55357862     -2.83637400  301      5.79870731      1.00000000
     -2.836  0.0000E+00  0.0000E+00  0.0000E+00  0.0000E+00
     -2.772  0.0000E+00  0.0000E+00  0.0000E+00  0.0000E+00
     -2.707  0.0000E+00  0.0000E+00  0.0000E+00  0.0000E+00
     -2.642  0.0000E+00  0.0000E+00  0.0000E+00  0.0000E+00
     -2.578  0.0000E+00  0.0000E+00  0.0000E+00  0.0000E+00
     -2.513  0.0000E+00  0.0000E+00  0.0000E+00  0.0000E+00
     -2.449  0.0000E+00  0.0000E+00  0.0000E+00  0.0000E+00
     -2.384 -0.1160E-34 -0.2460E-32 -0.7499E-36 -0.1590E-33
     -2.319 -0.1775E-25 -0.1683E-23 -0.1147E-26 -0.1088E-24
     -2.255 -0.9325E-18 -0.3947E-16 -0.6027E-19 -0.2551E-17
     -2.190 -0.1595E-11 -0.2982E-10 -0.1031E-12 -0.1928E-11
     -2.125 -0.9070E-07 -0.7398E-06 -0.5862E-08 -0.4782E-07
     -2.061 -0.1499E-03 -0.5017E-03 -0.9692E-05 -0.3248E-04
     -1.996 -0.3000E-02  0.9103E-03 -0.2036E-03  0.2636E-04
     -1.932  0.6206E-01  0.7880E-01  0.3808E-02  0.5119E-02
     -1.867  0.3667E-01  0.1510E-01  0.6178E-02  0.6095E-02
     -1.802 -0.2719E-02 -0.1470E-02  0.6002E-02  0.6000E-02
     -1.738 -0.3329E-04 -0.6364E-05  0.6000E-02  0.6000E-02
     -1.673 -0.1535E-04 -0.7471E-04  0.5999E-02  0.5995E-02
     -1.608 -0.2522E-02 -0.4070E-02  0.5836E-02  0.5732E-02
     -1.544  0.2900E-01  0.6025E-01  0.7710E-02  0.9626E-02
     -1.479  0.9931E-01  0.7206E-01  0.1413E-01  0.1428E-01
     -1.414 -0.1544E-02 -0.4261E-02  0.1403E-01  0.1401E-01
     -1.350 -0.4526E-03 -0.1252E-03  0.1400E-01  0.1400E-01
     -1.285 -0.9147E-05 -0.5100E-04  0.1400E-01  0.1400E-01
     -1.221 -0.3528E-02 -0.7872E-02  0.1377E-01  0.1349E-01
     -1.156  0.2509E-01  0.9201E-01  0.1539E-01  0.1944E-01
     -1.091  0.3265E+00  0.2942E+00  0.3650E-01  0.3845E-01
     -1.027  0.2688E-01 -0.5722E-02  0.3824E-01  0.3808E-01
     -0.962 -0.3650E-02 -0.1265E-02  0.3800E-01  0.3800E-01
     -0.897 -0.9266E-05 -0.1295E-05  0.3800E-01  0.3800E-01
     -0.833 -0.6109E-09 -0.3727E-10  0.3800E-01  0.3800E-01
     -0.768 -0.1237E-14 -0.2549E-21  0.3800E-01  0.3800E-01
     -0.703 -0.8518E-16 -0.2974E-14  0.3800E-01  0.3800E-01
     -0.639 -0.7387E-10 -0.1170E-08  0.3800E-01  0.3800E-01
     -0.574 -0.2108E-05 -0.1449E-04  0.3800E-01  0.3800E-01
     -0.510 -0.1667E-02 -0.4555E-02  0.3789E-01  0.3770E-01
     -0.445 -0.1729E-02  0.3813E-01  0.3778E-01  0.4017E-01
     -0.380  0.3141E+00  0.3471E+00  0.5808E-01  0.6260E-01
     -0.316  0.1545E+00  0.8801E-01  0.6807E-01  0.6829E-01
     -0.251 -0.1030E-03 -0.4197E-02  0.6806E-01  0.6802E-01
     -0.186 -0.9973E-03 -0.6044E-03  0.6800E-01  0.6798E-01
     -0.122 -0.8410E-02 -0.1259E-01  0.6745E-01  0.6717E-01
     -0.057  0.1009E+00  0.1962E+00  0.7398E-01  0.7985E-01
      0.007  0.2874E+00  0.2010E+00  0.9255E-01  0.9284E-01
      0.072 -0.7644E-02 -0.1368E-01  0.9206E-01  0.9195E-01
      0.137 -0.1362E-01 -0.8798E-02  0.9118E-01  0.9139E-01
      0.201  0.1916E+00  0.2816E+00  0.1036E+00  0.1096E+00
      0.266  0.2055E+00  0.1081E+00  0.1168E+00  0.1166E+00
      0.331 -0.1273E-01 -0.8829E-02  0.1160E+00  0.1160E+00
      0.395 -0.3219E-03 -0.6919E-04  0.1160E+00  0.1160E+00
      0.460 -0.1314E-06 -0.1196E-07  0.1160E+00  0.1160E+00
      0.525 -0.1590E-11 -0.6340E-13  0.1160E+00  0.1160E+00
      0.589 -0.7156E-14 -0.2091E-12  0.1160E+00  0.1160E+00
      0.654 -0.2292E-08 -0.2924E-07  0.1160E+00  0.1160E+00
      0.718 -0.2297E-04 -0.1245E-03  0.1160E+00  0.1160E+00
      0.783 -0.5811E-02 -0.1143E-01  0.1156E+00  0.1153E+00
      0.848  0.4062E-01  0.1220E+00  0.1182E+00  0.1231E+00
      0.912  0.5166E+00  0.6199E+00  0.1516E+00  0.1632E+00
      0.977  0.5618E+00  0.4045E+00  0.1880E+00  0.1893E+00
      1.042  0.4342E-02 -0.1969E-01  0.1882E+00  0.1881E+00
      1.106 -0.3611E-02 -0.1284E-02  0.1880E+00  0.1880E+00
      1.171 -0.1084E-01 -0.2415E-01  0.1873E+00  0.1864E+00
      1.236  0.7948E-01  0.2878E+00  0.1924E+00  0.2050E+00
      1.300  0.9720E+00  0.8701E+00  0.2553E+00  0.2613E+00
      1.365  0.8457E-01 -0.1596E-01  0.2607E+00  0.2602E+00
      1.429 -0.1801E-01 -0.1600E-01  0.2596E+00  0.2592E+00
      1.494  0.6836E-01  0.1623E+00  0.2640E+00  0.2697E+00
      1.559  0.3683E+00  0.3800E+00  0.2878E+00  0.2943E+00
      1.623  0.3727E+00  0.3359E+00  0.3119E+00  0.3160E+00
      1.688  0.1333E+00  0.6879E-01  0.3205E+00  0.3204E+00
      1.753 -0.7071E-02 -0.6281E-02  0.3200E+00  0.3200E+00
      1.817 -0.8403E-03 -0.1960E-02  0.3200E+00  0.3199E+00
      1.882 -0.2583E-01 -0.2341E-01  0.3183E+00  0.3184E+00
      1.946  0.3332E+00  0.5617E+00  0.3398E+00  0.3547E+00
      2.011  0.9434E+00  0.9280E+00  0.4008E+00  0.4147E+00
      2.076  0.9618E+00  0.9862E+00  0.4630E+00  0.4784E+00
      2.140  0.5025E+00  0.2490E+00  0.4955E+00  0.4945E+00
      2.205  0.5155E-01  0.1740E+00  0.4988E+00  0.5057E+00
      2.270  0.5455E+00  0.4842E+00  0.5340E+00  0.5370E+00
      2.334  0.3110E+00  0.4678E+00  0.5542E+00  0.5673E+00
      2.399  0.5587E+00  0.4352E+00  0.5903E+00  0.5954E+00
      2.464  0.3364E+00  0.3113E+00  0.6120E+00  0.6155E+00
      2.528  0.2163E+00  0.1677E+00  0.6260E+00  0.6263E+00
      2.593 -0.7753E-02  0.1366E-02  0.6255E+00  0.6264E+00
      2.657  0.2808E+00  0.3191E+00  0.6436E+00  0.6471E+00
      2.722  0.9298E-01  0.3397E-01  0.6496E+00  0.6493E+00
      2.787  0.1353E+00  0.2265E+00  0.6584E+00  0.6639E+00
      2.851  0.1016E+01  0.1337E+01  0.7241E+00  0.7503E+00
      2.916  0.1367E+01  0.1119E+01  0.8125E+00  0.8227E+00
      2.981  0.5476E+00  0.5370E+00  0.8478E+00  0.8574E+00
      3.045  0.6911E+00  0.6042E+00  0.8925E+00  0.8964E+00
      3.110  0.5928E-01 -0.2355E-02  0.8963E+00  0.8963E+00
      3.175  0.2928E+00  0.5315E+00  0.9153E+00  0.9306E+00
      3.239  0.9611E+00  0.8323E+00  0.9774E+00  0.9844E+00
      3.304  0.3241E+00  0.3237E+00  0.9983E+00  0.1005E+01
      3.368  0.5467E+00  0.4597E+00  0.1034E+01  0.1035E+01
      3.433  0.8743E-02 -0.1454E-01  0.1034E+01  0.1034E+01
      3.498 -0.5884E-02 -0.5827E-02  0.1034E+01  0.1034E+01
      3.562  0.2261E-01  0.6337E-01  0.1035E+01  0.1038E+01
      3.627  0.1023E+00  0.6553E-01  0.1042E+01  0.1042E+01
      3.692 -0.5040E-02  0.1979E-01  0.1042E+01  0.1043E+01
      3.756  0.2879E+00  0.3114E+00  0.1060E+01  0.1063E+01
      3.821  0.1257E+00  0.1766E+00  0.1068E+01  0.1075E+01
      3.885  0.8440E+00  0.8986E+00  0.1123E+01  0.1133E+01
      3.950  0.2522E+00  0.8276E-01  0.1139E+01  0.1138E+01
      4.015  0.1247E-02  0.5706E-01  0.1139E+01  0.1142E+01
      4.079  0.3262E+00  0.3106E+00  0.1160E+01  0.1162E+01
      4.144  0.2838E-01 -0.2889E-02  0.1162E+01  0.1162E+01
      4.209 -0.1468E-01  0.1627E-01  0.1161E+01  0.1163E+01
      4.273  0.2010E+00  0.3176E+00  0.1174E+01  0.1183E+01
      4.338  0.1183E+01  0.1512E+01  0.1251E+01  0.1281E+01
      4.403  0.1021E+01  0.6302E+00  0.1317E+01  0.1322E+01
      4.467  0.5168E+00  0.8777E+00  0.1350E+01  0.1379E+01
      4.532  0.2227E+01  0.2445E+01  0.1494E+01  0.1537E+01
      4.596  0.1428E+01  0.7694E+00  0.1586E+01  0.1586E+01
      4.661  0.6282E-01  0.2204E+00  0.1590E+01  0.1601E+01
      4.726  0.7167E+00  0.6705E+00  0.1637E+01  0.1644E+01
      4.790  0.5749E+00  0.7117E+00  0.1674E+01  0.1690E+01
      4.855  0.6508E+00  0.5967E+00  0.1716E+01  0.1729E+01
      4.920  0.8658E+00  0.9300E+00  0.1772E+01  0.1789E+01
      4.984  0.5312E+00  0.2704E+00  0.1806E+01  0.1806E+01
      5.049  0.1187E+00  0.2336E+00  0.1814E+01  0.1821E+01
      5.114  0.1315E+01  0.1989E+01  0.1899E+01  0.1950E+01
      5.178  0.1944E+01  0.1190E+01  0.2025E+01  0.2027E+01
      5.243 -0.6709E-01 -0.6091E-01  0.2020E+01  0.2023E+01
      5.307  0.7640E+00  0.9695E+00  0.2070E+01  0.2085E+01
      5.372  0.6855E+00  0.5312E+00  0.2114E+01  0.2120E+01
      5.437  0.5887E+00  0.8400E+00  0.2152E+01  0.2174E+01
      5.501  0.1257E+01  0.1317E+01  0.2233E+01  0.2259E+01
      5.566  0.8583E+00  0.5375E+00  0.2289E+01  0.2294E+01
      5.631  0.3264E+00  0.4061E+00  0.2310E+01  0.2320E+01
      5.695  0.1116E+01  0.1250E+01  0.2382E+01  0.2401E+01
      5.760  0.8800E+00  0.9363E+00  0.2439E+01  0.2461E+01
      5.824  0.1165E+01  0.9726E+00  0.2514E+01  0.2524E+01
      5.889  0.4478E+00  0.5082E+00  0.2543E+01  0.2557E+01
      5.954  0.7651E+00  0.7282E+00  0.2592E+01  0.2604E+01
      6.018  0.6389E+00  0.4749E+00  0.2634E+01  0.2635E+01
      6.083  0.1351E-01  0.9828E-01  0.2635E+01  0.2641E+01
      6.148  0.6179E+00  0.7005E+00  0.2675E+01  0.2686E+01
      6.212  0.5791E+00  0.5483E+00  0.2712E+01  0.2722E+01
      6.277  0.4833E+00  0.4621E+00  0.2743E+01  0.2752E+01
      6.342  0.4517E+00  0.4838E+00  0.2772E+01  0.2783E+01
      6.406  0.3386E+00  0.1762E+00  0.2794E+01  0.2794E+01
      6.471  0.2862E-01  0.8804E-01  0.2796E+01  0.2800E+01
      6.535  0.2102E+00  0.2204E+00  0.2810E+01  0.2814E+01
      6.600  0.1198E+00  0.6561E-01  0.2817E+01  0.2819E+01
      6.665  0.2408E+00  0.3592E+00  0.2833E+01  0.2842E+01
      6.729  0.4164E+00  0.3514E+00  0.2860E+01  0.2865E+01
      6.794  0.2002E+00  0.1236E+00  0.2873E+01  0.2873E+01
      6.859 -0.2659E-01 -0.9936E-02  0.2871E+01  0.2872E+01
      6.923  0.1981E+00  0.3098E+00  0.2884E+01  0.2892E+01
      6.988  0.4830E+00  0.5107E+00  0.2915E+01  0.2925E+01
      7.053  0.2799E+00  0.1199E+00  0.2933E+01  0.2933E+01
      7.117 -0.3080E-01 -0.3193E-01  0.2931E+01  0.2931E+01
      7.182  0.1370E+00  0.3347E+00  0.2940E+01  0.2952E+01
      7.246  0.5191E+00  0.3649E+00  0.2974E+01  0.2976E+01
      7.311  0.8045E-01  0.7360E-01  0.2979E+01  0.2981E+01
      7.376  0.1138E+00  0.1892E+00  0.2986E+01  0.2993E+01
      7.440  0.4553E+00  0.5301E+00  0.3016E+01  0.3027E+01
      7.505  0.3280E+00  0.1504E+00  0.3037E+01  0.3037E+01
      7.570 -0.2132E-01 -0.3040E-01  0.3035E+01  0.3035E+01
      7.634  0.8493E-01  0.2499E+00  0.3041E+01  0.3051E+01
      7.699  0.5959E+00  0.5149E+00  0.3079E+01  0.3084E+01
      7.763  0.6736E-01 -0.1245E-01  0.3084E+01  0.3083E+01
      7.828  0.1421E+00  0.2679E+00  0.3093E+01  0.3101E+01
      7.893  0.2444E+00  0.1213E+00  0.3109E+01  0.3109E+01
      7.957 -0.1219E-01 -0.9603E-02  0.3108E+01  0.3108E+01
      8.022 -0.3473E-02 -0.6476E-02  0.3108E+01  0.3108E+01
      8.087  0.1223E-01  0.5815E-01  0.3109E+01  0.3111E+01
      8.151  0.3455E+00  0.4071E+00  0.3131E+01  0.3138E+01
      8.216  0.4264E+00  0.4242E+00  0.3158E+01  0.3165E+01
      8.281  0.5008E+00  0.6864E+00  0.3191E+01  0.3209E+01
      8.345  0.9277E+00  0.6931E+00  0.3251E+01  0.3254E+01
      8.410  0.1933E-01 -0.4728E-01  0.3252E+01  0.3251E+01
      8.474  0.2810E-01  0.1613E+00  0.3254E+01  0.3262E+01
      8.539  0.6423E+00  0.5878E+00  0.3295E+01  0.3300E+01
      8.604  0.1465E+00  0.2240E+00  0.3305E+01  0.3314E+01
      8.668  0.5644E+00  0.4731E+00  0.3341E+01  0.3345E+01
      8.733  0.3570E+00  0.5578E+00  0.3364E+01  0.3381E+01
      8.798  0.6961E+00  0.5264E+00  0.3409E+01  0.3415E+01
      8.862  0.3132E+00  0.3287E+00  0.3430E+01  0.3436E+01
      8.927  0.4816E+00  0.5668E+00  0.3461E+01  0.3473E+01
      8.991  0.3072E+00  0.1469E+00  0.3481E+01  0.3482E+01
      9.056  0.3947E+00  0.6313E+00  0.3506E+01  0.3523E+01
      9.121  0.9016E+00  0.7970E+00  0.3564E+01  0.3574E+01
      9.185  0.6316E+00  0.7043E+00  0.3605E+01  0.3620E+01
      9.250  0.6315E+00  0.6387E+00  0.3646E+01  0.3661E+01
      9.315  0.1033E+01  0.8567E+00  0.3713E+01  0.3717E+01
      9.379  0.1505E+00  0.2598E+00  0.3723E+01  0.3733E+01
      9.444  0.1016E+01  0.1029E+01  0.3788E+01  0.3800E+01
      9.509  0.6238E+00  0.6196E+00  0.3829E+01  0.3840E+01
      9.573  0.4149E+00  0.2931E+00  0.3855E+01  0.3859E+01
      9.638  0.3163E+00  0.3733E+00  0.3876E+01  0.3883E+01
      9.702  0.6458E+00  0.6252E+00  0.3918E+01  0.3923E+01
      9.767  0.2633E+00  0.2122E+00  0.3935E+01  0.3937E+01
      9.832  0.2394E+00  0.3544E+00  0.3950E+01  0.3960E+01
      9.896  0.8514E+00  0.8045E+00  0.4005E+01  0.4012E+01
      9.961  0.1764E+00  0.1026E+00  0.4016E+01  0.4019E+01
     10.026  0.4085E+00  0.4824E+00  0.4043E+01  0.4050E+01
     10.090  0.3077E+00  0.2029E+00  0.4063E+01  0.4063E+01
     10.155 -0.1355E-01 -0.2386E-01  0.4062E+01  0.4061E+01
     10.220 -0.1621E-01  0.6233E-01  0.4061E+01  0.4065E+01
     10.284  0.8006E+00  0.9451E+00  0.4113E+01  0.4127E+01
     10.349  0.6202E+00  0.5264E+00  0.4153E+01  0.4161E+01
     10.413  0.5942E+00  0.5805E+00  0.4191E+01  0.4198E+01
     10.478  0.7185E+00  0.7729E+00  0.4237E+01  0.4248E+01
     10.543  0.5052E+00  0.3514E+00  0.4270E+01  0.4271E+01
     10.607  0.3020E+00  0.6223E+00  0.4290E+01  0.4311E+01
     10.672  0.1423E+01  0.1408E+01  0.4382E+01  0.4402E+01
     10.737  0.1807E+01  0.1934E+01  0.4498E+01  0.4527E+01
     10.801  0.1938E+01  0.2099E+01  0.4624E+01  0.4663E+01
     10.866  0.2183E+01  0.1862E+01  0.4765E+01  0.4783E+01
     10.930  0.1725E+01  0.2010E+01  0.4876E+01  0.4913E+01
     10.995  0.1827E+01  0.1618E+01  0.4994E+01  0.5017E+01
     11.060  0.1701E+01  0.1659E+01  0.5104E+01  0.5125E+01
     11.124  0.6267E+00  0.2973E+00  0.5145E+01  0.5144E+01
     11.189 -0.4167E-01 -0.2889E-01  0.5142E+01  0.5142E+01
     11.254 -0.1695E-02 -0.2488E-02  0.5142E+01  0.5142E+01
     11.318 -0.1689E-01 -0.3158E-02  0.5141E+01  0.5142E+01
     11.383  0.2520E+00  0.4175E+00  0.5157E+01  0.5169E+01
     11.448  0.4989E+00  0.3384E+00  0.5189E+01  0.5191E+01
     11.512  0.7162E-01  0.1091E+00  0.5194E+01  0.5198E+01
     11.577  0.1868E+00  0.2083E+00  0.5206E+01  0.5211E+01
     11.641  0.1890E+00  0.1163E+00  0.5218E+01  0.5219E+01
     11.706 -0.4620E-02 -0.9019E-02  0.5218E+01  0.5218E+01
     11.771 -0.1186E-01 -0.1066E-01  0.5217E+01  0.5217E+01
     11.835  0.1505E+00  0.2672E+00  0.5227E+01  0.5235E+01
     11.900  0.2448E+00  0.1253E+00  0.5243E+01  0.5243E+01
     11.965 -0.1563E-01 -0.1835E-01  0.5242E+01  0.5241E+01
     12.029  0.2341E-01  0.1032E+00  0.5243E+01  0.5248E+01
     12.094  0.3205E+00  0.2745E+00  0.5264E+01  0.5266E+01
     12.159  0.9081E-01  0.1378E+00  0.5270E+01  0.5275E+01
     12.223  0.3101E+00  0.2482E+00  0.5290E+01  0.5291E+01
     12.288  0.2676E-02 -0.1195E-01  0.5290E+01  0.5290E+01
     12.352 -0.2107E-02 -0.1621E-02  0.5290E+01  0.5290E+01
     12.417 -0.1344E-01 -0.1277E-01  0.5289E+01  0.5289E+01
     12.482  0.1824E+00  0.3316E+00  0.5301E+01  0.5311E+01
     12.546  0.3108E+00  0.1588E+00  0.5321E+01  0.5321E+01
     12.611 -0.1483E-01 -0.1315E-01  0.5320E+01  0.5320E+01
     12.676 -0.5379E-03  0.4573E-02  0.5320E+01  0.5320E+01
     12.740  0.2260E-02  0.4798E-01  0.5320E+01  0.5323E+01
     12.805  0.5254E+00  0.7137E+00  0.5354E+01  0.5369E+01
     12.869  0.6259E+00  0.5974E+00  0.5395E+01  0.5408E+01
     12.934  0.1278E+01  0.1489E+01  0.5477E+01  0.5504E+01
     12.999  0.7275E+00  0.3052E+00  0.5524E+01  0.5524E+01
     13.063  0.1704E+00  0.2990E+00  0.5535E+01  0.5543E+01
     13.128  0.7666E+00  0.9363E+00  0.5585E+01  0.5604E+01
     13.193  0.6878E+00  0.4972E+00  0.5629E+01  0.5636E+01
     13.257  0.2111E+00  0.1022E+00  0.5643E+01  0.5643E+01
     13.322 -0.1487E-01 -0.1618E-01  0.5642E+01  0.5642E+01
     13.387  0.2445E-02  0.6811E-01  0.5642E+01  0.5646E+01
     13.451  0.3139E+00  0.3092E+00  0.5662E+01  0.5666E+01
     13.516  0.6215E-01  0.1484E-01  0.5666E+01  0.5667E+01
     13.580  0.6238E-01  0.6597E-01  0.5670E+01  0.5671E+01
     13.645  0.1373E+00  0.2612E+00  0.5679E+01  0.5688E+01
     13.710  0.2669E+00  0.1272E+00  0.5697E+01  0.5696E+01
     13.774  0.1675E-01  0.6568E-01  0.5698E+01  0.5701E+01
     13.839  0.1585E+00  0.1217E+00  0.5708E+01  0.5708E+01
     13.904  0.3335E-02 -0.6114E-02  0.5708E+01  0.5708E+01
     13.968 -0.1115E-02 -0.2797E-03  0.5708E+01  0.5708E+01
     14.033 -0.3385E-05 -0.1448E-04  0.5708E+01  0.5708E+01
     14.098 -0.1419E-02 -0.4516E-02  0.5708E+01  0.5708E+01
     14.162 -0.3892E-02  0.3970E-01  0.5708E+01  0.5710E+01
     14.227  0.3002E+00  0.3243E+00  0.5727E+01  0.5731E+01
     14.291  0.8259E-01  0.8830E-02  0.5732E+01  0.5732E+01
     14.356 -0.2147E-01  0.4322E-01  0.5731E+01  0.5735E+01
     14.421  0.3950E+00  0.4831E+00  0.5757E+01  0.5766E+01
     14.485  0.1922E+00  0.3904E-01  0.5769E+01  0.5768E+01
     14.550 -0.1687E-01 -0.1227E-01  0.5768E+01  0.5768E+01
     14.615 -0.1618E-01  0.4683E-01  0.5767E+01  0.5771E+01
     14.679  0.5639E+00  0.6551E+00  0.5803E+01  0.5813E+01
     14.744  0.3098E+00  0.2404E+00  0.5823E+01  0.5828E+01
     14.808  0.3474E+00  0.3068E+00  0.5846E+01  0.5848E+01
     14.873  0.3965E-01 -0.2862E-02  0.5848E+01  0.5848E+01
     14.938 -0.5298E-02 -0.3498E-02  0.5848E+01  0.5848E+01
     15.002 -0.1255E-01  0.1417E-02  0.5847E+01  0.5848E+01
     15.067  0.2282E+00  0.3005E+00  0.5862E+01  0.5867E+01
     15.132  0.2902E+00  0.3026E+00  0.5881E+01  0.5887E+01
     15.196  0.5459E+00  0.6448E+00  0.5916E+01  0.5929E+01
     15.261  0.4604E+00  0.2578E+00  0.5946E+01  0.5945E+01
     15.326 -0.3734E-01 -0.3009E-01  0.5943E+01  0.5943E+01
     15.390  0.1667E+00  0.2692E+00  0.5954E+01  0.5961E+01
     15.455  0.2335E+00  0.1847E+00  0.5969E+01  0.5973E+01
     15.519  0.3063E+00  0.3004E+00  0.5989E+01  0.5992E+01
     15.584  0.5062E-01 -0.3793E-02  0.5992E+01  0.5992E+01
     15.649  0.1474E-01  0.5395E-01  0.5993E+01  0.5995E+01
     15.713  0.1050E+00  0.7643E-01  0.6000E+01  0.6000E+01
     15.778  0.1214E-02 -0.4220E-02  0.6000E+01  0.6000E+01
     15.843 -0.6690E-03 -0.1513E-03  0.6000E+01  0.6000E+01
     15.907 -0.9865E-06 -0.7648E-07  0.6000E+01  0.6000E+01
     15.972 -0.3977E-10 -0.1134E-11  0.6000E+01  0.6000E+01
     16.037 -0.5497E-16  0.0000E+00  0.6000E+01  0.6000E+01
     16.101  0.0000E+00  0.0000E+00  0.6000E+01  0.6000E+01
     16.166  0.0000E+00  0.0000E+00  0.6000E+01  0.6000E+01
     16.230  0.0000E+00  0.0000E+00  0.6000E+01  0.6000E+01
     16.295  0.0000E+00  0.0000E+00  0.6000E+01  0.6000E+01
     16.360  0.0000E+00  0.0000E+00  0.6000E+01  0.6000E+01
     16.424  0.0000E+00  0.0000E+00  0.6000E+01  0.6000E+01
     16.489  0.0000E+00  0.0000E+00  0.6000E+01  0.6000E+01
     16.554  0.0000E+00  0.0000E+00  0.6000E+01  0.6000E+01
     16.55357862     -2.83637400  301      5.79870731      1.00000000
     -2.836  0.0000E+00  0.0000E+00  0.0000E+00  0.0000E+00  0.0000E+00  0.0000E+00  0.0000E+00  0.0000E+00  0.0000E+00  0.0000E+00  0.0000E+00  0.0000E+00  0.0000E+00  0.0000E+00  0.0000E+00  0.0000E+00  0.0000E+00  0.0000E+00
     -2.772  0.0000E+00  0.0000E+00  0.0000E+00  0.0000E+00  0.0000E+00  0.0000E+00  0.0000E+00  0.0000E+00  0.0000E+00  0.0000E+00  0.0000E+00  0.0000E+00  0.0000E+00  0.0000E+00  0.0000E+00  0.0000E+00  0.0000E+00  0.0000E+00
     -2.707  0.0000E+00  0.0000E+00  0.0000E+00  0.0000E+00  0.0000E+00  0.0000E+00  0.0000E+00  0.0000E+00  0.0000E+00  0.0000E+00  0.0000E+00  0.0000E+00  0.0000E+00  0.0000E+00  0.0000E+00  0.0000E+00  0.0000E+00  0.0000E+00
     -2.642  0.0000E+00  0.0000E+00  0.0000E+00  0.0000E+00  0.0000E+00  0.0000E+00  0.0000E+00  0.0000E+00  0.0000E+00  0.0000E+00  0.0000E+00  0.0000E+00  0.0000E+00  0.0000E+00  0.0000E+00  0.0000E+00  0.0000E+00  0.0000E+00
     -2.578  0.0000E+00  0.0000E+00  0.0000E+00  0.0000E+00  0.0000E+00  0.0000E+00  0.0000E+00  0.0000E+00  0.0000E+00  0.0000E+00  0.0000E+00  0.0000E+00  0.0000E+00  0.0000E+00  0.0000E+00  0.0000E+00  0.0000E+00  0.0000E+00
     -2.513  0.0000E+00  0.0000E+00  0.0000E+00  0.0000E+00  0.0000E+00  0.0000E+00  0.0000E+00  0.0000E+00  0.0000E+00  0.0000E+00  0.0000E+00  0.0000E+00  0.0000E+00  0.0000E+00  0.0000E+00  0.0000E+00  0.0000E+00  0.0000E+00
     -2.449  0.0000E+00  0.0000E+00  0.0000E+00  0.0000E+00  0.0000E+00  0.0000E+00  0.0000E+00  0.0000E+00  0.0000E+00  0.0000E+00  0.0000E+00  0.0000E+00  0.0000E+00  0.0000E+00  0.0000E+00  0.0000E+00  0.0000E+00  0.0000E+00
     -2.384 -0.9919E-35 -0.2104E-32 -0.3255E-37 -0.6900E-35 -0.9765E-37 -0.2070E-34 -0.6510E-37 -0.1380E-34 -0.4514E-39 -0.9559E-37 -0.6771E-39 -0.1434E-36 -0.1693E-39 -0.3584E-37 -0.1354E-38 -0.2868E-36 -0.5643E-40 -0.1195E-37
     -2.319 -0.1517E-25 -0.1440E-23 -0.4979E-28 -0.4723E-26 -0.1494E-27 -0.1417E-25 -0.9959E-28 -0.9445E-26 -0.6906E-30 -0.6543E-28 -0.1036E-29 -0.9814E-28 -0.2589E-30 -0.2453E-28 -0.2072E-29 -0.1963E-27 -0.8632E-31 -0.8179E-29
     -2.255 -0.7972E-18 -0.3376E-16 -0.2616E-20 -0.1107E-18 -0.7848E-20 -0.3322E-18 -0.5232E-20 -0.2215E-18 -0.3628E-22 -0.1534E-20 -0.5442E-22 -0.2301E-20 -0.1360E-22 -0.5752E-21 -0.1088E-21 -0.4602E-20 -0.4535E-23 -0.1918E-21
     -2.190 -0.1363E-11 -0.2551E-10 -0.4475E-14 -0.8367E-13 -0.1342E-13 -0.2510E-12 -0.8949E-14 -0.1673E-12 -0.6206E-16 -0.1159E-14 -0.9307E-16 -0.1739E-14 -0.2327E-16 -0.4346E-15 -0.1862E-15 -0.3478E-14 -0.7757E-17 -0.1449E-15
     -2.125 -0.7754E-07 -0.6328E-06 -0.2545E-09 -0.2076E-08 -0.7634E-09 -0.6227E-08 -0.5089E-09 -0.4151E-08 -0.3529E-11 -0.2876E-10 -0.5293E-11 -0.4313E-10 -0.1323E-11 -0.1078E-10 -0.1059E-10 -0.8627E-10 -0.4411E-12 -0.3594E-11
     -2.061 -0.1281E-03 -0.4291E-03 -0.4205E-06 -0.1408E-05 -0.1261E-05 -0.4223E-05 -0.8409E-06 -0.2815E-05 -0.5831E-08 -0.1950E-07 -0.8746E-08 -0.2925E-07 -0.2186E-08 -0.7312E-08 -0.1749E-07 -0.5850E-07 -0.7289E-09 -0.2438E-08
     -1.996 -0.2565E-02  0.7786E-03 -0.8418E-05  0.2554E-05 -0.2525E-04  0.7661E-05 -0.1684E-04  0.5107E-05 -0.1167E-06  0.3538E-07 -0.1751E-06  0.5307E-07 -0.4377E-07  0.1327E-07 -0.3502E-06  0.1061E-06 -0.1459E-07  0.4423E-08
     -1.932  0.5306E-01  0.6739E-01  0.1741E-03  0.2211E-03  0.5223E-03  0.6632E-03  0.3482E-03  0.4421E-03  0.2415E-05  0.3063E-05  0.3622E-05  0.4593E-05  0.9054E-06  0.1148E-05  0.7244E-05  0.9188E-05  0.3018E-06  0.3828E-06
     -1.867  0.3135E-01  0.1292E-01  0.1029E-03  0.4237E-04  0.3087E-03  0.1271E-03  0.2058E-03  0.8474E-04  0.1427E-05  0.5870E-06  0.2140E-05  0.8804E-06  0.5350E-06  0.2201E-06  0.4281E-05  0.1761E-05  0.1784E-06  0.7338E-07
     -1.802 -0.2324E-02 -0.1257E-02 -0.7627E-05 -0.4124E-05 -0.2288E-04 -0.1237E-04 -0.1525E-04 -0.8248E-05 -0.1058E-06 -0.5714E-07 -0.1587E-06 -0.8570E-07 -0.3966E-07 -0.2142E-07 -0.3173E-06 -0.1714E-06 -0.1322E-07 -0.7142E-08
     -1.738 -0.2846E-04 -0.5442E-05 -0.9342E-07 -0.1804E-07 -0.2803E-06 -0.5413E-07 -0.1868E-06 -0.3570E-07 -0.1296E-08 -0.2536E-09 -0.1947E-08 -0.4129E-09 -0.4878E-09 -0.1167E-09 -0.3888E-08 -0.7608E-09 -0.1620E-09 -0.3170E-10
     -1.673 -0.1272E-04 -0.6190E-04 -0.1614E-06 -0.7856E-06 -0.4842E-06 -0.2357E-05 -0.8074E-07 -0.3928E-06 -0.4499E-08 -0.2194E-07 -0.2699E-07 -0.1317E-06 -0.1518E-07 -0.7405E-07 -0.1350E-07 -0.6583E-07 -0.5624E-09 -0.2743E-08
     -1.608 -0.2088E-02 -0.3373E-02 -0.2652E-04 -0.4280E-04 -0.7955E-04 -0.1284E-03 -0.1326E-04 -0.2140E-04 -0.7392E-06 -0.1196E-05 -0.4435E-05 -0.7173E-05 -0.2495E-05 -0.4035E-05 -0.2218E-05 -0.3587E-05 -0.9240E-07 -0.1494E-06
     -1.544  0.2402E-01  0.4992E-01  0.3050E-03  0.6335E-03  0.9149E-03  0.1901E-02  0.1525E-03  0.3168E-03  0.8501E-05  0.1769E-04  0.5100E-04  0.1062E-03  0.2869E-04  0.5972E-04  0.2550E-04  0.5308E-04  0.1063E-05  0.2212E-05
     -1.479  0.8225E-01  0.5970E-01  0.1044E-02  0.7577E-03  0.3133E-02  0.2273E-02  0.5222E-03  0.3788E-03  0.2911E-04  0.2116E-04  0.1747E-03  0.1270E-03  0.9826E-04  0.7143E-04  0.8734E-04  0.6349E-04  0.3639E-05  0.2645E-05
     -1.414 -0.1279E-02 -0.3530E-02 -0.1624E-04 -0.4480E-04 -0.4871E-04 -0.1344E-03 -0.8119E-05 -0.2240E-04 -0.4526E-06 -0.1251E-05 -0.2716E-05 -0.7508E-05 -0.1528E-05 -0.4223E-05 -0.1358E-05 -0.3754E-05 -0.5658E-07 -0.1564E-06
     -1.350 -0.3749E-03 -0.1037E-03 -0.4760E-05 -0.1316E-05 -0.1428E-04 -0.3948E-05 -0.2380E-05 -0.6584E-06 -0.1327E-06 -0.3680E-07 -0.7961E-06 -0.2206E-06 -0.4478E-06 -0.1241E-06 -0.3981E-06 -0.1103E-06 -0.1659E-07 -0.4600E-08
     -1.285 -0.7382E-05 -0.4112E-04 -0.2054E-06 -0.1178E-05 -0.9036E-07 -0.4427E-06 -0.4030E-06 -0.2356E-05 -0.4461E-07 -0.2618E-06 -0.5139E-08 -0.2525E-07 -0.2073E-07 -0.1196E-06 -0.8988E-08 -0.5035E-07 -0.5576E-08 -0.3273E-07
     -1.221 -0.2843E-02 -0.6347E-02 -0.8158E-04 -0.1820E-03 -0.3053E-04 -0.6814E-04 -0.1632E-03 -0.3640E-03 -0.1812E-04 -0.4046E-04 -0.1743E-05 -0.3886E-05 -0.8251E-05 -0.1848E-04 -0.3487E-05 -0.7773E-05 -0.2265E-05 -0.5057E-05
     -1.156  0.2022E-01  0.7418E-01  0.5803E-03  0.2128E-02  0.2172E-03  0.7965E-03  0.1161E-02  0.4255E-02  0.1289E-03  0.4729E-03  0.1240E-04  0.4543E-04  0.5869E-04  0.2160E-03  0.2480E-04  0.9086E-04  0.1611E-04  0.5911E-04
     -1.091  0.2631E+00  0.2372E+00  0.7552E-02  0.6803E-02  0.2826E-02  0.2547E-02  0.1510E-01  0.1361E-01  0.1677E-02  0.1512E-02  0.1614E-03  0.1453E-03  0.7638E-03  0.6906E-03  0.3228E-03  0.2905E-03  0.2096E-03  0.1890E-03
     -1.027  0.2166E-01 -0.4613E-02  0.6216E-03 -0.1323E-03  0.2327E-03 -0.4953E-04  0.1243E-02 -0.2646E-03  0.1380E-03 -0.2940E-04  0.1329E-04 -0.2825E-05  0.6287E-04 -0.1343E-04  0.2657E-04 -0.5650E-05  0.1726E-04 -0.3676E-05
     -0.962 -0.2941E-02 -0.1020E-02 -0.8441E-04 -0.2925E-04 -0.3159E-04 -0.1095E-04 -0.1688E-03 -0.5850E-04 -0.1874E-04 -0.6501E-05 -0.1804E-05 -0.6245E-06 -0.8537E-05 -0.2969E-05 -0.3608E-05 -0.1249E-05 -0.2343E-05 -0.8126E-06
     -0.897 -0.7467E-05 -0.1044E-05 -0.2143E-06 -0.2994E-07 -0.8020E-07 -0.1121E-07 -0.4286E-06 -0.5989E-07 -0.4759E-07 -0.6655E-08 -0.4580E-08 -0.6393E-09 -0.2167E-07 -0.3040E-08 -0.9160E-08 -0.1279E-08 -0.5949E-08 -0.8319E-09
     -0.833 -0.4923E-09 -0.3005E-10 -0.1413E-10 -0.8617E-12 -0.5288E-11 -0.3226E-12 -0.2826E-10 -0.1723E-11 -0.3137E-11 -0.1915E-12 -0.3019E-12 -0.1840E-13 -0.1429E-11 -0.8747E-13 -0.6039E-12 -0.3680E-13 -0.3922E-12 -0.2394E-13
     -0.768 -0.9966E-15 -0.1926E-21 -0.2860E-16 -0.5226E-23 -0.1070E-16 -0.1568E-22 -0.5720E-16 -0.1015E-22 -0.6352E-17 -0.1413E-23 -0.6113E-18 -0.2282E-23 -0.2893E-17 -0.3276E-24 -0.1223E-17 -0.4240E-23 -0.7940E-18 -0.5671E-24
     -0.703 -0.6432E-16 -0.2247E-14 -0.1747E-17 -0.6097E-16 -0.5241E-17 -0.1829E-15 -0.3394E-17 -0.1184E-15 -0.4718E-18 -0.1649E-16 -0.7606E-18 -0.2663E-16 -0.1092E-18 -0.3822E-17 -0.1415E-17 -0.4947E-16 -0.1889E-18 -0.6616E-17
     -0.639 -0.5578E-10 -0.8835E-09 -0.1515E-11 -0.2398E-10 -0.4545E-11 -0.7193E-10 -0.2943E-11 -0.4658E-10 -0.4091E-12 -0.6484E-11 -0.6596E-12 -0.1047E-10 -0.9473E-13 -0.1503E-11 -0.1227E-11 -0.1945E-10 -0.1638E-12 -0.2601E-11
     -0.574 -0.1592E-05 -0.1095E-04 -0.4324E-07 -0.2971E-06 -0.1297E-06 -0.8913E-06 -0.8399E-07 -0.5772E-06 -0.1168E-07 -0.8034E-07 -0.1882E-07 -0.1297E-06 -0.2703E-08 -0.1862E-07 -0.3503E-07 -0.2410E-06 -0.4674E-08 -0.3223E-07
     -0.510 -0.1259E-02 -0.3441E-02 -0.3419E-04 -0.9341E-04 -0.1026E-03 -0.2802E-03 -0.6643E-04 -0.1815E-03 -0.9228E-05 -0.2522E-04 -0.1488E-04 -0.4072E-04 -0.2137E-05 -0.5852E-05 -0.2768E-04 -0.7567E-04 -0.3692E-05 -0.1011E-04
     -0.445 -0.1296E-02  0.2882E-01 -0.3786E-04  0.7764E-03 -0.1136E-03  0.2329E-02 -0.7474E-04  0.1506E-02 -0.7430E-05  0.2161E-03 -0.1166E-04  0.3497E-03 -0.2121E-05  0.4922E-04 -0.2229E-04  0.6484E-03 -0.2205E-05  0.8841E-04
     -0.380  0.2371E+00  0.2620E+00  0.6459E-02  0.7178E-02  0.1938E-01  0.2153E-01  0.1256E-01  0.1397E-01  0.1724E-02  0.1869E-02  0.2777E-02  0.3010E-02  0.4021E-03  0.4435E-03  0.5173E-02  0.5607E-02  0.6847E-03  0.7301E-03
     -0.316  0.1158E+00  0.6572E-01  0.3389E-02  0.2004E-02  0.1017E-01  0.6011E-02  0.6692E-02  0.3990E-02  0.6593E-03  0.3101E-03  0.1034E-02  0.4744E-03  0.1893E-03  0.1049E-03  0.1978E-02  0.9304E-03  0.1935E-03  0.6081E-04
     -0.251 -0.1464E-03 -0.3156E-02  0.1564E-04 -0.8988E-04  0.4691E-04 -0.2696E-03  0.3914E-04 -0.1765E-03 -0.1640E-04 -0.1986E-04 -0.2874E-04 -0.3156E-04 -0.8408E-06 -0.5237E-05 -0.4919E-04 -0.5957E-04 -0.1224E-04 -0.6746E-05
     -0.186 -0.7415E-03 -0.4436E-03 -0.2627E-04 -0.2897E-04 -0.6679E-04 -0.3105E-04 -0.4579E-04 -0.2675E-04 -0.4177E-05 -0.6420E-05 -0.5491E-05 -0.5936E-05 -0.1406E-05 -0.1785E-05 -0.9180E-05 -0.3685E-05 -0.5731E-06 -0.8080E-06
     -0.122 -0.6060E-02 -0.9079E-02 -0.6427E-03 -0.9622E-03 -0.2569E-03 -0.3846E-03 -0.3526E-03 -0.5279E-03 -0.1613E-03 -0.2417E-03 -0.1314E-03 -0.1969E-03 -0.4189E-04 -0.6296E-04 -0.1838E-04 -0.2737E-04 -0.2004E-04 -0.3008E-04
     -0.057  0.7272E-01  0.1414E+00  0.7714E-02  0.1499E-01  0.3082E-02  0.5991E-02  0.4231E-02  0.8224E-02  0.1935E-02  0.3766E-02  0.1577E-02  0.3067E-02  0.5028E-03  0.9809E-03  0.2204E-03  0.4264E-03  0.2405E-03  0.4686E-03
      0.007  0.2071E+00  0.1449E+00  0.2197E-01  0.1536E-01  0.8776E-02  0.6138E-02  0.1205E-01  0.8426E-02  0.5511E-02  0.3858E-02  0.4489E-02  0.3143E-02  0.1432E-02  0.1005E-02  0.6275E-03  0.4368E-03  0.6848E-03  0.4801E-03
      0.072 -0.5500E-02 -0.9835E-02 -0.5762E-03 -0.1014E-02 -0.2277E-03 -0.3957E-03 -0.3335E-03 -0.6236E-03 -0.1564E-03 -0.3004E-03 -0.1156E-03 -0.1993E-03 -0.4303E-04 -0.8755E-04 -0.1674E-04 -0.2992E-04 -0.1944E-04 -0.3742E-04
      0.137 -0.9413E-02 -0.6073E-02 -0.6558E-03 -0.4106E-03 -0.1413E-03 -0.8210E-04 -0.1188E-02 -0.7877E-03 -0.7269E-03 -0.4857E-03 -0.3216E-04 -0.1470E-04 -0.3032E-03 -0.2045E-03 -0.3185E-04 -0.2062E-04 -0.9085E-04 -0.6071E-04
      0.201  0.1320E+00  0.1941E+00  0.8745E-02  0.1285E-01  0.1644E-02  0.2416E-02  0.1749E-01  0.2569E-01  0.1082E-01  0.1591E-01  0.2254E-03  0.3309E-03  0.4563E-02  0.6730E-02  0.4510E-03  0.6619E-03  0.1352E-02  0.1989E-02
      0.266  0.1416E+00  0.7450E-01  0.9380E-02  0.4930E-02  0.1763E-02  0.9274E-03  0.1876E-01  0.9861E-02  0.1160E-01  0.6106E-02  0.2418E-03  0.1270E-03  0.4895E-02  0.2583E-02  0.4837E-03  0.2540E-03  0.1450E-02  0.7633E-03
      0.331 -0.8768E-02 -0.6085E-02 -0.5809E-03 -0.4027E-03 -0.1092E-03 -0.7575E-04 -0.1162E-02 -0.8054E-03 -0.7186E-03 -0.4987E-03 -0.1498E-04 -0.1037E-04 -0.3032E-03 -0.2110E-03 -0.2996E-04 -0.2075E-04 -0.8982E-04 -0.6234E-04
      0.395 -0.2217E-03 -0.4769E-04 -0.1469E-04 -0.3156E-05 -0.2761E-05 -0.5936E-06 -0.2938E-04 -0.6312E-05 -0.1817E-04 -0.3908E-05 -0.3788E-06 -0.8130E-07 -0.7666E-05 -0.1653E-05 -0.7576E-06 -0.1626E-06 -0.2271E-05 -0.4886E-06