   1   1   0   0
  0.1813235E+02  0.2866544E-09  0.2866544E-09  0.2866544E-09  0.5000000E-15
  1.000000000000000E-004
  CAR 
 unknown system                          
     16.54317411     -2.82758642  301      5.79755352      1.00000000
     -2.828  0.0000E+00  0.0000E+00
     -2.763  0.0000E+00  0.0000E+00
     -2.698  0.0000E+00  0.0000E+00
     -2.634  0.0000E+00  0.0000E+00
     -2.569  0.0000E+00  0.0000E+00
     -2.505  0.0000E+00  0.0000E+00
     -2.440  0.0000E+00  0.0000E+00
     -2.376 -0.5690E-32 -0.3674E-33
     -2.311 -0.3740E-23 -0.2415E-24
     -2.246 -0.8475E-16 -0.5473E-17
     -2.182 -0.6231E-10 -0.4023E-11
     -2.117 -0.1514E-05 -0.9775E-07
     -2.053 -0.1012E-02 -0.6543E-04
     -1.988  0.1866E-02  0.5503E-04
     -1.924  0.1577E+00  0.1024E-01
     -1.859  0.3030E-01  0.1219E-01
     -1.794 -0.2956E-02  0.1200E-01
     -1.730 -0.1296E-04  0.1200E-01
     -1.665 -0.1459E-03  0.1199E-01
     -1.601 -0.8105E-02  0.1147E-01
     -1.536  0.1189E+00  0.1915E-01
     -1.472  0.1459E+00  0.2857E-01
     -1.407 -0.8523E-02  0.2802E-01
     -1.342 -0.2626E-03  0.2800E-01
     -1.278 -0.9548E-04  0.2799E-01
     -1.213 -0.1531E-01  0.2701E-01
     -1.149  0.1762E+00  0.3838E-01
     -1.084  0.5949E+00  0.7679E-01
     -1.020 -0.9551E-02  0.7617E-01
     -0.955 -0.2707E-02  0.7600E-01
     -0.891 -0.2940E-05  0.7600E-01
     -0.826 -0.9004E-10  0.7600E-01
     -0.761 -0.1651E-15  0.7600E-01
     -0.697 -0.4529E-14  0.7600E-01
     -0.632 -0.1877E-08  0.7600E-01
     -0.568 -0.2474E-04  0.7600E-01
     -0.503 -0.8412E-02  0.7546E-01
     -0.439  0.6565E-01  0.7969E-01
     -0.374  0.6937E+00  0.1245E+00
     -0.309  0.1872E+00  0.1366E+00
     -0.245 -0.8121E-02  0.1360E+00
     -0.180 -0.1209E-02  0.1360E+00
     -0.116 -0.2470E-01  0.1344E+00
     -0.051  0.3698E+00  0.1583E+00
      0.013  0.4251E+00  0.1857E+00
      0.078 -0.2730E-01  0.1839E+00
      0.143 -0.2074E-01  0.1826E+00
      0.207  0.5429E+00  0.2176E+00
      0.272  0.2416E+00  0.2332E+00
      0.336 -0.1914E-01  0.2320E+00
      0.401 -0.1755E-03  0.2320E+00
      0.465 -0.3468E-07  0.2320E+00
      0.530 -0.2110E-12  0.2320E+00
      0.595 -0.2443E-12  0.2320E+00
      0.659 -0.3873E-07  0.2320E+00
      0.724 -0.1893E-03  0.2320E+00
      0.788 -0.2083E-01  0.2306E+00
      0.853  0.2096E+00  0.2442E+00
      0.917  0.1209E+01  0.3222E+00
      0.982  0.8711E+00  0.3785E+00
      1.047 -0.3549E-01  0.3762E+00
      1.111 -0.3085E-02  0.3760E+00
      1.176 -0.4223E-01  0.3733E+00
      1.240  0.4729E+00  0.4038E+00
      1.305  0.1816E+01  0.5210E+00
      1.369 -0.6219E-02  0.5206E+00
      1.434 -0.3215E-01  0.5185E+00
      1.499  0.2784E+00  0.5365E+00
      1.563  0.7569E+00  0.5854E+00
      1.628  0.6944E+00  0.6302E+00
      1.692  0.1655E+00  0.6409E+00
      1.757 -0.1382E-01  0.6400E+00
      1.821 -0.2950E-02  0.6398E+00
      1.886 -0.5381E-01  0.6364E+00
      1.951  0.1012E+01  0.7017E+00
      2.015  0.1868E+01  0.8223E+00
      2.080  0.1973E+01  0.9497E+00
      2.144  0.6173E+00  0.9896E+00
      2.209  0.2801E+00  0.1008E+01
      2.273  0.1010E+01  0.1073E+01
      2.338  0.8399E+00  0.1127E+01
      2.403  0.9390E+00  0.1188E+01
      2.467  0.6508E+00  0.1230E+01
      2.532  0.3547E+00  0.1253E+01
      2.596 -0.4864E-02  0.1252E+01
      2.661  0.6288E+00  0.1293E+01
      2.725  0.8867E-01  0.1299E+01
      2.790  0.4041E+00  0.1325E+01
      2.855  0.2484E+01  0.1485E+01
      2.919  0.2403E+01  0.1640E+01
      2.984  0.1058E+01  0.1709E+01
      3.048  0.1281E+01  0.1791E+01
      3.113  0.1886E-01  0.1793E+01
      3.177  0.8947E+00  0.1850E+01
      3.242  0.1781E+01  0.1965E+01
      3.306  0.6424E+00  0.2007E+01
      3.371  0.9722E+00  0.2070E+01
      3.436 -0.2099E-01  0.2068E+01
      3.500 -0.1132E-01  0.2068E+01
      3.565  0.9446E-01  0.2074E+01
      3.629  0.1636E+00  0.2084E+01
      3.694  0.1457E-01  0.2085E+01
      3.758  0.6207E+00  0.2125E+01
      3.823  0.2942E+00  0.2144E+01
      3.888  0.1796E+01  0.2260E+01
      3.952  0.2637E+00  0.2277E+01
      4.017  0.7440E-01  0.2282E+01
      4.081  0.6397E+00  0.2323E+01
      4.146  0.1140E-01  0.2324E+01
      4.210 -0.2513E-02  0.2324E+01
      4.275  0.5429E+00  0.2359E+01
      4.340  0.2802E+01  0.2540E+01
      4.404  0.1544E+01  0.2640E+01
      4.469  0.1424E+01  0.2731E+01
      4.533  0.4795E+01  0.3041E+01
      4.598  0.2057E+01  0.3174E+01
      4.662  0.2769E+00  0.3192E+01
      4.727  0.1404E+01  0.3282E+01
      4.792  0.1299E+01  0.3366E+01
      4.856  0.1233E+01  0.3446E+01
      4.921  0.1823E+01  0.3564E+01
      4.985  0.7624E+00  0.3613E+01
      5.050  0.3363E+00  0.3635E+01
      5.114  0.3407E+01  0.3855E+01
      5.179  0.3083E+01  0.4054E+01
      5.244 -0.1802E+00  0.4042E+01
      5.308  0.1792E+01  0.4158E+01
      5.373  0.1162E+01  0.4233E+01
      5.437  0.1477E+01  0.4328E+01
      5.502  0.2592E+01  0.4495E+01
      5.566  0.1350E+01  0.4583E+01
      5.631  0.7343E+00  0.4630E+01
      5.696  0.2400E+01  0.4785E+01
      5.760  0.1779E+01  0.4900E+01
      5.825  0.2167E+01  0.5040E+01
      5.889  0.9355E+00  0.5100E+01
      5.954  0.1500E+01  0.5197E+01
      6.018  0.1118E+01  0.5269E+01
      6.083  0.8767E-01  0.5275E+01
      6.148  0.1343E+01  0.5362E+01
      6.212  0.1109E+01  0.5433E+01
      6.277  0.9649E+00  0.5495E+01
      6.341  0.9369E+00  0.5556E+01
      6.406  0.5151E+00  0.5589E+01
      6.470  0.1035E+00  0.5596E+01
      6.535  0.4424E+00  0.5624E+01
      6.600  0.1719E+00  0.5636E+01
      6.664  0.6139E+00  0.5675E+01
      6.729  0.7564E+00  0.5724E+01
      6.793  0.3333E+00  0.5746E+01
      6.858 -0.4656E-01  0.5743E+01
      6.922  0.5103E+00  0.5775E+01
      6.987  0.9993E+00  0.5840E+01
      7.052  0.4037E+00  0.5866E+01
      7.116 -0.6490E-01  0.5862E+01
      7.181  0.4422E+00  0.5890E+01
      7.245  0.9231E+00  0.5950E+01
      7.310  0.1494E+00  0.5960E+01
      7.374  0.2773E+00  0.5978E+01
      7.439  0.1002E+01  0.6042E+01
      7.503  0.4928E+00  0.6074E+01
      7.568 -0.5755E-01  0.6070E+01
      7.633  0.2958E+00  0.6089E+01
      7.697  0.1160E+01  0.6164E+01
      7.762  0.4077E-01  0.6167E+01
      7.826  0.3992E+00  0.6193E+01
      7.891  0.3848E+00  0.6218E+01
      7.955 -0.2508E-01  0.6216E+01
      8.020 -0.8626E-02  0.6215E+01
      8.085  0.5300E-01  0.6219E+01
      8.149  0.7435E+00  0.6267E+01
      8.214  0.8579E+00  0.6322E+01
      8.278  0.1130E+01  0.6395E+01
      8.343  0.1712E+01  0.6506E+01
      8.407 -0.3666E-01  0.6503E+01
      8.472  0.1401E+00  0.6512E+01
      8.537  0.1277E+01  0.6595E+01
      8.601  0.3319E+00  0.6616E+01
      8.666  0.1067E+01  0.6685E+01
      8.730  0.8607E+00  0.6741E+01
      8.795  0.1274E+01  0.6823E+01
      8.859  0.6251E+00  0.6863E+01
      8.924  0.1060E+01  0.6932E+01
      8.989  0.4690E+00  0.6962E+01
      9.053  0.9443E+00  0.7023E+01
      9.118  0.1745E+01  0.7136E+01
      9.182  0.1342E+01  0.7222E+01
      9.247  0.1218E+01  0.7301E+01
      9.311  0.1987E+01  0.7429E+01
      9.376  0.3285E+00  0.7451E+01
      9.441  0.2073E+01  0.7584E+01
      9.505  0.1250E+01  0.7665E+01
      9.570  0.7339E+00  0.7713E+01
      9.634  0.6638E+00  0.7755E+01
      9.699  0.1297E+01  0.7839E+01
      9.763  0.4846E+00  0.7870E+01
      9.828  0.5348E+00  0.7905E+01
      9.893  0.1704E+01  0.8015E+01
      9.957  0.2845E+00  0.8033E+01
     10.022  0.8655E+00  0.8089E+01
     10.086  0.5660E+00  0.8126E+01
     10.151 -0.3499E-01  0.8124E+01
     10.215 -0.9833E-02  0.8123E+01
     10.280  0.1714E+01  0.8234E+01
     10.345  0.1170E+01  0.8309E+01
     10.409  0.1168E+01  0.8385E+01
     10.474  0.1466E+01  0.8479E+01
     10.538  0.9499E+00  0.8541E+01
     10.603  0.7572E+00  0.8589E+01
     10.667  0.2810E+01  0.8771E+01
     10.732  0.3717E+01  0.9011E+01
     10.797  0.3943E+01  0.9265E+01
     10.861  0.4220E+01  0.9538E+01
     10.926  0.3586E+01  0.9770E+01
     10.990  0.3521E+01  0.9997E+01
     11.055  0.3439E+01  0.1022E+02
     11.119  0.1089E+01  0.1029E+02
     11.184 -0.8006E-01  0.1028E+02
     11.248 -0.3287E-02  0.1028E+02
     11.313 -0.3275E-01  0.1028E+02
     11.378  0.5946E+00  0.1032E+02
     11.442  0.9153E+00  0.1038E+02
     11.507  0.1625E+00  0.1039E+02
     11.571  0.3829E+00  0.1041E+02
     11.636  0.3478E+00  0.1044E+02
     11.700 -0.1438E-01  0.1044E+02
     11.765 -0.2543E-01  0.1043E+02
     11.830  0.3564E+00  0.1046E+02
     11.894  0.4380E+00  0.1049E+02
     11.959 -0.3411E-01  0.1048E+02
     12.023  0.7072E-01  0.1049E+02
     12.088  0.6379E+00  0.1053E+02
     12.152  0.1777E+00  0.1054E+02
     12.217  0.6121E+00  0.1058E+02
     12.282 -0.2966E-03  0.1058E+02
     12.346 -0.3978E-02  0.1058E+02
     12.411 -0.2956E-01  0.1058E+02
     12.475  0.4307E+00  0.1061E+02
     12.540  0.5610E+00  0.1064E+02
     12.604 -0.3204E-01  0.1064E+02
     12.669  0.1371E-02  0.1064E+02
     12.734  0.1126E-01  0.1064E+02
     12.798  0.1133E+01  0.1071E+02
     12.863  0.1226E+01  0.1079E+02
     12.927  0.2652E+01  0.1096E+02
     12.992  0.1299E+01  0.1105E+02
     13.056  0.3771E+00  0.1107E+02
     13.121  0.1590E+01  0.1118E+02
     13.186  0.1329E+01  0.1126E+02
     13.250  0.3828E+00  0.1129E+02
     13.315 -0.3170E-01  0.1128E+02
     13.379  0.1900E-01  0.1128E+02
     13.444  0.6422E+00  0.1133E+02
     13.508  0.9763E-01  0.1133E+02
     13.573  0.1266E+00  0.1134E+02
     13.638  0.3207E+00  0.1136E+02
     13.702  0.4897E+00  0.1139E+02
     13.767  0.3862E-01  0.1140E+02
     13.831  0.3130E+00  0.1142E+02
     13.896  0.2954E-02  0.1142E+02
     13.960 -0.1965E-02  0.1142E+02
     14.025 -0.6745E-05  0.1142E+02
     14.090 -0.3163E-02  0.1142E+02
     14.154 -0.3998E-02  0.1142E+02
     14.219  0.6102E+00  0.1145E+02
     14.283  0.1511E+00  0.1146E+02
     14.348 -0.3519E-01  0.1146E+02
     14.412  0.8341E+00  0.1152E+02
     14.477  0.3324E+00  0.1154E+02
     14.542 -0.3118E-01  0.1154E+02
     14.606 -0.3118E-01  0.1153E+02
     14.671  0.1134E+01  0.1161E+02
     14.735  0.6227E+00  0.1165E+02
     14.800  0.6872E+00  0.1169E+02
     14.864  0.7842E-01  0.1170E+02
     14.929 -0.1050E-01  0.1170E+02
     14.994 -0.2528E-01  0.1169E+02
     15.058  0.4513E+00  0.1172E+02
     15.123  0.5849E+00  0.1176E+02
     15.187  0.1083E+01  0.1183E+02
     15.252  0.9327E+00  0.1189E+02
     15.316 -0.7435E-01  0.1189E+02
     15.381  0.3325E+00  0.1191E+02
     15.445  0.4693E+00  0.1194E+02
     15.510  0.6135E+00  0.1198E+02
     15.575  0.1004E+00  0.1198E+02
     15.639  0.2962E-01  0.1199E+02
     15.704  0.2102E+00  0.1200E+02
     15.768  0.2488E-02  0.1200E+02
     15.833 -0.1349E-02  0.1200E+02
     15.897 -0.2018E-05  0.1200E+02
     15.962 -0.8308E-10  0.1200E+02
     16.027 -0.1100E-15  0.1200E+02
     16.091  0.0000E+00  0.1200E+02
     16.156  0.0000E+00  0.1200E+02
     16.220  0.0000E+00  0.1200E+02
     16.285  0.0000E+00  0.1200E+02
     16.349  0.0000E+00  0.1200E+02
     16.414  0.0000E+00  0.1200E+02
     16.479  0.0000E+00  0.1200E+02
     16.543  0.0000E+00  0.1200E+02
