    1    1    1    2
  0.1813235E+02  0.2866544E-09  0.2866544E-09  0.2866544E-09  0.5000000E-15
  1.000000000000000E-004
  CAR 
 unknown system                          
    5   44    6
 
  0.5000000E-01  0.5000000E-01  0.5000000E-01  0.8000000E-02
   1       -1.525538     -1.540944
   2        6.227140      6.204550
   3        6.227140      6.204550
   4        7.302502      7.279703
   5        9.423051      9.412584
   6        9.423051      9.412584
 
  0.1500000E+00  0.5000000E-01  0.5000000E-01  0.2400000E-01
   1       -0.401218     -0.416633
   2        5.601870      5.579688
   3        5.784437      5.764056
   4        8.742754      8.720922
   5        9.276077      9.263012
   6        9.990681      9.979465
 
  0.2500000E+00  0.5000000E-01  0.5000000E-01  0.2400000E-01
   1        0.942398      0.926484
   2        4.941541      4.919652
   3        5.477511      5.460604
   4        9.517181      9.502344
   5       10.391243     10.379548
   6       10.844157     10.822848
 
  0.3500000E+00  0.5000000E-01  0.5000000E-01  0.2400000E-01
   1        1.580838      1.564064
   2        4.462151      4.440404
   3        6.156656      6.142685
   4        9.841728      9.826601
   5       10.640172     10.628097
   6       12.854352     12.834928
 
  0.4500000E+00  0.5000000E-01  0.5000000E-01  0.1200000E-01
   1        1.634854      1.617894
   2        4.272210      4.250534
   3        6.988204      6.975269
   4        9.758628      9.743900
   5       10.757438     10.745268
   6       13.799370     13.781616
 
 -0.5000000E-01  0.5000000E-01  0.5000000E-01  0.6000000E-02
   1       -1.939577     -1.955013
   2        6.547602      6.524544
   3        6.547635      6.524548
   4        6.685721      6.662525
   5        9.274710      9.264684
   6        9.767030      9.757090
 
  0.1500000E+00  0.1500000E+00  0.5000000E-01  0.2400000E-01
   1        0.872100      0.856490
   2        5.110616      5.091376
   3        5.136883      5.115828
   4        9.408781      9.395205
   5       10.430415     10.418214
   6       10.771107     10.749812
 
  0.2500000E+00  0.1500000E+00  0.5000000E-01  0.4800000E-01
   1        2.064952      2.048466
   2        4.552253      4.532463
   3        5.122557      5.105017
   4        9.677131      9.662471
   5       10.693017     10.680520
   6       12.794571     12.775637
 
  0.3500000E+00  0.1500000E+00  0.5000000E-01  0.4800000E-01
   1        2.344238      2.327047
   2        4.347214      4.326613
   3        5.977633      5.963218
   4        9.876961      9.862330
   5       10.845679     10.832818
   6       14.664097     14.647512
 
 -0.1500000E+00  0.1500000E+00  0.5000000E-01  0.2400000E-01
   1       -1.123316     -1.138665
   2        6.113680      6.090916
   3        6.362036      6.340417
   4        7.455691      7.432875
   5        8.651451      8.640105
   6       10.258400     10.247779
 
  0.2500000E+00  0.2500000E+00  0.5000000E-01  0.2400000E-01
   1        3.014020      2.995677
   2        4.409508      4.392894
   3        5.090727      5.073162
   4       10.041799     10.026975
   5       10.723080     10.709746
   6       15.060370     15.044325
 
  0.3500000E+00  0.2500000E+00  0.5000000E-01  0.2400000E-01
   1        3.195435      3.176264
   2        4.485660      4.468324
   3        5.294239      5.279402
   4       10.279507     10.264810
   5       10.801236     10.787255
   6       14.413191     14.391524
 
 -0.2500000E+00  0.2500000E+00  0.5000000E-01  0.2400000E-01
   1        0.202469      0.186987
   2        5.431884      5.409538
   3        5.781112      5.763695
   4        8.744227      8.729765
   5        9.157389      9.135090
   6       10.477451     10.465991
 
 -0.1500000E+00  0.2500000E+00  0.5000000E-01  0.2400000E-01
   1       -0.041499     -0.056773
   2        5.795094      5.775964
   3        5.854269      5.832231
   4        8.122349      8.108692
   5        8.622884      8.600665
   6       10.622761     10.611450
 
 -0.3500000E+00  0.3500000E+00  0.5000000E-01  0.2400000E-01
   1        1.262214      1.245952
   2        4.857597      4.835498
   3        5.763670      5.749594
   4        9.398103      9.382391
   5       10.687304     10.675195
   6       11.379808     11.358603
 
 -0.2500000E+00  0.3500000E+00  0.5000000E-01  0.4800000E-01
   1        1.271045      1.255411
   2        5.128244      5.110608
   3        5.517797      5.498113
   4        8.509554      8.493593
   5       10.626698     10.606179
   6       10.921580     10.908419
 
 -0.4500000E+00  0.4500000E+00  0.5000000E-01  0.2400000E-01
   1        1.514582      1.497827
   2        4.517300      4.495336
   3        6.731435      6.719167
   4        9.602492      9.587321
   5       11.012716     11.000089
   6       13.428010     13.408406
 
 -0.3500000E+00  0.4500000E+00  0.5000000E-01  0.4800000E-01
   1        1.949554      1.933111
   2        4.797894      4.777629
   3        5.676658      5.662514
   4        9.082032      9.066100
   5       11.016955     11.002885
   6       12.912122     12.893197
 
 -0.2500000E+00  0.4500000E+00  0.5000000E-01  0.2400000E-01
   1        2.424515      2.408082
   2        4.526623      4.511562
   3        5.505042      5.485779
   4        8.831363      8.814588
   5       10.715250     10.700376
   6       12.945821     12.927738
 
 -0.4500000E+00 -0.4500000E+00  0.5000000E-01  0.2400000E-01
   1        2.013189      1.996611
   2        4.689990      4.668770
   3        6.153148      6.140938
   4        9.049929      9.034587
   5       11.412955     11.398608
   6       14.208025     14.190567
 
 -0.3500000E+00 -0.4500000E+00  0.5000000E-01  0.4800000E-01
   1        2.896659      2.879321
   2        4.510877      4.494279
   3        5.299039      5.284219
   4        9.279934      9.263442
   5       10.816174     10.800152
   6       15.202365     15.186264
 
 -0.3500000E+00 -0.3500000E+00  0.5000000E-01  0.8000000E-02
   1        3.584238      3.563623
   2        4.553793      4.540342
   3        4.553799      4.540348
   4       10.341499     10.324643
   5       10.341534     10.324655
   6       14.732115     14.711273
 
  0.1500000E+00  0.1500000E+00  0.1500000E+00  0.8000000E-02
   1        2.244658      2.228747
   2        4.552666      4.533105
   3        4.552666      4.533105
   4       10.350538     10.337394
   5       10.350538     10.337394
   6       12.832799     12.813885
 
  0.2500000E+00  0.1500000E+00  0.1500000E+00  0.2400000E-01
   1        3.225223      3.208146
   2        4.334198      4.314185
   3        4.909771      4.892753
   4       10.481223     10.467586
   5       10.816609     10.804096
   6       15.138050     15.121308
 
  0.3500000E+00  0.1500000E+00  0.1500000E+00  0.1200000E-01
   1        3.217599      3.200084
   2        4.254493      4.234308
   3        5.641681      5.626049
   4       10.532218     10.518486
   5       10.926670     10.914421
   6       14.401895     14.379911
 
 -0.1500000E+00  0.1500000E+00  0.1500000E+00  0.6000000E-02
   1       -0.347895     -0.363004
   2        6.490448      6.468343
   3        6.490479      6.468347
   4        7.180924      7.170265
   5        7.437436      7.414688
   6       10.792949     10.781878
 
  0.2500000E+00  0.2500000E+00  0.1500000E+00  0.2400000E-01
   1        3.870860      3.851828
   2        4.493914      4.476289
   3        4.892126      4.875143
   4       10.758539     10.745557
   5       10.893033     10.880526
   6       13.657352     13.634879
 
 -0.2500000E+00  0.2500000E+00  0.1500000E+00  0.2400000E-01
   1        0.917459      0.902557
   2        5.683631      5.669456
   3        6.253289      6.231251
   4        7.395014      7.376956
   5        8.905722      8.883518
   6       10.999362     10.987080
 
 -0.3500000E+00  0.3500000E+00  0.1500000E+00  0.2400000E-01
   1        1.997110      1.981826
   2        5.049550      5.037037
   3        5.709575      5.687772
   4        8.183019      8.165605
   5       11.059934     11.038810
   6       11.070071     11.056184
 
 -0.2500000E+00  0.3500000E+00  0.1500000E+00  0.2400000E-01
   1        2.088997      2.074353
   2        4.739026      4.726173
   3        6.313820      6.293035
   4        7.680044      7.660814
   5       10.271959     10.251414
   6       11.058885     11.044091
 
 -0.4500000E+00  0.4500000E+00  0.1500000E+00  0.2400000E-01
   1        2.238173      2.222543
   2        5.351194      5.339498
   3        5.420245      5.398528
   4        8.235518      8.219575
   5       12.181512     12.166767
   6       13.200406     13.180766
 
 -0.3500000E+00  0.4500000E+00  0.1500000E+00  0.4800000E-01
   1        2.847864      2.833101
   2        4.324117      4.311621
   3        5.914264      5.894668
   4        8.300318      8.282111
   5       10.933114     10.915589
   6       13.130457     13.112221
 
 -0.4500000E+00 -0.4500000E+00  0.1500000E+00  0.2400000E-01
   1        2.861663      2.847110
   2        4.681341      4.669658
   3        5.462313      5.442364
   4        8.314609      8.296696
   5       12.062198     12.044460
   6       14.780918     14.764212
 
 -0.3500000E+00 -0.4500000E+00  0.1500000E+00  0.2400000E-01
   1        3.738586      3.724477
   2        3.845350      3.833153
   3        5.144794      5.126164
   4        9.441028      9.422391
   5       10.790515     10.772164
   6       15.494291     15.476369
 
  0.2500000E+00  0.2500000E+00  0.2500000E+00  0.2000000E-02
   1        4.494021      4.476075
   2        4.494037      4.476075
   3        4.494037      4.476076
   4       10.933821     10.921674
   5       10.933821     10.921674
   6       12.709745     12.686676
 
 -0.2500000E+00  0.2500000E+00  0.2500000E+00  0.6000000E-02
   1        1.994226      1.980316
   2        4.934119      4.923011
   3        7.207177      7.185973
   4        7.207203      7.185975
   5        9.014051      8.991977
   6       10.858382     10.844249
 
 -0.3500000E+00  0.3500000E+00  0.2500000E+00  0.2400000E-01
   1        2.842961      2.829810
   2        4.048056      4.036599
   3        7.205205      7.184133
   4        7.835518      7.815926
   5       10.730266     10.709157
   6       10.969262     10.953081
 
 -0.4500000E+00  0.4500000E+00  0.2500000E+00  0.2400000E-01
   1        2.948011      2.935183
   2        3.876850      3.865456
   3        6.986809      6.965790
   4        7.651829      7.633483
   5       12.925842     12.906064
   6       12.934614     12.917592
 
 -0.3500000E+00  0.4500000E+00  0.2500000E+00  0.2400000E-01
   1        3.180357      3.168363
   2        3.309583      3.298156
   3        6.920261      6.900284
   4        8.934681      8.914845
   5       10.940480     10.921565
   6       13.054680     13.036265
 
 -0.4500000E+00 -0.4500000E+00  0.2500000E+00  0.2400000E-01
   1        3.016024      3.004365
   2        3.334604      3.323290
   3        6.657900      6.637709
   4        9.501444      9.481883
   5       11.842830     11.823855
   6       15.394619     15.376965
 
 -0.3500000E+00  0.3500000E+00  0.3500000E+00  0.6000000E-02
   1        2.969617      2.957965
   2        3.130033      3.118834
   3        8.769490      8.749267
   4        8.769514      8.749268
   5       10.901416     10.880719
   6       10.992088     10.974792
 
 -0.4500000E+00  0.4500000E+00  0.3500000E+00  0.2400000E-01
   1        2.642871      2.631553
   2        2.787328      2.776060
   3        9.176951      9.157421
   4        9.211808      9.191599
   5       12.491464     12.471905
   6       13.115895     13.097718
 
 -0.4500000E+00 -0.4500000E+00  0.3500000E+00  0.8000000E-02
   1        2.487432      2.476180
   2        2.487433      2.476181
   3        9.096630      9.076735
   4       11.593582     11.574252
   5       11.593641     11.574254
   6       15.672217     15.653596
 
 -0.4500000E+00  0.4500000E+00  0.4500000E+00  0.6000000E-02
   1        2.207589      2.196342
   2        2.232719      2.221485
   3       11.521283     11.501818
   4       11.521326     11.501823
   5       12.483714     12.464324
   6       13.558262     13.539536
