    1    1    1    1
  0.1813235E+02  0.2866544E-09  0.2866544E-09  0.2866544E-09  0.5000000E-15
  1.000000000000000E-004
  CAR 
 unknown system                          
    5   44    6
 
  0.5000000E-01  0.5000000E-01  0.5000000E-01  0.8000000E-02
   1       -1.533047
   2        6.215302
   3        6.215302
   4        7.290516
   5        9.417345
   6        9.417345
 
  0.1500000E+00  0.5000000E-01  0.5000000E-01  0.2400000E-01
   1       -0.408747
   2        5.590303
   3        5.773849
   4        8.731261
   5        9.269049
   6        9.984589
 
  0.2500000E+00  0.5000000E-01  0.5000000E-01  0.2400000E-01
   1        0.934549
   2        4.930164
   3        5.468886
   4        9.509197
   5       10.384869
   6       10.832908
 
  0.3500000E+00  0.5000000E-01  0.5000000E-01  0.2400000E-01
   1        1.572416
   2        4.450867
   3        6.149772
   4        9.833572
   5       10.633529
   6       12.843989
 
  0.4500000E+00  0.5000000E-01  0.5000000E-01  0.1200000E-01
   1        1.626291
   2        4.260966
   3        6.981989
   4        9.750668
   5       10.750696
   6       13.789764
 
 -0.5000000E-01  0.5000000E-01  0.5000000E-01  0.6000000E-02
   1       -1.947097
   2        6.535506
   3        6.535507
   4        6.673531
   5        9.269251
   6        9.761555
 
  0.1500000E+00  0.1500000E+00  0.5000000E-01  0.2400000E-01
   1        0.864442
   2        5.100685
   3        5.125969
   4        9.401479
   5       10.423755
   6       10.759893
 
  0.2500000E+00  0.1500000E+00  0.5000000E-01  0.4800000E-01
   1        2.056741
   2        4.542041
   3        5.113630
   4        9.669232
   5       10.686148
   6       12.784548
 
  0.3500000E+00  0.1500000E+00  0.5000000E-01  0.4800000E-01
   1        2.335550
   2        4.336576
   3        5.970500
   4        9.869056
   5       10.838604
   6       14.655277
 
 -0.1500000E+00  0.1500000E+00  0.5000000E-01  0.2400000E-01
   1       -1.130797
   2        6.101776
   3        6.350747
   4        7.443670
   5        8.645374
   6       10.252576
 
  0.2500000E+00  0.2500000E+00  0.5000000E-01  0.2400000E-01
   1        3.004723
   2        4.401049
   3        5.081816
   4       10.033795
   5       10.715772
   6       15.051915
 
  0.3500000E+00  0.2500000E+00  0.5000000E-01  0.2400000E-01
   1        3.185646
   2        4.476821
   3        5.286816
   4       10.271553
   5       10.793608
   6       14.401971
 
 -0.2500000E+00  0.2500000E+00  0.5000000E-01  0.2400000E-01
   1        0.194889
   2        5.420243
   3        5.772145
   4        8.736516
   5        9.145605
   6       10.471175
 
 -0.1500000E+00  0.2500000E+00  0.5000000E-01  0.2400000E-01
   1       -0.048957
   2        5.785172
   3        5.842777
   4        8.115108
   5        8.611170
   6       10.616524
 
 -0.3500000E+00  0.3500000E+00  0.5000000E-01  0.2400000E-01
   1        1.254123
   2        4.846120
   3        5.756631
   4        9.389736
   5       10.680663
   6       11.368520
 
 -0.2500000E+00  0.3500000E+00  0.5000000E-01  0.4800000E-01
   1        1.263342
   2        5.119173
   3        5.507630
   4        8.501105
   5       10.615819
   6       10.914388
 
 -0.4500000E+00  0.4500000E+00  0.5000000E-01  0.2400000E-01
   1        1.506141
   2        4.505908
   3        6.725514
   4        9.594383
   5       11.005821
   6       13.417431
 
 -0.3500000E+00  0.4500000E+00  0.5000000E-01  0.4800000E-01
   1        1.941303
   2        4.787422
   3        5.669587
   4        9.073590
   5       11.009321
   6       12.902019
 
 -0.2500000E+00  0.4500000E+00  0.5000000E-01  0.2400000E-01
   1        2.416308
   2        4.518956
   3        5.495156
   4        8.822474
   5       10.707205
   6       12.936216
 
 -0.4500000E+00 -0.4500000E+00  0.5000000E-01  0.2400000E-01
   1        2.004819
   2        4.679004
   3        6.147173
   4        9.041784
   5       11.405230
   6       14.198617
 
 -0.3500000E+00 -0.4500000E+00  0.5000000E-01  0.4800000E-01
   1        2.887867
   2        4.502403
   3        5.291574
   4        9.271176
   5       10.807567
   6       15.193764
 
 -0.3500000E+00 -0.3500000E+00  0.5000000E-01  0.8000000E-02
   1        3.573648
   2        4.547036
   3        4.547041
   4       10.332507
   5       10.332515
   6       14.721318
 
  0.1500000E+00  0.1500000E+00  0.1500000E+00  0.8000000E-02
   1        2.236809
   2        4.542588
   3        4.542588
   4       10.343372
   5       10.343372
   6       12.822780
 
  0.2500000E+00  0.1500000E+00  0.1500000E+00  0.2400000E-01
   1        3.216639
   2        4.323905
   3        4.901172
   4       10.473777
   5       10.809708
   6       15.129261
 
  0.3500000E+00  0.1500000E+00  0.1500000E+00  0.1200000E-01
   1        3.208723
   2        4.244113
   3        5.633879
   4       10.524722
   5       10.919881
   6       14.390505
 
 -0.1500000E+00  0.1500000E+00  0.1500000E+00  0.6000000E-02
   1       -0.355257
   2        6.478901
   3        6.478902
   4        7.175333
   5        7.425450
   6       10.786815
 
  0.2500000E+00  0.2500000E+00  0.1500000E+00  0.2400000E-01
   1        3.861147
   2        4.484945
   3        4.883553
   4       10.751393
   5       10.886117
   6       13.645771
 
 -0.2500000E+00  0.2500000E+00  0.1500000E+00  0.2400000E-01
   1        0.910180
   2        5.676337
   3        6.241816
   4        7.385569
   5        8.893999
   6       10.992584
 
 -0.3500000E+00  0.3500000E+00  0.1500000E+00  0.2400000E-01
   1        1.989535
   2        5.043240
   3        5.698247
   4        8.173916
   5       11.048696
   6       11.062557
 
 -0.2500000E+00  0.3500000E+00  0.1500000E+00  0.2400000E-01
   1        2.081797
   2        4.732463
   3        6.303034
   4        7.669987
   5       10.261072
   6       11.050907
 
 -0.4500000E+00  0.4500000E+00  0.1500000E+00  0.2400000E-01
   1        2.230306
   2        5.345406
   3        5.408976
   4        8.227170
   5       12.173743
   6       13.189821
 
 -0.3500000E+00  0.4500000E+00  0.1500000E+00  0.4800000E-01
   1        2.840481
   2        4.317818
   3        5.904133
   4        8.290788
   5       10.923818
   6       13.120764
 
 -0.4500000E+00 -0.4500000E+00  0.1500000E+00  0.2400000E-01
   1        2.854322
   2        4.675527
   3        5.451992
   4        8.305243
   5       12.052804
   6       14.772057
 
 -0.3500000E+00 -0.4500000E+00  0.1500000E+00  0.2400000E-01
   1        3.731491
   2        3.839202
   3        5.135216
   4        9.431206
   5       10.780825
   6       15.484797
 
  0.2500000E+00  0.2500000E+00  0.2500000E+00  0.2000000E-02
   1        4.484890
   2        4.484890
   3        4.484893
   4       10.927074
   5       10.927074
   6       12.697891
 
 -0.2500000E+00  0.2500000E+00  0.2500000E+00  0.6000000E-02
   1        1.987437
   2        4.928439
   3        7.196155
   4        7.196157
   5        9.002377
   6       10.850746
 
 -0.3500000E+00  0.3500000E+00  0.2500000E+00  0.2400000E-01
   1        2.836475
   2        4.042251
   3        7.194244
   4        7.825340
   5       10.719045
   6       10.960762
 
 -0.4500000E+00  0.4500000E+00  0.2500000E+00  0.2400000E-01
   1        2.941562
   2        3.871152
   3        6.975871
   4        7.642324
   5       12.915215
   6       12.925849
 
 -0.3500000E+00  0.4500000E+00  0.2500000E+00  0.2400000E-01
   1        3.174382
   2        3.303807
   3        6.909891
   4        8.924327
   5       10.930558
   6       13.044979
 
 -0.4500000E+00 -0.4500000E+00  0.2500000E+00  0.2400000E-01
   1        3.010151
   2        3.328927
   3        6.647455
   4        9.491244
   5       11.832810
   6       15.385446
 
 -0.3500000E+00  0.3500000E+00  0.3500000E+00  0.6000000E-02
   1        2.963825
   2        3.124369
   3        8.758969
   4        8.758970
   5       10.890377
   6       10.983230
 
 -0.4500000E+00  0.4500000E+00  0.3500000E+00  0.2400000E-01
   1        2.637169
   2        2.781671
   3        9.166837
   4        9.201259
   5       12.480950
   6       13.106668
 
 -0.4500000E+00 -0.4500000E+00  0.3500000E+00  0.8000000E-02
   1        2.481770
   2        2.481770
   3        9.086295
   4       11.583425
   5       11.583431
   6       15.662685
 
 -0.4500000E+00  0.4500000E+00  0.4500000E+00  0.6000000E-02
   1        2.201925
   2        2.227067
   3       11.511068
   4       11.511071
   5       12.473282
   6       13.548893
