       N       E                     dE             d eps       ncg     rms          rms(c)
DAV:   1     0.134882296745E+01    0.13488E+01   -0.10652E+03  1332   0.236E+02
DAV:   2    -0.150228403773E+01   -0.28511E+01   -0.22987E+01  1596   0.283E+01
DAV:   3    -0.152082771125E+01   -0.18544E-01   -0.18660E-01  1128   0.227E+00
DAV:   4    -0.152097380741E+01   -0.14610E-03   -0.14610E-03  1404   0.129E-01
DAV:   5    -0.152097580088E+01   -0.19935E-05   -0.19943E-05   900   0.100E-02    0.789E+00
DAV:   6    -0.119359724068E+02   -0.10415E+02   -0.28376E+00  1146   0.652E+00    0.398E+00
DAV:   7    -0.120510939014E+02   -0.11512E+00   -0.26440E-02  1224   0.131E+00    0.317E+00
DAV:   8    -0.115531092296E+02    0.49798E+00   -0.24950E-01  1248   0.396E+00    0.402E+00
DAV:   9    -0.120127664136E+02   -0.45966E+00   -0.27951E-01  1164   0.410E+00    0.818E-01
DAV:  10    -0.120319911364E+02   -0.19225E-01   -0.29720E-03  1176   0.380E-01    0.535E-01
DAV:  11    -0.120447705365E+02   -0.12779E-01   -0.10208E-02  1146   0.695E-01    0.983E-02
DAV:  12    -0.120447018845E+02    0.68652E-04   -0.24142E-03  1170   0.360E-01    0.107E-01
DAV:  13    -0.120444218018E+02    0.28008E-03   -0.28223E-04   816   0.109E-01    0.140E-01
DAV:  14    -0.120448767931E+02   -0.45499E-03   -0.91091E-05   552   0.700E-02    0.104E-01
DAV:  15    -0.120453749511E+02   -0.49816E-03   -0.36408E-04  1092   0.138E-01    0.282E-02
DAV:  16    -0.120453965453E+02   -0.21594E-04   -0.48639E-06   528   0.185E-02
   1 F= -.12045397E+02 E0= -.12045318E+02  d E =-.235043E-03  mag=    -0.0191
