       N       E                     dE             d eps       ncg     rms          rms(c)
DAV:   1    -0.108541366781E+02   -0.10854E+02   -0.83684E+02   666   0.172E+02
DAV:   2    -0.127108006463E+02   -0.18567E+01   -0.17634E+01   756   0.256E+01
DAV:   3    -0.127170777107E+02   -0.62771E-02   -0.62552E-02   552   0.158E+00
DAV:   4    -0.127170982731E+02   -0.20562E-04   -0.20561E-04   720   0.650E-02
DAV:   5    -0.127170983716E+02   -0.98438E-07   -0.98803E-07   450   0.301E-03    0.370E+00
DAV:   6    -0.122518624449E+02    0.46524E+00   -0.27007E-01   630   0.377E+00    0.197E+00
DAV:   7    -0.120459298497E+02    0.20593E+00   -0.38556E-01   624   0.439E+00    0.164E-01
DAV:   8    -0.120454435348E+02    0.48631E-03   -0.98625E-04   600   0.189E-01    0.339E-02
DAV:   9    -0.120454340432E+02    0.94917E-05   -0.77111E-05   384   0.531E-02
   1 F= -.12045434E+02 E0= -.12045342E+02  d E =-.275270E-03
