 vasp.5.2.12 11Nov11 complex                                                    
  
 executed on             LinuxIFC date 2012.10.17  10:12:37
 running on    1 nodes
 distr:  one band on    1 nodes,    1 groups


--------------------------------------------------------------------------------------------------------


 INCAR:
 POTCAR:    PAW_PBE Ta 17Jan2003                  
 POTCAR:    PAW_PBE Ta 17Jan2003                  
   VRHFIN =Ta:  6s5d                                                            
   LEXCH  = PE                                                                  
   EATOM  =   130.6506 eV,    9.6025 Ry                                         
                                                                                
   TITEL  = PAW_PBE Ta 17Jan2003                                                
   LULTRA =        F    use ultrasoft PP ?                                      
   IUNSCR =        1    unscreen: 0-lin 1-nonlin 2-no                           
   RPACOR =    2.330    partial core radius                                     
   POMASS =  180.948; ZVAL   =    5.000    mass and valenz                      
   RCORE  =    2.900    outmost cutoff radius                                   
   RWIGS  =    2.840; RWIGS  =    1.503    wigner-seitz radius (au A)           
   ENMAX  =  223.667; ENMIN  =  167.750 eV                                      
   RCLOC  =    2.205    cutoff for local pot                                    
   LCOR   =        T    correct aug charges                                     
   LPAW   =        T    paw PP                                                  
   EAUG   =  332.075                                                            
   DEXC   =    -.049                                                            
   RMAX   =    3.083    core radius for proj-oper                               
   RAUG   =    1.300    factor for augmentation sphere                          
   RDEP   =    3.060    radius for radial grids                                 
   QCUT   =   -4.055; QGAM   =    8.109    optimization parameters              
                                                                                
   Description                                                                  
     l     E      TYP  RCUT    TYP  RCUT                                        
     2   .000     23  2.500                                                     
     2   .000     23  2.500                                                     
     0   .000     23  2.500                                                     
     0   .000     23  2.500                                                     
     1   .000     23  2.900                                                     
     1  2.000     23  2.900                                                     
     3   .000      7   .000                                                     
  local pseudopotential read in
  partial core-charges read in
  atomic valenz-charges read in
  non local Contribution for L=           2  read in
    real space projection operators read in
  non local Contribution for L=           2  read in
    real space projection operators read in
  non local Contribution for L=           0  read in
    real space projection operators read in
  non local Contribution for L=           0  read in
    real space projection operators read in
  non local Contribution for L=           1  read in
    real space projection operators read in
  non local Contribution for L=           1  read in
    real space projection operators read in
    PAW grid and wavefunctions read in
 
   number of l-projection  operators is LMAX  =           6
   number of lm-projection operators is LMMAX =          18
 
  PAW_PBE Ta 17Jan2003                  :
 energy of atom  1       EATOM= -130.6506
 kinetic energy error for atom=    1.0232 (will be added to EATOM!!)
 
 
 POSCAR: Ta                                      
  positions in cartesian coordinates
  No initial velocities read in
 exchange correlation table for  LEXCH =        8
   RHO(1)=    0.500       N(1)  =     2000
   RHO(2)=  100.500       N(2)  =     4000
 


--------------------------------------------------------------------------------------------------------


 ion  position               nearest neighbor table
   1  0.000  0.000  0.000-
 
  LATTYP: Found a body centered cubic cell.
 ALAT       =     3.3100000000
  
  Lattice vectors:
  
 A1 = (   2.8665440865,   0.0000000000,   0.0000000000)
 A2 = (  -0.9555146955,   2.7026036829,   0.0000000000)
 A3 = (  -0.9555146955,  -1.3513018414,   2.3405234457)
 Subroutine PRICEL returns:
 Original cell was already a primitive cell.
 

Analysis of symmetry for initial positions (statically):

 Routine SETGRP: Setting up the symmetry group for a 
 body centered cubic supercell.


 Subroutine GETGRP returns: Found 48 space group operations
 (whereof 48 operations were pure point group operations)
 out of a pool of 48 trial point group operations.


The static configuration has the point symmetry O_h .

Analysis of symmetry for dynamics (positions and initial velocities):

 Subroutine DYNSYM returns: Found 48 space group operations
 (whereof 48 operations were pure point group operations)
 out of a pool of 48 trial space group operations
 (whereof 48 operations were pure point group operations)
 and found also     1 'primitive' translations


The dynamic configuration has the point symmetry O_h .

Analysis of magnetic symmetry:

 Subroutine MAGSYM returns: Found 48 space group operations
 (whereof 48 operations were pure point group operations)
 out of a pool of 48 trial space group operations
 (whereof 48 operations were pure point group operations)
 and found also     1 'primitive' translations


The magnetic configuration has the point symmetry O_h .
 
 
 KPOINTS: KPOINTS created by Atomic Simulation Env

Automatic generation of k-mesh.
 
 Subroutine IBZKPT returns following result:
 ===========================================
 
 Found     44 irreducible k-points:
 
 Following reciprocal coordinates:
            Coordinates               Weight
  0.050000  0.050000  0.050000      8.000000
  0.150000  0.050000  0.050000     24.000000
  0.250000  0.050000  0.050000     24.000000
  0.350000  0.050000  0.050000     24.000000
  0.450000  0.050000  0.050000     12.000000
 -0.050000  0.050000  0.050000      6.000000
  0.150000  0.150000  0.050000     24.000000
  0.250000  0.150000  0.050000     48.000000
  0.350000  0.150000  0.050000     48.000000
 -0.150000  0.150000  0.050000     24.000000
  0.250000  0.250000  0.050000     24.000000
  0.350000  0.250000  0.050000     24.000000
 -0.250000  0.250000  0.050000     24.000000
 -0.150000  0.250000  0.050000     24.000000
 -0.350000  0.350000  0.050000     24.000000
 -0.250000  0.350000  0.050000     48.000000
 -0.450000  0.450000  0.050000     24.000000
 -0.350000  0.450000  0.050000     48.000000
 -0.250000  0.450000  0.050000     24.000000
 -0.450000 -0.450000  0.050000     24.000000
 -0.350000 -0.450000  0.050000     48.000000
 -0.350000 -0.350000  0.050000      8.000000
  0.150000  0.150000  0.150000      8.000000
  0.250000  0.150000  0.150000     24.000000
  0.350000  0.150000  0.150000     12.000000
 -0.150000  0.150000  0.150000      6.000000
  0.250000  0.250000  0.150000     24.000000
 -0.250000  0.250000  0.150000     24.000000
 -0.350000  0.350000  0.150000     24.000000
 -0.250000  0.350000  0.150000     24.000000
 -0.450000  0.450000  0.150000     24.000000
 -0.350000  0.450000  0.150000     48.000000
 -0.450000 -0.450000  0.150000     24.000000
 -0.350000 -0.450000  0.150000     24.000000
  0.250000  0.250000  0.250000      2.000000
 -0.250000  0.250000  0.250000      6.000000
 -0.350000  0.350000  0.250000     24.000000
 -0.450000  0.450000  0.250000     24.000000
 -0.350000  0.450000  0.250000     24.000000
 -0.450000 -0.450000  0.250000     24.000000
 -0.350000  0.350000  0.350000      6.000000
 -0.450000  0.450000  0.350000     24.000000
 -0.450000 -0.450000  0.350000      8.000000
 -0.450000  0.450000  0.450000      6.000000
 
 Following cartesian coordinates:
            Coordinates               Weight
  0.017443  0.024668  0.042725      8.000000
  0.052328  0.037001  0.064088     24.000000
  0.087213  0.049335  0.085451     24.000000
  0.122098  0.061669  0.106814     24.000000
  0.156983  0.074003  0.128176     12.000000
 -0.017443  0.012334  0.021363      6.000000
  0.052328  0.074003  0.085451     24.000000
  0.087213  0.086336  0.106814     48.000000
  0.122098  0.098670  0.128176     48.000000
 -0.052328  0.037001  0.021363     24.000000
  0.087213  0.123338  0.128176     24.000000
  0.122098  0.135672  0.149539     24.000000
 -0.087213  0.061669  0.021363     24.000000
 -0.052328  0.074003  0.042725     24.000000
 -0.122098  0.086336  0.021363     24.000000
 -0.087213  0.098670  0.042725     48.000000
 -0.156983  0.111004  0.021363     24.000000
 -0.122098  0.123338  0.042725     48.000000
 -0.087213  0.135672  0.064088     24.000000
 -0.156983 -0.222008 -0.170902     24.000000
 -0.122098 -0.209674 -0.149539     48.000000
 -0.122098 -0.172673 -0.128176      8.000000
  0.052328  0.074003  0.128176      8.000000
  0.087213  0.086336  0.149539     24.000000
  0.122098  0.098670  0.170902     12.000000
 -0.052328  0.037001  0.064088      6.000000
  0.087213  0.123338  0.170902     24.000000
 -0.087213  0.061669  0.064088     24.000000
 -0.122098  0.086336  0.064088     24.000000
 -0.087213  0.098670  0.085451     24.000000
 -0.156983  0.111004  0.064088     24.000000
 -0.122098  0.123338  0.085451     48.000000
 -0.156983 -0.222008 -0.128176     24.000000
 -0.122098 -0.209674 -0.106814     24.000000
  0.087213  0.123338  0.213627      2.000000
 -0.087213  0.061669  0.106814      6.000000
 -0.122098  0.086336  0.106814     24.000000
 -0.156983  0.111004  0.106814     24.000000
 -0.122098  0.123338  0.128176     24.000000
 -0.156983 -0.222008 -0.085451     24.000000
 -0.122098  0.086336  0.149539      6.000000
 -0.156983  0.111004  0.149539     24.000000
 -0.156983 -0.222008 -0.042725      8.000000
 -0.156983  0.111004  0.192265      6.000000
 


--------------------------------------------------------------------------------------------------------




 Dimension of arrays:
   k-points           NKPTS =     44   k-points in BZ     NKDIM =     44   number of bands    NBANDS=      6
   number of dos      NEDOS =    301   number of ions     NIONS =      1
   non local maximal  LDIM  =      6   non local SUM 2l+1 LMDIM =     18
   total plane-waves  NPLWV =   1728
   max r-space proj   IRMAX =      1   max aug-charges    IRDMAX=   6686
   dimension x,y,z NGX =    12 NGY =   12 NGZ =   12
   dimension x,y,z NGXF=    24 NGYF=   24 NGZF=   24
   support grid    NGXF=    24 NGYF=   24 NGZF=   24
   ions per type =               1
 NGX,Y,Z   is equivalent  to a cutoff of   6.96,  6.96,  6.96 a.u.
 NGXF,Y,Z  is equivalent  to a cutoff of  13.92, 13.92, 13.92 a.u.


 I would recommend the setting:
   dimension x,y,z NGX =    11 NGY =   11 NGZ =   11
 SYSTEM =  unknown system                          
 POSCAR =  Ta                                      

 Startparameter for this run:
   NWRITE =      2    write-flag & timer
   PREC   = accura    normal or accurate (medium, high low for compatibility)
   ISTART =      0    job   : 0-new  1-cont  2-samecut
   ICHARG =      2    charge: 1-file 2-atom 10-const
   ISPIN  =      2    spin polarized calculation?
   LNONCOLLINEAR =      F non collinear calculations
   LSORBIT =      F    spin-orbit coupling
   INIWAV =      1    electr: 0-lowe 1-rand  2-diag
   LASPH  =      F    aspherical Exc in radial PAW
   METAGGA=      F    non-selfconsistent MetaGGA calc.

 Electronic Relaxation 1
   ENCUT  =  150.0 eV  11.02 Ry    3.32 a.u.   2.86  2.86  2.86*2*pi/ulx,y,z
   ENINI  =  150.0     initial cutoff
   ENAUG  =  332.1 eV  augmentation charge cutoff
   NELM   =     60;   NELMIN=  2; NELMDL= -5     # of ELM steps 
   EDIFF  = 0.1E-03   stopping-criterion for ELM
   LREAL  =      F    real-space projection
   NLSPLINE    = F    spline interpolate recip. space projectors
   LCOMPAT=      F    compatible to vasp.4.4
   GGA_COMPAT  = T    GGA compatible to vasp.4.4-vasp.4.6
   LMAXPAW     = -100 max onsite density
   LMAXMIX     =    2 max onsite mixed and CHGCAR
   VOSKOWN=      0    Vosko Wilk Nusair interpolation
   ROPT   =    0.00000
 Ionic relaxation
   EDIFFG = 0.1E-02   stopping-criterion for IOM
   NSW    =      0    number of steps for IOM
   NBLOCK =      1;   KBLOCK =      1    inner block; outer block 
   IBRION =     -1    ionic relax: 0-MD 1-quasi-New 2-CG
   NFREE  =      0    steps in history (QN), initial steepest desc. (CG)
   ISIF   =      2    stress and relaxation
   IWAVPR =     10    prediction:  0-non 1-charg 2-wave 3-comb
   ISYM   =      2    0-nonsym 1-usesym 2-fastsym
   LCORR  =      T    Harris-Foulkes like correction to forces

   POTIM  = 0.5000    time-step for ionic-motion
   TEIN   =    0.0    initial temperature
   TEBEG  =    0.0;   TEEND  =   0.0 temperature during run
   SMASS  =  -3.00    Nose mass-parameter (am)
   estimated Nose-frequenzy (Omega)   =  0.10E-29 period in steps =****** mass=  -0.188E-27a.u.
   SCALEE = 1.0000    scale energy and forces
   NPACO  =    256;   APACO  = 16.0  distance and # of slots for P.C.
   PSTRESS=    0.0 pullay stress

  Mass of Ions in am
   POMASS = 180.95
  Ionic Valenz
   ZVAL   =   5.00
  Atomic Wigner-Seitz radii
   RWIGS  =  -1.00
  virtual crystal weights 
   VCA    =   1.00
   NELECT =       5.0000    total number of electrons
   NUPDOWN=      -1.0000    fix difference up-down

 DOS related values:
   EMIN   =  10.00;   EMAX   =-10.00  energy-range for DOS
   EFERMI =   0.00
   ISMEAR =     1;   SIGMA  =   0.05  broadening in eV -4-tet -1-fermi 0-gaus

 Electronic relaxation 2 (details)
   IALGO  =     38    algorithm
   LDIAG  =      T    sub-space diagonalisation (order eigenvalues)
   LSUBROT=      T    optimize rotation matrix (better conditioning)
   TURBO    =      0    0=normal 1=particle mesh
   IRESTART =      0    0=no restart 2=restart with 2 vectors
   NREBOOT  =      0    no. of reboots
   NMIN     =      0    reboot dimension
   EREF     =   0.00    reference energy to select bands
   IMIX   =      4    mixing-type and parameters
     AMIX     =   0.40;   BMIX     =  1.00
     AMIX_MAG =   1.60;   BMIX_MAG =  1.00
     AMIN     =   0.10
     WC   =   100.;   INIMIX=   1;  MIXPRE=   1

 Intra band minimization:
   WEIMIN = 0.0000     energy-eigenvalue tresh-hold
   EBREAK =  0.42E-05  absolut break condition
   DEPER  =   0.30     relativ break condition  

   TIME   =   0.40     timestep for ELM

  volume/ion in A,a.u.               =      18.13       122.36
  Fermi-wavevector in a.u.,A,eV,Ry     =   1.065566  2.013627 15.448462  1.135430
  Thomas-Fermi vector in A             =   2.201121
 
 Write flags
   LWAVE  =      T    write WAVECAR
   LCHARG =      T    write CHGCAR
   LVTOT  =      F    write LOCPOT, total local potential
   LVHAR  =      F    write LOCPOT, Hartree potential only
   LELF   =      F    write electronic localiz. function (ELF)
   LORBIT =     11    0 simple, 1 ext, 2 COOP (PROOUT)


 Dipole corrections
   LMONO  =      F    monopole corrections only (constant potential shift)
   LDIPOL =      F    correct potential (dipole corrections)
   IDIPOL =      0    1-x, 2-y, 3-z, 4-all directions 
   EPSILON=  1.0000000 bulk dielectric constant

 Exchange correlation treatment:
   GGA     =    --    GGA type
   LEXCH   =     8    internal setting for exchange type
   VOSKOWN=      0    Vosko Wilk Nusair interpolation
   LHFCALC =     F    Hartree Fock is set to
   LHFONE  =     F    Hartree Fock one center treatment
   AEXX    =    0.0000 exact exchange contribution

 Linear response parameters
   LEPSILON=     F    determine dielectric tensor
   LRPA    =     F    only Hartree local field effects (RPA)
   LNABLA  =     F    use nabla operator in PAW spheres
   LVEL    =     F    velocity operator in full k-point grid
   LINTERFAST=   F  fast interpolation
   KINTER  =     0    interpolate to denser k-point grid
   CSHIFT  =0.1000    complex shift for real part using Kramers Kronig
   OMEGAMAX=  -1.0    maximum frequency
   RTIME   =    0.100 relaxation time in fs

 Orbital magnetization related:
   ORBITALMAG=     F  switch on orbital magnetization
   LCHIMAG   =     F  perturbation theory with respect to B field
   DQ        =  0.001000  dq finite difference perturbation B field



--------------------------------------------------------------------------------------------------------


 Static calculation
 charge density and potential will be updated during run
 spin polarized calculation
 Variant of blocked Davidson
 Davidson routine will perform the subspace rotation
 perform sub-space diagonalisation
    after iterative eigenvector-optimisation
 modified Broyden-mixing scheme, WC =      100.0
 initial mixing is a Kerker type mixing with AMIX =  0.4000 and BMIX =      1.0000
 Hartree-type preconditioning will be used
 using additional bands            3
 reciprocal scheme for non local part
 use partial core corrections
 calculate Harris-corrections to forces 
   (improved forces if not selfconsistent)
 use gradient corrections 
 use of overlap-Matrix (Vanderbilt PP)
 Methfessel and Paxton  Order N= 1 SIGMA  =   0.05


--------------------------------------------------------------------------------------------------------


  energy-cutoff  :      150.00
  volume of cell :       18.13
      direct lattice vectors                 reciprocal lattice vectors
     2.866544087  0.000000000  0.000000000     0.348852126  0.123337852  0.213627426
    -0.955514696  2.702603683  0.000000000     0.000000000  0.370013556  0.213627426
    -0.955514696 -1.351301841  2.340523446     0.000000000  0.000000000  0.427254853

  length of vectors
     2.866544087  2.866544087  2.866544087     0.427254853  0.427254853  0.427254853


 
 k-points in units of 2pi/SCALE and weight: KPOINTS created by Atomic Simulation Env
   0.01744261  0.02466757  0.04272549       0.008
   0.05232782  0.03700136  0.06408823       0.024
   0.08721303  0.04933514  0.08545097       0.024
   0.12209824  0.06166893  0.10681371       0.024
   0.15698346  0.07400271  0.12817646       0.012
  -0.01744261  0.01233379  0.02136274       0.006
   0.05232782  0.07400271  0.08545097       0.024
   0.08721303  0.08633650  0.10681371       0.048
   0.12209824  0.09867028  0.12817646       0.048
  -0.05232782  0.03700136  0.02136274       0.024
   0.08721303  0.12333785  0.12817646       0.024
   0.12209824  0.13567164  0.14953920       0.024
  -0.08721303  0.06166893  0.02136274       0.024
  -0.05232782  0.07400271  0.04272549       0.024
  -0.12209824  0.08633650  0.02136274       0.024
  -0.08721303  0.09867028  0.04272549       0.048
  -0.15698346  0.11100407  0.02136274       0.024
  -0.12209824  0.12333785  0.04272549       0.048
  -0.08721303  0.13567164  0.06408823       0.024
  -0.15698346 -0.22200813 -0.17090194       0.024
  -0.12209824 -0.20967435 -0.14953920       0.048
  -0.12209824 -0.17267299 -0.12817646       0.008
   0.05232782  0.07400271  0.12817646       0.008
   0.08721303  0.08633650  0.14953920       0.024
   0.12209824  0.09867028  0.17090194       0.012
  -0.05232782  0.03700136  0.06408823       0.006
   0.08721303  0.12333785  0.17090194       0.024
  -0.08721303  0.06166893  0.06408823       0.024
  -0.12209824  0.08633650  0.06408823       0.024
  -0.08721303  0.09867028  0.08545097       0.024
  -0.15698346  0.11100407  0.06408823       0.024
  -0.12209824  0.12333785  0.08545097       0.048
  -0.15698346 -0.22200813 -0.12817646       0.024
  -0.12209824 -0.20967435 -0.10681371       0.024
   0.08721303  0.12333785  0.21362743       0.002
  -0.08721303  0.06166893  0.10681371       0.006
  -0.12209824  0.08633650  0.10681371       0.024
  -0.15698346  0.11100407  0.10681371       0.024
  -0.12209824  0.12333785  0.12817646       0.024
  -0.15698346 -0.22200813 -0.08545097       0.024
  -0.12209824  0.08633650  0.14953920       0.006
  -0.15698346  0.11100407  0.14953920       0.024
  -0.15698346 -0.22200813 -0.04272549       0.008
  -0.15698346  0.11100407  0.19226468       0.006
 
 k-points in reciprocal lattice and weights: KPOINTS created by Atomic Simulation Env
   0.05000000  0.05000000  0.05000000       0.008
   0.15000000  0.05000000  0.05000000       0.024
   0.25000000  0.05000000  0.05000000       0.024
   0.35000000  0.05000000  0.05000000       0.024
   0.45000000  0.05000000  0.05000000       0.012
  -0.05000000  0.05000000  0.05000000       0.006
   0.15000000  0.15000000  0.05000000       0.024
   0.25000000  0.15000000  0.05000000       0.048
   0.35000000  0.15000000  0.05000000       0.048
  -0.15000000  0.15000000  0.05000000       0.024
   0.25000000  0.25000000  0.05000000       0.024
   0.35000000  0.25000000  0.05000000       0.024
  -0.25000000  0.25000000  0.05000000       0.024
  -0.15000000  0.25000000  0.05000000       0.024
  -0.35000000  0.35000000  0.05000000       0.024
  -0.25000000  0.35000000  0.05000000       0.048
  -0.45000000  0.45000000  0.05000000       0.024
  -0.35000000  0.45000000  0.05000000       0.048
  -0.25000000  0.45000000  0.05000000       0.024
  -0.45000000 -0.45000000  0.05000000       0.024
  -0.35000000 -0.45000000  0.05000000       0.048
  -0.35000000 -0.35000000  0.05000000       0.008
   0.15000000  0.15000000  0.15000000       0.008
   0.25000000  0.15000000  0.15000000       0.024
   0.35000000  0.15000000  0.15000000       0.012
  -0.15000000  0.15000000  0.15000000       0.006
   0.25000000  0.25000000  0.15000000       0.024
  -0.25000000  0.25000000  0.15000000       0.024
  -0.35000000  0.35000000  0.15000000       0.024
  -0.25000000  0.35000000  0.15000000       0.024
  -0.45000000  0.45000000  0.15000000       0.024
  -0.35000000  0.45000000  0.15000000       0.048
  -0.45000000 -0.45000000  0.15000000       0.024
  -0.35000000 -0.45000000  0.15000000       0.024
   0.25000000  0.25000000  0.25000000       0.002
  -0.25000000  0.25000000  0.25000000       0.006
  -0.35000000  0.35000000  0.25000000       0.024
  -0.45000000  0.45000000  0.25000000       0.024
  -0.35000000  0.45000000  0.25000000       0.024
  -0.45000000 -0.45000000  0.25000000       0.024
  -0.35000000  0.35000000  0.35000000       0.006
  -0.45000000  0.45000000  0.35000000       0.024
  -0.45000000 -0.45000000  0.35000000       0.008
  -0.45000000  0.45000000  0.45000000       0.006
 
 position of ions in fractional coordinates (direct lattice) 
   0.00000000  0.00000000  0.00000000
 
 position of ions in cartesian coordinates  (Angst):
   0.00000000  0.00000000  0.00000000
 


--------------------------------------------------------------------------------------------------------


 k-point  1 :  0.05000.05000.0500  plane waves:      80
 k-point  2 :  0.15000.05000.0500  plane waves:      73
 k-point  3 :  0.25000.05000.0500  plane waves:      71
 k-point  4 :  0.35000.05000.0500  plane waves:      76
 k-point  5 :  0.45000.05000.0500  plane waves:      80
 k-point  6 :  -.05000.05000.0500  plane waves:      79
 k-point  7 :  0.15000.15000.0500  plane waves:      70
 k-point  8 :  0.25000.15000.0500  plane waves:      75
 k-point  9 :  0.35000.15000.0500  plane waves:      77
 k-point 10 :  -.15000.15000.0500  plane waves:      76
 k-point 11 :  0.25000.25000.0500  plane waves:      76
 k-point 12 :  0.35000.25000.0500  plane waves:      76
 k-point 13 :  -.25000.25000.0500  plane waves:      74
 k-point 14 :  -.15000.25000.0500  plane waves:      76
 k-point 15 :  -.35000.35000.0500  plane waves:      74
 k-point 16 :  -.25000.35000.0500  plane waves:      73
 k-point 17 :  -.45000.45000.0500  plane waves:      74
 k-point 18 :  -.35000.45000.0500  plane waves:      75
 k-point 19 :  -.25000.45000.0500  plane waves:      74
 k-point 20 :  -.4500-.45000.0500  plane waves:      76
 k-point 21 :  -.3500-.45000.0500  plane waves:      78
 k-point 22 :  -.3500-.35000.0500  plane waves:      77
 k-point 23 :  0.15000.15000.1500  plane waves:      74
 k-point 24 :  0.25000.15000.1500  plane waves:      72
 k-point 25 :  0.35000.15000.1500  plane waves:      74
 k-point 26 :  -.15000.15000.1500  plane waves:      79
 k-point 27 :  0.25000.25000.1500  plane waves:      75
 k-point 28 :  -.25000.25000.1500  plane waves:      74
 k-point 29 :  -.35000.35000.1500  plane waves:      75
 k-point 30 :  -.25000.35000.1500  plane waves:      76
 k-point 31 :  -.45000.45000.1500  plane waves:      74
 k-point 32 :  -.35000.45000.1500  plane waves:      76
 k-point 33 :  -.4500-.45000.1500  plane waves:      76
 k-point 34 :  -.3500-.45000.1500  plane waves:      78
 k-point 35 :  0.25000.25000.2500  plane waves:      80
 k-point 36 :  -.25000.25000.2500  plane waves:      75
 k-point 37 :  -.35000.35000.2500  plane waves:      76
 k-point 38 :  -.45000.45000.2500  plane waves:      77
 k-point 39 :  -.35000.45000.2500  plane waves:      82
 k-point 40 :  -.4500-.45000.2500  plane waves:      80
 k-point 41 :  -.35000.35000.3500  plane waves:      80
 k-point 42 :  -.45000.45000.3500  plane waves:      80
 k-point 43 :  -.4500-.45000.3500  plane waves:      80
 k-point 44 :  -.45000.45000.4500  plane waves:      80

 maximum and minimum number of plane-waves per node :        82       70

 maximum number of plane-waves:        82
 maximum index in each direction: 
   IXMAX=    3   IYMAX=    3   IZMAX=    2
   IXMIN=   -3   IYMIN=   -3   IZMIN=   -3

 WARNING: aliasing errors must be expected set NGX to  14 to avoid them
 WARNING: aliasing errors must be expected set NGY to  14 to avoid them
 NGZ is ok and might be reduce to  12
 aliasing errors are usually negligible using standard VASP settings
 and one can safely disregard these warnings

 serial   3D FFT for wavefunctions
 parallel 3D FFT for charge:
    minimum data exchange during FFTs selected (reduces bandwidth)


 total amount of memory used by VASP on root node    33101. kBytes
========================================================================

   base      :      30000. kBytes
   nonl-proj :        520. kBytes
   fftplans  :        504. kBytes
   grid      :       1202. kBytes
   one-center:         31. kBytes
   wavefun   :        844. kBytes
 
 Broyden mixing: mesh for mixing (old mesh)
   NGX =  5   NGY =  5   NGZ =  5
  (NGX  = 24   NGY  = 24   NGZ  = 24)
  gives a total of    125 points

 initial charge density was supplied:
 charge density of overlapping atoms calculated
 number of electron       5.0000000 magnetization       6.0000000
 keeping initial charge density in first step


--------------------------------------------------------------------------------------------------------


 Maximum index for augmentation-charges         6231 (set IRDMAX)


--------------------------------------------------------------------------------------------------------


 First call to EWALD:  gamma=   0.675
 Maximum number of real-space cells 3x 3x 3
 Maximum number of reciprocal cells 3x 3x 3

    FEWALD:  cpu time    0.00: real time    0.00


----------------------------------------- Iteration    1(   1)  ---------------------------------------


    POTLOK:  cpu time    0.04: real time    0.04
    SETDIJ:  cpu time    0.02: real time    0.02
     EDDAV:  cpu time    0.32: real time    0.32
       DOS:  cpu time    0.00: real time    0.00
    --------------------------------------------
      LOOP:  cpu time    0.39: real time    0.39

 eigenvalue-minimisations  :  1332
 total energy-change (2. order) : 0.1348823E+01  (-0.1065177E+03)
 number of electron       5.0000000 magnetization       6.0000000
 augmentation part        5.0000000 magnetization       6.0000000

 Free energy of the ion-electron system (eV)
  ---------------------------------------------------
  alpha Z        PSCENC =        30.58334069
  Ewald energy   TEWEN  =      -197.90100875
  -1/2 Hartree   DENC   =        -2.50452612
  -exchange  EXHF       =         0.00000000
  -V(xc)+E(xc)   XCENC  =       -60.68461845
  PAW double counting   =       143.51874798      -69.33493833
  entropy T*S    EENTRO =         0.00011481
  eigenvalues    EBANDS =        28.04433047
  atomic energy  EATOM  =       129.62738067
  ---------------------------------------------------
  free energy    TOTEN  =         1.34882297 eV

  energy without entropy =        1.34870815  energy(sigma->0) =        1.34878470


--------------------------------------------------------------------------------------------------------




----------------------------------------- Iteration    1(   2)  ---------------------------------------


     EDDAV:  cpu time    0.38: real time    0.38
       DOS:  cpu time    0.00: real time    0.00
    --------------------------------------------
      LOOP:  cpu time    0.39: real time    0.40

 eigenvalue-minimisations  :  1596
 total energy-change (2. order) :-0.2851107E+01  (-0.2298673E+01)
 number of electron       5.0000000 magnetization       6.0000000
 augmentation part        5.0000000 magnetization       6.0000000

 Free energy of the ion-electron system (eV)
  ---------------------------------------------------
  alpha Z        PSCENC =        30.58334069
  Ewald energy   TEWEN  =      -197.90100875
  -1/2 Hartree   DENC   =        -2.50452612
  -exchange  EXHF       =         0.00000000
  -V(xc)+E(xc)   XCENC  =       -60.68461845
  PAW double counting   =       143.51874798      -69.33493833
  entropy T*S    EENTRO =         0.00012879
  eigenvalues    EBANDS =        25.19320948
  atomic energy  EATOM  =       129.62738067
  ---------------------------------------------------
  free energy    TOTEN  =        -1.50228404 eV

  energy without entropy =       -1.50241283  energy(sigma->0) =       -1.50232697


--------------------------------------------------------------------------------------------------------




----------------------------------------- Iteration    1(   3)  ---------------------------------------


     EDDAV:  cpu time    0.27: real time    0.27
       DOS:  cpu time    0.00: real time    0.00
    --------------------------------------------
      LOOP:  cpu time    0.28: real time    0.29

 eigenvalue-minimisations  :  1128
 total energy-change (2. order) :-0.1854367E-01  (-0.1866047E-01)
 number of electron       5.0000000 magnetization       6.0000000
 augmentation part        5.0000000 magnetization       6.0000000

 Free energy of the ion-electron system (eV)
  ---------------------------------------------------
  alpha Z        PSCENC =        30.58334069
  Ewald energy   TEWEN  =      -197.90100875
  -1/2 Hartree   DENC   =        -2.50452612
  -exchange  EXHF       =         0.00000000
  -V(xc)+E(xc)   XCENC  =       -60.68461845
  PAW double counting   =       143.51874798      -69.33493833
  entropy T*S    EENTRO =         0.00009342
  eigenvalues    EBANDS =        25.17470118
  atomic energy  EATOM  =       129.62738067
  ---------------------------------------------------
  free energy    TOTEN  =        -1.52082771 eV

  energy without entropy =       -1.52092113  energy(sigma->0) =       -1.52085885


--------------------------------------------------------------------------------------------------------




----------------------------------------- Iteration    1(   4)  ---------------------------------------


     EDDAV:  cpu time    0.33: real time    0.33
       DOS:  cpu time    0.00: real time    0.00
    --------------------------------------------
      LOOP:  cpu time    0.34: real time    0.36

 eigenvalue-minimisations  :  1404
 total energy-change (2. order) :-0.1460962E-03  (-0.1460967E-03)
 number of electron       5.0000000 magnetization       6.0000000
 augmentation part        5.0000000 magnetization       6.0000000

 Free energy of the ion-electron system (eV)
  ---------------------------------------------------
  alpha Z        PSCENC =        30.58334069
  Ewald energy   TEWEN  =      -197.90100875
  -1/2 Hartree   DENC   =        -2.50452612
  -exchange  EXHF       =         0.00000000
  -V(xc)+E(xc)   XCENC  =       -60.68461845
  PAW double counting   =       143.51874798      -69.33493833
  entropy T*S    EENTRO =         0.00009394
  eigenvalues    EBANDS =        25.17455456
  atomic energy  EATOM  =       129.62738067
  ---------------------------------------------------
  free energy    TOTEN  =        -1.52097381 eV

  energy without entropy =       -1.52106775  energy(sigma->0) =       -1.52100512


--------------------------------------------------------------------------------------------------------




----------------------------------------- Iteration    1(   5)  ---------------------------------------


     EDDAV:  cpu time    0.23: real time    0.23
       DOS:  cpu time    0.00: real time    0.00
    CHARGE:  cpu time    0.03: real time    0.03
    MIXING:  cpu time    0.00: real time    0.00
    --------------------------------------------
      LOOP:  cpu time    0.27: real time    0.28

 eigenvalue-minimisations  :   900
 total energy-change (2. order) :-0.1993470E-05  (-0.1994348E-05)
 number of electron       4.9999996 magnetization       1.9607125
 augmentation part        0.4248898 magnetization      -0.8579819

 Broyden mixing:
  rms(total) = 0.78884E+00    rms(broyden)= 0.78615E+00
  rms(prec ) = 0.11226E+01
  weight for this iteration     100.00

 Free energy of the ion-electron system (eV)
  ---------------------------------------------------
  alpha Z        PSCENC =        30.58334069
  Ewald energy   TEWEN  =      -197.90100875
  -1/2 Hartree   DENC   =        -2.50452612
  -exchange  EXHF       =         0.00000000
  -V(xc)+E(xc)   XCENC  =       -60.68461845
  PAW double counting   =       143.51874798      -69.33493833
  entropy T*S    EENTRO =         0.00009395
  eigenvalues    EBANDS =        25.17455256
  atomic energy  EATOM  =       129.62738067
  ---------------------------------------------------
  free energy    TOTEN  =        -1.52097580 eV

  energy without entropy =       -1.52106975  energy(sigma->0) =       -1.52100712


--------------------------------------------------------------------------------------------------------




----------------------------------------- Iteration    1(   6)  ---------------------------------------


    POTLOK:  cpu time    0.04: real time    0.04
    SETDIJ:  cpu time    0.02: real time    0.02
     EDDAV:  cpu time    0.28: real time    0.28
       DOS:  cpu time    0.00: real time    0.00
    CHARGE:  cpu time    0.03: real time    0.03
    MIXING:  cpu time    0.00: real time    0.00
    --------------------------------------------
      LOOP:  cpu time    0.37: real time    0.40

 eigenvalue-minimisations  :  1146
 total energy-change (2. order) :-0.1041500E+02  (-0.2837633E+00)
 number of electron       4.9999997 magnetization       1.5591346
 augmentation part        0.3466436 magnetization       0.8627682

 Broyden mixing:
  rms(total) = 0.39790E+00    rms(broyden)= 0.39662E+00
  rms(prec ) = 0.12148E+01
  weight for this iteration     100.00

 eigenvalues of (default mixing * dielectric matrix)
  average eigenvalue GAMMA=   1.4296
  1.4296

 Free energy of the ion-electron system (eV)
  ---------------------------------------------------
  alpha Z        PSCENC =        30.58334069
  Ewald energy   TEWEN  =      -197.90100875
  -1/2 Hartree   DENC   =        -1.84858012
  -exchange  EXHF       =         0.00000000
  -V(xc)+E(xc)   XCENC  =       -66.09588499
  PAW double counting   =       161.85598095      -87.91722218
  entropy T*S    EENTRO =         0.00000812
  eigenvalues    EBANDS =        19.76001321
  atomic energy  EATOM  =       129.62738067
  ---------------------------------------------------
  free energy    TOTEN  =       -11.93597241 eV

  energy without entropy =      -11.93598053  energy(sigma->0) =      -11.93597511


--------------------------------------------------------------------------------------------------------




----------------------------------------- Iteration    1(   7)  ---------------------------------------


    POTLOK:  cpu time    0.04: real time    0.04
    SETDIJ:  cpu time    0.02: real time    0.02
     EDDAV:  cpu time    0.29: real time    0.29
       DOS:  cpu time    0.00: real time    0.00
    CHARGE:  cpu time    0.02: real time    0.03
    MIXING:  cpu time    0.00: real time    0.00
    --------------------------------------------
      LOOP:  cpu time    0.39: real time    0.41

 eigenvalue-minimisations  :  1224
 total energy-change (2. order) :-0.1151215E+00  (-0.2643984E-02)
 number of electron       4.9999997 magnetization       2.3243826
 augmentation part        0.3476833 magnetization       1.6646466

 Broyden mixing:
  rms(total) = 0.31690E+00    rms(broyden)= 0.31684E+00
  rms(prec ) = 0.10875E+01
  weight for this iteration     100.00

 eigenvalues of (default mixing * dielectric matrix)
  average eigenvalue GAMMA=   0.9678
  0.9678  0.9678

 Free energy of the ion-electron system (eV)
  ---------------------------------------------------
  alpha Z        PSCENC =        30.58334069
  Ewald energy   TEWEN  =      -197.90100875
  -1/2 Hartree   DENC   =        -1.64557399
  -exchange  EXHF       =         0.00000000
  -V(xc)+E(xc)   XCENC  =       -66.17791932
  PAW double counting   =       164.94505019      -91.06510769
  entropy T*S    EENTRO =         0.00030465
  eigenvalues    EBANDS =        19.58243965
  atomic energy  EATOM  =       129.62738067
  ---------------------------------------------------
  free energy    TOTEN  =       -12.05109390 eV

  energy without entropy =      -12.05139855  energy(sigma->0) =      -12.05119545


--------------------------------------------------------------------------------------------------------




----------------------------------------- Iteration    1(   8)  ---------------------------------------


    POTLOK:  cpu time    0.04: real time    0.04
    SETDIJ:  cpu time    0.02: real time    0.02
     EDDAV:  cpu time    0.30: real time    0.30
       DOS:  cpu time    0.00: real time    0.00
    CHARGE:  cpu time    0.02: real time    0.02
    MIXING:  cpu time    0.00: real time    0.00
    --------------------------------------------
      LOOP:  cpu time    0.39: real time    0.42

 eigenvalue-minimisations  :  1248
 total energy-change (2. order) : 0.4979847E+00  (-0.2495049E-01)
 number of electron       4.9999996 magnetization       0.6004652
 augmentation part        0.3680094 magnetization      -0.0990457

 Broyden mixing:
  rms(total) = 0.40164E+00    rms(broyden)= 0.40163E+00
  rms(prec ) = 0.59946E+00
  weight for this iteration     100.00

 eigenvalues of (default mixing * dielectric matrix)
  average eigenvalue GAMMA=   1.2464
  1.9690  1.0183  0.7519

 Free energy of the ion-electron system (eV)
  ---------------------------------------------------
  alpha Z        PSCENC =        30.58334069
  Ewald energy   TEWEN  =      -197.90100875
  -1/2 Hartree   DENC   =        -0.83134130
  -exchange  EXHF       =         0.00000000
  -V(xc)+E(xc)   XCENC  =       -65.56005765
  PAW double counting   =       171.87722486      -98.27954977
  entropy T*S    EENTRO =         0.00022430
  eigenvalues    EBANDS =        18.93067773
  atomic energy  EATOM  =       129.62738067
  ---------------------------------------------------
  free energy    TOTEN  =       -11.55310923 eV

  energy without entropy =      -11.55333353  energy(sigma->0) =      -11.55318400


--------------------------------------------------------------------------------------------------------




----------------------------------------- Iteration    1(   9)  ---------------------------------------


    POTLOK:  cpu time    0.04: real time    0.04
    SETDIJ:  cpu time    0.02: real time    0.02
     EDDAV:  cpu time    0.28: real time    0.28
       DOS:  cpu time    0.00: real time    0.00
    CHARGE:  cpu time    0.03: real time    0.03
    MIXING:  cpu time    0.00: real time    0.00
    --------------------------------------------
      LOOP:  cpu time    0.38: real time    0.39

 eigenvalue-minimisations  :  1164
 total energy-change (2. order) :-0.4596572E+00  (-0.2795065E-01)
 number of electron       4.9999996 magnetization       0.4107699
 augmentation part        0.3826206 magnetization       0.1322114

 Broyden mixing:
  rms(total) = 0.81762E-01    rms(broyden)= 0.81251E-01
  rms(prec ) = 0.12618E+00
  weight for this iteration     100.00

 eigenvalues of (default mixing * dielectric matrix)
  average eigenvalue GAMMA=   1.1106
  2.2715  0.8154  0.8154  0.5403

 Free energy of the ion-electron system (eV)
  ---------------------------------------------------
  alpha Z        PSCENC =        30.58334069
  Ewald energy   TEWEN  =      -197.90100875
  -1/2 Hartree   DENC   =        -0.35590990
  -exchange  EXHF       =         0.00000000
  -V(xc)+E(xc)   XCENC  =       -65.77329937
  PAW double counting   =       185.69099081     -112.28418913
  entropy T*S    EENTRO =        -0.00045347
  eigenvalues    EBANDS =        18.40038204
  atomic energy  EATOM  =       129.62738067
  ---------------------------------------------------
  free energy    TOTEN  =       -12.01276641 eV

  energy without entropy =      -12.01231295  energy(sigma->0) =      -12.01261526


--------------------------------------------------------------------------------------------------------




----------------------------------------- Iteration    1(  10)  ---------------------------------------


    POTLOK:  cpu time    0.04: real time    0.04
    SETDIJ:  cpu time    0.02: real time    0.02
     EDDAV:  cpu time    0.28: real time    0.28
       DOS:  cpu time    0.00: real time    0.00
    CHARGE:  cpu time    0.02: real time    0.03
    MIXING:  cpu time    0.00: real time    0.00
    --------------------------------------------
      LOOP:  cpu time    0.37: real time    0.41

 eigenvalue-minimisations  :  1176
 total energy-change (2. order) :-0.1922472E-01  (-0.2972047E-03)
 number of electron       4.9999996 magnetization       0.0766273
 augmentation part        0.3816977 magnetization      -0.1212843

 Broyden mixing:
  rms(total) = 0.53470E-01    rms(broyden)= 0.53361E-01
  rms(prec ) = 0.96006E-01
  weight for this iteration     100.00

 eigenvalues of (default mixing * dielectric matrix)
  average eigenvalue GAMMA=   1.1158
  2.1072  0.9171  0.9171  0.9871  0.6504

 Free energy of the ion-electron system (eV)
  ---------------------------------------------------
  alpha Z        PSCENC =        30.58334069
  Ewald energy   TEWEN  =      -197.90100875
  -1/2 Hartree   DENC   =        -0.36389381
  -exchange  EXHF       =         0.00000000
  -V(xc)+E(xc)   XCENC  =       -65.79725968
  PAW double counting   =       186.28585349     -112.87822676
  entropy T*S    EENTRO =        -0.00007286
  eigenvalues    EBANDS =        18.41189587
  atomic energy  EATOM  =       129.62738067
  ---------------------------------------------------
  free energy    TOTEN  =       -12.03199114 eV

  energy without entropy =      -12.03191828  energy(sigma->0) =      -12.03196685


--------------------------------------------------------------------------------------------------------




----------------------------------------- Iteration    1(  11)  ---------------------------------------


    POTLOK:  cpu time    0.04: real time    0.04
    SETDIJ:  cpu time    0.02: real time    0.02
     EDDAV:  cpu time    0.27: real time    0.27
       DOS:  cpu time    0.00: real time    0.00
    CHARGE:  cpu time    0.02: real time    0.03
    MIXING:  cpu time    0.00: real time    0.00
    --------------------------------------------
      LOOP:  cpu time    0.36: real time    0.39

 eigenvalue-minimisations  :  1146
 total energy-change (2. order) :-0.1277940E-01  (-0.1020843E-02)
 number of electron       4.9999996 magnetization      -0.0921941
 augmentation part        0.3798038 magnetization      -0.1429118

 Broyden mixing:
  rms(total) = 0.98336E-02    rms(broyden)= 0.88048E-02
  rms(prec ) = 0.15862E-01
  weight for this iteration     100.00
  WARNING: grid for Broyden might be to small

 eigenvalues of (default mixing * dielectric matrix)
  average eigenvalue GAMMA=   1.1793
  1.8863  1.8863  0.9876  0.9876  0.6178  0.7104

 Free energy of the ion-electron system (eV)
  ---------------------------------------------------
  alpha Z        PSCENC =        30.58334069
  Ewald energy   TEWEN  =      -197.90100875
  -1/2 Hartree   DENC   =        -0.42156540
  -exchange  EXHF       =         0.00000000
  -V(xc)+E(xc)   XCENC  =       -65.85434984
  PAW double counting   =       186.97203579     -113.54300514
  entropy T*S    EENTRO =        -0.00005747
  eigenvalues    EBANDS =        18.49245891
  atomic energy  EATOM  =       129.62738067
  ---------------------------------------------------
  free energy    TOTEN  =       -12.04477054 eV

  energy without entropy =      -12.04471307  energy(sigma->0) =      -12.04475138


--------------------------------------------------------------------------------------------------------




----------------------------------------- Iteration    1(  12)  ---------------------------------------


    POTLOK:  cpu time    0.04: real time    0.04
    SETDIJ:  cpu time    0.02: real time    0.02
     EDDAV:  cpu time    0.28: real time    0.28
       DOS:  cpu time    0.00: real time    0.00
    CHARGE:  cpu time    0.02: real time    0.03
    MIXING:  cpu time    0.00: real time    0.00
    --------------------------------------------
      LOOP:  cpu time    0.37: real time    0.39

 eigenvalue-minimisations  :  1170
 total energy-change (2. order) : 0.6865198E-04  (-0.2414167E-03)
 number of electron       4.9999996 magnetization      -0.1234725
 augmentation part        0.3796131 magnetization      -0.0767083

 Broyden mixing:
  rms(total) = 0.10746E-01    rms(broyden)= 0.10108E-01
  rms(prec ) = 0.15947E-01
  weight for this iteration     100.00

 eigenvalues of (default mixing * dielectric matrix)
  average eigenvalue GAMMA=   1.2312
  2.4172  2.4172  0.7350  0.7350  0.8308  0.8308  0.6520

 Free energy of the ion-electron system (eV)
  ---------------------------------------------------
  alpha Z        PSCENC =        30.58334069
  Ewald energy   TEWEN  =      -197.90100875
  -1/2 Hartree   DENC   =        -0.43994290
  -exchange  EXHF       =         0.00000000
  -V(xc)+E(xc)   XCENC  =       -65.86439832
  PAW double counting   =       188.32397878     -114.88900683
  entropy T*S    EENTRO =        -0.00015469
  eigenvalues    EBANDS =        18.51510948
  atomic energy  EATOM  =       129.62738067
  ---------------------------------------------------
  free energy    TOTEN  =       -12.04470188 eV

  energy without entropy =      -12.04454719  energy(sigma->0) =      -12.04465032


--------------------------------------------------------------------------------------------------------




----------------------------------------- Iteration    1(  13)  ---------------------------------------


    POTLOK:  cpu time    0.04: real time    0.04
    SETDIJ:  cpu time    0.02: real time    0.02
     EDDAV:  cpu time    0.21: real time    0.21
       DOS:  cpu time    0.00: real time    0.00
    CHARGE:  cpu time    0.03: real time    0.03
    MIXING:  cpu time    0.00: real time    0.00
    --------------------------------------------
      LOOP:  cpu time    0.30: real time    0.31

 eigenvalue-minimisations  :   816
 total energy-change (2. order) : 0.2800827E-03  (-0.2822322E-04)
 number of electron       4.9999996 magnetization      -0.0962654
 augmentation part        0.3799549 magnetization      -0.0365490

 Broyden mixing:
  rms(total) = 0.13970E-01    rms(broyden)= 0.13907E-01
  rms(prec ) = 0.15303E-01
  weight for this iteration     100.00

 eigenvalues of (default mixing * dielectric matrix)
  average eigenvalue GAMMA=   1.2577
  2.5702  2.5702  0.9861  0.9861  0.8577  0.8577  0.6523  0.5816

 Free energy of the ion-electron system (eV)
  ---------------------------------------------------
  alpha Z        PSCENC =        30.58334069
  Ewald energy   TEWEN  =      -197.90100875
  -1/2 Hartree   DENC   =        -0.43727737
  -exchange  EXHF       =         0.00000000
  -V(xc)+E(xc)   XCENC  =       -65.86065280
  PAW double counting   =       188.82098805     -115.38759737
  entropy T*S    EENTRO =        -0.00019275
  eigenvalues    EBANDS =        18.51059782
  atomic energy  EATOM  =       129.62738067
  ---------------------------------------------------
  free energy    TOTEN  =       -12.04442180 eV

  energy without entropy =      -12.04422905  energy(sigma->0) =      -12.04435755


--------------------------------------------------------------------------------------------------------




----------------------------------------- Iteration    1(  14)  ---------------------------------------


    POTLOK:  cpu time    0.04: real time    0.04
    SETDIJ:  cpu time    0.02: real time    0.02
     EDDAV:  cpu time    0.16: real time    0.16
       DOS:  cpu time    0.00: real time    0.00
    CHARGE:  cpu time    0.03: real time    0.03
    MIXING:  cpu time    0.00: real time    0.00
    --------------------------------------------
      LOOP:  cpu time    0.25: real time    0.27

 eigenvalue-minimisations  :   552
 total energy-change (2. order) :-0.4549913E-03  (-0.9109063E-05)
 number of electron       4.9999996 magnetization      -0.0331584
 augmentation part        0.3797637 magnetization       0.0178005

 Broyden mixing:
  rms(total) = 0.10365E-01    rms(broyden)= 0.10364E-01
  rms(prec ) = 0.14202E-01
  weight for this iteration     100.00

 eigenvalues of (default mixing * dielectric matrix)
  average eigenvalue GAMMA=   1.1533
  2.3390  2.3390  1.0306  1.0306  0.9686  0.7192  0.6261  0.6632  0.6632

 Free energy of the ion-electron system (eV)
  ---------------------------------------------------
  alpha Z        PSCENC =        30.58334069
  Ewald energy   TEWEN  =      -197.90100875
  -1/2 Hartree   DENC   =        -0.43894491
  -exchange  EXHF       =         0.00000000
  -V(xc)+E(xc)   XCENC  =       -65.86183412
  PAW double counting   =       188.92861047     -115.49432203
  entropy T*S    EENTRO =        -0.00011572
  eigenvalues    EBANDS =        18.51201690
  atomic energy  EATOM  =       129.62738067
  ---------------------------------------------------
  free energy    TOTEN  =       -12.04487679 eV

  energy without entropy =      -12.04476107  energy(sigma->0) =      -12.04483822


--------------------------------------------------------------------------------------------------------




----------------------------------------- Iteration    1(  15)  ---------------------------------------


    POTLOK:  cpu time    0.04: real time    0.04
    SETDIJ:  cpu time    0.02: real time    0.02
     EDDAV:  cpu time    0.26: real time    0.26
       DOS:  cpu time    0.00: real time    0.00
    CHARGE:  cpu time    0.02: real time    0.02
    MIXING:  cpu time    0.00: real time    0.00
    --------------------------------------------
      LOOP:  cpu time    0.35: real time    0.37

 eigenvalue-minimisations  :  1092
 total energy-change (2. order) :-0.4981581E-03  (-0.3640771E-04)
 number of electron       4.9999996 magnetization      -0.0255860
 augmentation part        0.3797560 magnetization      -0.0039964

 Broyden mixing:
  rms(total) = 0.28222E-02    rms(broyden)= 0.26517E-02
  rms(prec ) = 0.37620E-02
  weight for this iteration     100.00

 eigenvalues of (default mixing * dielectric matrix)
  average eigenvalue GAMMA=   1.1234
  2.3184  1.9206  1.1268  1.0662  1.0662  0.8830  0.8830  0.6919  0.6197  0.6583

 Free energy of the ion-electron system (eV)
  ---------------------------------------------------
  alpha Z        PSCENC =        30.58334069
  Ewald energy   TEWEN  =      -197.90100875
  -1/2 Hartree   DENC   =        -0.42976767
  -exchange  EXHF       =         0.00000000
  -V(xc)+E(xc)   XCENC  =       -65.85689172
  PAW double counting   =       188.75450422     -115.32336506
  entropy T*S    EENTRO =        -0.00021300
  eigenvalues    EBANDS =        18.50064566
  atomic energy  EATOM  =       129.62738067
  ---------------------------------------------------
  free energy    TOTEN  =       -12.04537495 eV

  energy without entropy =      -12.04516196  energy(sigma->0) =      -12.04530395


--------------------------------------------------------------------------------------------------------




----------------------------------------- Iteration    1(  16)  ---------------------------------------


    POTLOK:  cpu time    0.04: real time    0.04
    SETDIJ:  cpu time    0.02: real time    0.02
     EDDAV:  cpu time    0.16: real time    0.16
       DOS:  cpu time    0.00: real time    0.00
    --------------------------------------------
      LOOP:  cpu time    0.22: real time    0.23

 eigenvalue-minimisations  :   528
 total energy-change (2. order) :-0.2159421E-04  (-0.4863876E-06)
 number of electron       4.9999996 magnetization      -0.0255860
 augmentation part        0.3797560 magnetization      -0.0039964

 Free energy of the ion-electron system (eV)
  ---------------------------------------------------
  alpha Z        PSCENC =        30.58334069
  Ewald energy   TEWEN  =      -197.90100875
  -1/2 Hartree   DENC   =        -0.42902945
  -exchange  EXHF       =         0.00000000
  -V(xc)+E(xc)   XCENC  =       -65.85671764
  PAW double counting   =       188.72976893     -115.29867006
  entropy T*S    EENTRO =        -0.00023504
  eigenvalues    EBANDS =        18.49977410
  atomic energy  EATOM  =       129.62738067
  ---------------------------------------------------
  free energy    TOTEN  =       -12.04539655 eV

  energy without entropy =      -12.04516150  energy(sigma->0) =      -12.04531820


--------------------------------------------------------------------------------------------------------




 average (electrostatic) potential at core
  the test charge radii are     1.2538
  (the norm of the test charge is              1.0000)
       1 -35.4659
 
 
 
 E-fermi :   5.7987     XC(G=0): -12.4008     alpha+bet :-13.5035


 spin component 1

 k-point   1 :       0.0500    0.0500    0.0500
  band No.  band energies     occupation 
      1      -1.5255      1.00000
      2       6.2271      0.00000
      3       6.2271      0.00000
      4       7.3025      0.00000
      5       9.4231      0.00000
      6       9.4231      0.00000

 k-point   2 :       0.1500    0.0500    0.0500
  band No.  band energies     occupation 
      1      -0.4012      1.00000
      2       5.6019      1.00000
      3       5.7844      0.73096
      4       8.7428      0.00000
      5       9.2761      0.00000
      6       9.9907      0.00000

 k-point   3 :       0.2500    0.0500    0.0500
  band No.  band energies     occupation 
      1       0.9424      1.00000
      2       4.9415      1.00000
      3       5.4775      1.00000
      4       9.5172      0.00000
      5      10.3912      0.00000
      6      10.8442      0.00000

 k-point   4 :       0.3500    0.0500    0.0500
  band No.  band energies     occupation 
      1       1.5808      1.00000
      2       4.4622      1.00000
      3       6.1567      0.00000
      4       9.8417      0.00000
      5      10.6402      0.00000
      6      12.8544      0.00000

 k-point   5 :       0.4500    0.0500    0.0500
  band No.  band energies     occupation 
      1       1.6349      1.00000
      2       4.2722      1.00000
      3       6.9882      0.00000
      4       9.7586      0.00000
      5      10.7574      0.00000
      6      13.7994      0.00000

 k-point   6 :      -0.0500    0.0500    0.0500
  band No.  band energies     occupation 
      1      -1.9396      1.00000
      2       6.5476      0.00000
      3       6.5476      0.00000
      4       6.6857      0.00000
      5       9.2747      0.00000
      6       9.7670      0.00000

 k-point   7 :       0.1500    0.1500    0.0500
  band No.  band energies     occupation 
      1       0.8721      1.00000
      2       5.1106      1.00000
      3       5.1369      1.00000
      4       9.4088      0.00000
      5      10.4304      0.00000
      6      10.7711      0.00000

 k-point   8 :       0.2500    0.1500    0.0500
  band No.  band energies     occupation 
      1       2.0650      1.00000
      2       4.5523      1.00000
      3       5.1226      1.00000
      4       9.6771      0.00000
      5      10.6930      0.00000
      6      12.7946      0.00000

 k-point   9 :       0.3500    0.1500    0.0500
  band No.  band energies     occupation 
      1       2.3442      1.00000
      2       4.3472      1.00000
      3       5.9776      0.00000
      4       9.8770      0.00000
      5      10.8457      0.00000
      6      14.6641      0.00000

 k-point  10 :      -0.1500    0.1500    0.0500
  band No.  band energies     occupation 
      1      -1.1233      1.00000
      2       6.1137      0.00000
      3       6.3620      0.00000
      4       7.4557      0.00000
      5       8.6515      0.00000
      6      10.2584      0.00000

 k-point  11 :       0.2500    0.2500    0.0500
  band No.  band energies     occupation 
      1       3.0140      1.00000
      2       4.4095      1.00000
      3       5.0907      1.00000
      4      10.0418      0.00000
      5      10.7231      0.00000
      6      15.0604      0.00000

 k-point  12 :       0.3500    0.2500    0.0500
  band No.  band energies     occupation 
      1       3.1954      1.00000
      2       4.4857      1.00000
      3       5.2942      1.00000
      4      10.2795      0.00000
      5      10.8012      0.00000
      6      14.4132      0.00000

 k-point  13 :      -0.2500    0.2500    0.0500
  band No.  band energies     occupation 
      1       0.2025      1.00000
      2       5.4319      1.00000
      3       5.7811      0.77835
      4       8.7442      0.00000
      5       9.1574      0.00000
      6      10.4775      0.00000

 k-point  14 :      -0.1500    0.2500    0.0500
  band No.  band energies     occupation 
      1      -0.0415      1.00000
      2       5.7951      0.56097
      3       5.8543     -0.03315
      4       8.1223      0.00000
      5       8.6229      0.00000
      6      10.6228      0.00000

 k-point  15 :      -0.3500    0.3500    0.0500
  band No.  band energies     occupation 
      1       1.2622      1.00000
      2       4.8576      1.00000
      3       5.7637      0.96013
      4       9.3981      0.00000
      5      10.6873      0.00000
      6      11.3798      0.00000

 k-point  16 :      -0.2500    0.3500    0.0500
  band No.  band energies     occupation 
      1       1.2710      1.00000
      2       5.1282      1.00000
      3       5.5178      1.00000
      4       8.5096      0.00000
      5      10.6267      0.00000
      6      10.9216      0.00000

 k-point  17 :      -0.4500    0.4500    0.0500
  band No.  band energies     occupation 
      1       1.5146      1.00000
      2       4.5173      1.00000
      3       6.7314      0.00000
      4       9.6025      0.00000
      5      11.0127      0.00000
      6      13.4280      0.00000

 k-point  18 :      -0.3500    0.4500    0.0500
  band No.  band energies     occupation 
      1       1.9496      1.00000
      2       4.7979      1.00000
      3       5.6767      1.00150
      4       9.0820      0.00000
      5      11.0170      0.00000
      6      12.9121      0.00000

 k-point  19 :      -0.2500    0.4500    0.0500
  band No.  band energies     occupation 
      1       2.4245      1.00000
      2       4.5266      1.00000
      3       5.5050      1.00000
      4       8.8314      0.00000
      5      10.7153      0.00000
      6      12.9458      0.00000

 k-point  20 :      -0.4500   -0.4500    0.0500
  band No.  band energies     occupation 
      1       2.0132      1.00000
      2       4.6900      1.00000
      3       6.1531      0.00000
      4       9.0499      0.00000
      5      11.4130      0.00000
      6      14.2080      0.00000

 k-point  21 :      -0.3500   -0.4500    0.0500
  band No.  band energies     occupation 
      1       2.8967      1.00000
      2       4.5109      1.00000
      3       5.2990      1.00000
      4       9.2799      0.00000
      5      10.8162      0.00000
      6      15.2024      0.00000

 k-point  22 :      -0.3500   -0.3500    0.0500
  band No.  band energies     occupation 
      1       3.5842      1.00000
      2       4.5538      1.00000
      3       4.5538      1.00000
      4      10.3415      0.00000
      5      10.3415      0.00000
      6      14.7321      0.00000

 k-point  23 :       0.1500    0.1500    0.1500
  band No.  band energies     occupation 
      1       2.2447      1.00000
      2       4.5527      1.00000
      3       4.5527      1.00000
      4      10.3505      0.00000
      5      10.3505      0.00000
      6      12.8328      0.00000

 k-point  24 :       0.2500    0.1500    0.1500
  band No.  band energies     occupation 
      1       3.2252      1.00000
      2       4.3342      1.00000
      3       4.9098      1.00000
      4      10.4812      0.00000
      5      10.8166      0.00000
      6      15.1381      0.00000

 k-point  25 :       0.3500    0.1500    0.1500
  band No.  band energies     occupation 
      1       3.2176      1.00000
      2       4.2545      1.00000
      3       5.6417      1.00004
      4      10.5322      0.00000
      5      10.9267      0.00000
      6      14.4019      0.00000

 k-point  26 :      -0.1500    0.1500    0.1500
  band No.  band energies     occupation 
      1      -0.3479      1.00000
      2       6.4904      0.00000
      3       6.4905      0.00000
      4       7.1809      0.00000
      5       7.4374      0.00000
      6      10.7929      0.00000

 k-point  27 :       0.2500    0.2500    0.1500
  band No.  band energies     occupation 
      1       3.8709      1.00000
      2       4.4939      1.00000
      3       4.8921      1.00000
      4      10.7585      0.00000
      5      10.8930      0.00000
      6      13.6574      0.00000

 k-point  28 :      -0.2500    0.2500    0.1500
  band No.  band energies     occupation 
      1       0.9175      1.00000
      2       5.6836      1.00268
      3       6.2533      0.00000
      4       7.3950      0.00000
      5       8.9057      0.00000
      6      10.9994      0.00000

 k-point  29 :      -0.3500    0.3500    0.1500
  band No.  band energies     occupation 
      1       1.9971      1.00000
      2       5.0495      1.00000
      3       5.7096      1.01511
      4       8.1830      0.00000
      5      11.0599      0.00000
      6      11.0701      0.00000

 k-point  30 :      -0.2500    0.3500    0.1500
  band No.  band energies     occupation 
      1       2.0890      1.00000
      2       4.7390      1.00000
      3       6.3138      0.00000
      4       7.6800      0.00000
      5      10.2720      0.00000
      6      11.0589      0.00000

 k-point  31 :      -0.4500    0.4500    0.1500
  band No.  band energies     occupation 
      1       2.2382      1.00000
      2       5.3512      1.00000
      3       5.4202      1.00000
      4       8.2355      0.00000
      5      12.1815      0.00000
      6      13.2004      0.00000

 k-point  32 :      -0.3500    0.4500    0.1500
  band No.  band energies     occupation 
      1       2.8479      1.00000
      2       4.3241      1.00000
      3       5.9143     -0.00258
      4       8.3003      0.00000
      5      10.9331      0.00000
      6      13.1305      0.00000

 k-point  33 :      -0.4500   -0.4500    0.1500
  band No.  band energies     occupation 
      1       2.8617      1.00000
      2       4.6813      1.00000
      3       5.4623      1.00000
      4       8.3146      0.00000
      5      12.0622      0.00000
      6      14.7809      0.00000

 k-point  34 :      -0.3500   -0.4500    0.1500
  band No.  band energies     occupation 
      1       3.7386      1.00000
      2       3.8453      1.00000
      3       5.1448      1.00000
      4       9.4410      0.00000
      5      10.7905      0.00000
      6      15.4943      0.00000

 k-point  35 :       0.2500    0.2500    0.2500
  band No.  band energies     occupation 
      1       4.4940      1.00000
      2       4.4940      1.00000
      3       4.4940      1.00000
      4      10.9338      0.00000
      5      10.9338      0.00000
      6      12.7097      0.00000

 k-point  36 :      -0.2500    0.2500    0.2500
  band No.  band energies     occupation 
      1       1.9942      1.00000
      2       4.9341      1.00000
      3       7.2072      0.00000
      4       7.2072      0.00000
      5       9.0141      0.00000
      6      10.8584      0.00000

 k-point  37 :      -0.3500    0.3500    0.2500
  band No.  band energies     occupation 
      1       2.8430      1.00000
      2       4.0481      1.00000
      3       7.2052      0.00000
      4       7.8355      0.00000
      5      10.7303      0.00000
      6      10.9693      0.00000

 k-point  38 :      -0.4500    0.4500    0.2500
  band No.  band energies     occupation 
      1       2.9480      1.00000
      2       3.8768      1.00000
      3       6.9868      0.00000
      4       7.6518      0.00000
      5      12.9258      0.00000
      6      12.9346      0.00000

 k-point  39 :      -0.3500    0.4500    0.2500
  band No.  band energies     occupation 
      1       3.1804      1.00000
      2       3.3096      1.00000
      3       6.9203      0.00000
      4       8.9347      0.00000
      5      10.9405      0.00000
      6      13.0547      0.00000

 k-point  40 :      -0.4500   -0.4500    0.2500
  band No.  band energies     occupation 
      1       3.0160      1.00000
      2       3.3346      1.00000
      3       6.6579      0.00000
      4       9.5014      0.00000
      5      11.8428      0.00000
      6      15.3946      0.00000

 k-point  41 :      -0.3500    0.3500    0.3500
  band No.  band energies     occupation 
      1       2.9696      1.00000
      2       3.1300      1.00000
      3       8.7695      0.00000
      4       8.7695      0.00000
      5      10.9014      0.00000
      6      10.9921      0.00000

 k-point  42 :      -0.4500    0.4500    0.3500
  band No.  band energies     occupation 
      1       2.6429      1.00000
      2       2.7873      1.00000
      3       9.1770      0.00000
      4       9.2118      0.00000
      5      12.4915      0.00000
      6      13.1159      0.00000

 k-point  43 :      -0.4500   -0.4500    0.3500
  band No.  band energies     occupation 
      1       2.4874      1.00000
      2       2.4874      1.00000
      3       9.0966      0.00000
      4      11.5936      0.00000
      5      11.5936      0.00000
      6      15.6722      0.00000

 k-point  44 :      -0.4500    0.4500    0.4500
  band No.  band energies     occupation 
      1       2.2076      1.00000
      2       2.2327      1.00000
      3      11.5213      0.00000
      4      11.5213      0.00000
      5      12.4837      0.00000
      6      13.5583      0.00000

 spin component 2

 k-point   1 :       0.0500    0.0500    0.0500
  band No.  band energies     occupation 
      1      -1.5409      1.00000
      2       6.2045      0.00000
      3       6.2045      0.00000
      4       7.2797      0.00000
      5       9.4126      0.00000
      6       9.4126      0.00000

 k-point   2 :       0.1500    0.0500    0.0500
  band No.  band energies     occupation 
      1      -0.4166      1.00000
      2       5.5797      1.00000
      3       5.7641      0.95741
      4       8.7209      0.00000
      5       9.2630      0.00000
      6       9.9795      0.00000

 k-point   3 :       0.2500    0.0500    0.0500
  band No.  band energies     occupation 
      1       0.9265      1.00000
      2       4.9197      1.00000
      3       5.4606      1.00000
      4       9.5023      0.00000
      5      10.3795      0.00000
      6      10.8228      0.00000

 k-point   4 :       0.3500    0.0500    0.0500
  band No.  band energies     occupation 
      1       1.5641      1.00000
      2       4.4404      1.00000
      3       6.1427      0.00000
      4       9.8266      0.00000
      5      10.6281      0.00000
      6      12.8349      0.00000

 k-point   5 :       0.4500    0.0500    0.0500
  band No.  band energies     occupation 
      1       1.6179      1.00000
      2       4.2505      1.00000
      3       6.9753      0.00000
      4       9.7439      0.00000
      5      10.7453      0.00000
      6      13.7816      0.00000

 k-point   6 :      -0.0500    0.0500    0.0500
  band No.  band energies     occupation 
      1      -1.9550      1.00000
      2       6.5245      0.00000
      3       6.5245      0.00000
      4       6.6625      0.00000
      5       9.2647      0.00000
      6       9.7571      0.00000

 k-point   7 :       0.1500    0.1500    0.0500
  band No.  band energies     occupation 
      1       0.8565      1.00000
      2       5.0914      1.00000
      3       5.1158      1.00000
      4       9.3952      0.00000
      5      10.4182      0.00000
      6      10.7498      0.00000

 k-point   8 :       0.2500    0.1500    0.0500
  band No.  band energies     occupation 
      1       2.0485      1.00000
      2       4.5325      1.00000
      3       5.1050      1.00000
      4       9.6625      0.00000
      5      10.6805      0.00000
      6      12.7756      0.00000

 k-point   9 :       0.3500    0.1500    0.0500
  band No.  band energies     occupation 
      1       2.3270      1.00000
      2       4.3266      1.00000
      3       5.9632     -0.00002
      4       9.8623      0.00000
      5      10.8328      0.00000
      6      14.6475      0.00000

 k-point  10 :      -0.1500    0.1500    0.0500
  band No.  band energies     occupation 
      1      -1.1387      1.00000
      2       6.0909      0.00000
      3       6.3404      0.00000
      4       7.4329      0.00000
      5       8.6401      0.00000
      6      10.2478      0.00000

 k-point  11 :       0.2500    0.2500    0.0500
  band No.  band energies     occupation 
      1       2.9957      1.00000
      2       4.3929      1.00000
      3       5.0732      1.00000
      4      10.0270      0.00000
      5      10.7097      0.00000
      6      15.0443      0.00000

 k-point  12 :       0.3500    0.2500    0.0500
  band No.  band energies     occupation 
      1       3.1763      1.00000
      2       4.4683      1.00000
      3       5.2794      1.00000
      4      10.2648      0.00000
      5      10.7873      0.00000
      6      14.3915      0.00000

 k-point  13 :      -0.2500    0.2500    0.0500
  band No.  band energies     occupation 
      1       0.1870      1.00000
      2       5.4095      1.00000
      3       5.7637      0.95996
      4       8.7298      0.00000
      5       9.1351      0.00000
      6      10.4660      0.00000

 k-point  14 :      -0.1500    0.2500    0.0500
  band No.  band energies     occupation 
      1      -0.0568      1.00000
      2       5.7760      0.84432
      3       5.8322      0.05086
      4       8.1087      0.00000
      5       8.6007      0.00000
      6      10.6115      0.00000

 k-point  15 :      -0.3500    0.3500    0.0500
  band No.  band energies     occupation 
      1       1.2460      1.00000
      2       4.8355      1.00000
      3       5.7496      1.02319
      4       9.3824      0.00000
      5      10.6752      0.00000
      6      11.3586      0.00000

 k-point  16 :      -0.2500    0.3500    0.0500
  band No.  band energies     occupation 
      1       1.2554      1.00000
      2       5.1106      1.00000
      3       5.4981      1.00000
      4       8.4936      0.00000
      5      10.6062      0.00000
      6      10.9084      0.00000

 k-point  17 :      -0.4500    0.4500    0.0500
  band No.  band energies     occupation 
      1       1.4978      1.00000
      2       4.4953      1.00000
      3       6.7192      0.00000
      4       9.5873      0.00000
      5      11.0001      0.00000
      6      13.4084      0.00000

 k-point  18 :      -0.3500    0.4500    0.0500
  band No.  band energies     occupation 
      1       1.9331      1.00000
      2       4.7776      1.00000
      3       5.6625      1.00040
      4       9.0661      0.00000
      5      11.0029      0.00000
      6      12.8932      0.00000

 k-point  19 :      -0.2500    0.4500    0.0500
  band No.  band energies     occupation 
      1       2.4081      1.00000
      2       4.5116      1.00000
      3       5.4858      1.00000
      4       8.8146      0.00000
      5      10.7004      0.00000
      6      12.9277      0.00000

 k-point  20 :      -0.4500   -0.4500    0.0500
  band No.  band energies     occupation 
      1       1.9966      1.00000
      2       4.6688      1.00000
      3       6.1409      0.00000
      4       9.0346      0.00000
      5      11.3986      0.00000
      6      14.1906      0.00000

 k-point  21 :      -0.3500   -0.4500    0.0500
  band No.  band energies     occupation 
      1       2.8793      1.00000
      2       4.4943      1.00000
      3       5.2842      1.00000
      4       9.2634      0.00000
      5      10.8002      0.00000
      6      15.1863      0.00000

 k-point  22 :      -0.3500   -0.3500    0.0500
  band No.  band energies     occupation 
      1       3.5636      1.00000
      2       4.5403      1.00000
      3       4.5403      1.00000
      4      10.3246      0.00000
      5      10.3247      0.00000
      6      14.7113      0.00000

 k-point  23 :       0.1500    0.1500    0.1500
  band No.  band energies     occupation 
      1       2.2287      1.00000
      2       4.5331      1.00000
      3       4.5331      1.00000
      4      10.3374      0.00000
      5      10.3374      0.00000
      6      12.8139      0.00000

 k-point  24 :       0.2500    0.1500    0.1500
  band No.  band energies     occupation 
      1       3.2081      1.00000
      2       4.3142      1.00000
      3       4.8928      1.00000
      4      10.4676      0.00000
      5      10.8041      0.00000
      6      15.1213      0.00000

 k-point  25 :       0.3500    0.1500    0.1500
  band No.  band energies     occupation 
      1       3.2001      1.00000
      2       4.2343      1.00000
      3       5.6260      1.00001
      4      10.5185      0.00000
      5      10.9144      0.00000
      6      14.3799      0.00000

 k-point  26 :      -0.1500    0.1500    0.1500
  band No.  band energies     occupation 
      1      -0.3630      1.00000
      2       6.4683      0.00000
      3       6.4683      0.00000
      4       7.1703      0.00000
      5       7.4147      0.00000
      6      10.7819      0.00000

 k-point  27 :       0.2500    0.2500    0.1500
  band No.  band energies     occupation 
      1       3.8518      1.00000
      2       4.4763      1.00000
      3       4.8751      1.00000
      4      10.7456      0.00000
      5      10.8805      0.00000
      6      13.6349      0.00000

 k-point  28 :      -0.2500    0.2500    0.1500
  band No.  band energies     occupation 
      1       0.9026      1.00000
      2       5.6695      1.00079
      3       6.2313      0.00000
      4       7.3770      0.00000
      5       8.8835      0.00000
      6      10.9871      0.00000

 k-point  29 :      -0.3500    0.3500    0.1500
  band No.  band energies     occupation 
      1       1.9818      1.00000
      2       5.0370      1.00000
      3       5.6878      1.00371
      4       8.1656      0.00000
      5      11.0388      0.00000
      6      11.0562      0.00000

 k-point  30 :      -0.2500    0.3500    0.1500
  band No.  band energies     occupation 
      1       2.0744      1.00000
      2       4.7262      1.00000
      3       6.2930      0.00000
      4       7.6608      0.00000
      5      10.2514      0.00000
      6      11.0441      0.00000

 k-point  31 :      -0.4500    0.4500    0.1500
  band No.  band energies     occupation 
      1       2.2225      1.00000
      2       5.3395      1.00000
      3       5.3985      1.00000
      4       8.2196      0.00000
      5      12.1668      0.00000
      6      13.1808      0.00000

 k-point  32 :      -0.3500    0.4500    0.1500
  band No.  band energies     occupation 
      1       2.8331      1.00000
      2       4.3116      1.00000
      3       5.8947     -0.01029
      4       8.2821      0.00000
      5      10.9156      0.00000
      6      13.1122      0.00000

 k-point  33 :      -0.4500   -0.4500    0.1500
  band No.  band energies     occupation 
      1       2.8471      1.00000
      2       4.6697      1.00000
      3       5.4424      1.00000
      4       8.2967      0.00000
      5      12.0445      0.00000
      6      14.7642      0.00000

 k-point  34 :      -0.3500   -0.4500    0.1500
  band No.  band energies     occupation 
      1       3.7245      1.00000
      2       3.8332      1.00000
      3       5.1262      1.00000
      4       9.4224      0.00000
      5      10.7722      0.00000
      6      15.4764      0.00000

 k-point  35 :       0.2500    0.2500    0.2500
  band No.  band energies     occupation 
      1       4.4761      1.00000
      2       4.4761      1.00000
      3       4.4761      1.00000
      4      10.9217      0.00000
      5      10.9217      0.00000
      6      12.6867      0.00000

 k-point  36 :      -0.2500    0.2500    0.2500
  band No.  band energies     occupation 
      1       1.9803      1.00000
      2       4.9230      1.00000
      3       7.1860      0.00000
      4       7.1860      0.00000
      5       8.9920      0.00000
      6      10.8442      0.00000

 k-point  37 :      -0.3500    0.3500    0.2500
  band No.  band energies     occupation 
      1       2.8298      1.00000
      2       4.0366      1.00000
      3       7.1841      0.00000
      4       7.8159      0.00000
      5      10.7092      0.00000
      6      10.9531      0.00000

 k-point  38 :      -0.4500    0.4500    0.2500
  band No.  band energies     occupation 
      1       2.9352      1.00000
      2       3.8655      1.00000
      3       6.9658      0.00000
      4       7.6335      0.00000
      5      12.9061      0.00000
      6      12.9176      0.00000

 k-point  39 :      -0.3500    0.4500    0.2500
  band No.  band energies     occupation 
      1       3.1684      1.00000
      2       3.2982      1.00000
      3       6.9003      0.00000
      4       8.9148      0.00000
      5      10.9216      0.00000
      6      13.0363      0.00000

 k-point  40 :      -0.4500   -0.4500    0.2500
  band No.  band energies     occupation 
      1       3.0044      1.00000
      2       3.3233      1.00000
      3       6.6377      0.00000
      4       9.4819      0.00000
      5      11.8239      0.00000
      6      15.3770      0.00000

 k-point  41 :      -0.3500    0.3500    0.3500
  band No.  band energies     occupation 
      1       2.9580      1.00000
      2       3.1188      1.00000
      3       8.7493      0.00000
      4       8.7493      0.00000
      5      10.8807      0.00000
      6      10.9748      0.00000

 k-point  42 :      -0.4500    0.4500    0.3500
  band No.  band energies     occupation 
      1       2.6316      1.00000
      2       2.7761      1.00000
      3       9.1574      0.00000
      4       9.1916      0.00000
      5      12.4719      0.00000
      6      13.0977      0.00000

 k-point  43 :      -0.4500   -0.4500    0.3500
  band No.  band energies     occupation 
      1       2.4762      1.00000
      2       2.4762      1.00000
      3       9.0767      0.00000
      4      11.5743      0.00000
      5      11.5743      0.00000
      6      15.6536      0.00000

 k-point  44 :      -0.4500    0.4500    0.4500
  band No.  band energies     occupation 
      1       2.1963      1.00000
      2       2.2215      1.00000
      3      11.5018      0.00000
      4      11.5018      0.00000
      5      12.4643      0.00000
      6      13.5395      0.00000


--------------------------------------------------------------------------------------------------------


 soft charge-density along one line, spin component           1
         0         1         2         3         4         5         6         7         8         9
 total charge-density along one line
 
 soft charge-density along one line, spin component           2
         0         1         2         3         4         5         6         7         8         9
 total charge-density along one line
 
 pseudopotential strength for first ion, spin component:           1
 -6.622   0.000   0.002   0.000   0.001   0.084   0.000   0.000
  0.000  -6.621   0.000   0.002   0.000   0.000   0.084   0.000
  0.002   0.000  -6.620   0.000  -0.001   0.000   0.000   0.084
  0.000   0.002   0.000  -6.622   0.000   0.000   0.000   0.000
  0.001   0.000  -0.001   0.000  -6.619   0.000   0.000   0.000
  0.084   0.000   0.000   0.000   0.000   0.071   0.000   0.000
  0.000   0.084   0.000   0.000   0.000   0.000   0.071   0.000
  0.000   0.000   0.084   0.000   0.000   0.000   0.000   0.071
  0.000   0.000   0.000   0.084   0.000   0.000   0.000   0.000
  0.000   0.000   0.000   0.000   0.084   0.000   0.000   0.000
  0.000   0.000   0.000   0.000   0.000   0.000   0.000   0.000
  0.000   0.000   0.000   0.000   0.000   0.000   0.000   0.000
  0.000   0.000   0.000   0.000   0.000   0.000   0.000   0.000
  0.000   0.000   0.000   0.000   0.000   0.000   0.000   0.000
  0.000   0.000   0.000   0.000   0.000   0.000   0.000   0.000
  0.000   0.000   0.000   0.000   0.000   0.000   0.000   0.000
  0.000   0.000   0.000   0.000   0.000   0.000   0.000   0.000
  0.000   0.000   0.000   0.000   0.000   0.000   0.000   0.000
 pseudopotential strength for first ion, spin component:           2
 -6.623   0.000   0.002   0.000   0.001   0.084   0.000   0.000
  0.000  -6.621   0.000   0.002   0.000   0.000   0.084   0.000
  0.002   0.000  -6.621   0.000  -0.001   0.000   0.000   0.084
  0.000   0.002   0.000  -6.623   0.000   0.000   0.000   0.000
  0.001   0.000  -0.001   0.000  -6.620   0.000   0.000   0.000
  0.084   0.000   0.000   0.000   0.000   0.071   0.000   0.000
  0.000   0.084   0.000   0.000   0.000   0.000   0.071   0.000
  0.000   0.000   0.084   0.000   0.000   0.000   0.000   0.071
  0.000   0.000   0.000   0.084   0.000   0.000   0.000   0.000
  0.000   0.000   0.000   0.000   0.084   0.000   0.000   0.000
  0.000   0.000   0.000   0.000   0.000   0.000   0.000   0.000
  0.000   0.000   0.000   0.000   0.000   0.000   0.000   0.000
  0.000   0.000   0.000   0.000   0.000   0.000   0.000   0.000
  0.000   0.000   0.000   0.000   0.000   0.000   0.000   0.000
  0.000   0.000   0.000   0.000   0.000   0.000   0.000   0.000
  0.000   0.000   0.000   0.000   0.000   0.000   0.000   0.000
  0.000   0.000   0.000   0.000   0.000   0.000   0.000   0.000
  0.000   0.000   0.000   0.000   0.000   0.000   0.000   0.000
 total augmentation occupancy for first ion, spin component:           1
  0.607   0.000   0.073   0.000   0.042  -0.528   0.000  -0.015   0.000  -0.009   0.000   0.000   0.000   0.000   0.000   0.000
  0.000   0.667   0.000   0.084   0.000   0.000  -0.540   0.000  -0.017   0.000   0.000   0.000   0.000   0.000   0.000   0.000
  0.073   0.000   0.681   0.000  -0.026  -0.015   0.000  -0.543   0.000   0.005   0.000   0.000   0.000   0.000   0.000   0.000
  0.000   0.084   0.000   0.607   0.000   0.000  -0.017   0.000  -0.528   0.000   0.000   0.000   0.000   0.000   0.000   0.000
  0.042   0.000  -0.026   0.000   0.711  -0.009   0.000   0.005   0.000  -0.549   0.000   0.000   0.000   0.000   0.000   0.000
 -0.528   0.000  -0.015   0.000  -0.009   0.503   0.000  -0.023   0.000  -0.013   0.000   0.000   0.000   0.000   0.000   0.000
  0.000  -0.540   0.000  -0.017   0.000   0.000   0.484   0.000  -0.027   0.000   0.000   0.000   0.000   0.000   0.000   0.000
 -0.015   0.000  -0.543   0.000   0.005  -0.023   0.000   0.479   0.000   0.008   0.000   0.000   0.000   0.000   0.000   0.000
  0.000  -0.017   0.000  -0.528   0.000   0.000  -0.027   0.000   0.503   0.000   0.000   0.000   0.000   0.000   0.000   0.000
 -0.009   0.000   0.005   0.000  -0.549  -0.013   0.000   0.008   0.000   0.470   0.000   0.000   0.000   0.000   0.000   0.000
  0.000   0.000   0.000   0.000   0.000   0.000   0.000   0.000   0.000   0.000   1.425  -0.312   0.000   0.000   0.000   0.000
  0.000   0.000   0.000   0.000   0.000   0.000   0.000   0.000   0.000   0.000  -0.312   0.084   0.000   0.000   0.000   0.000
  0.000   0.000   0.000   0.000   0.000   0.000   0.000   0.000   0.000   0.000   0.000   0.000   0.310   0.000   0.000   0.015
  0.000   0.000   0.000   0.000   0.000   0.000   0.000   0.000   0.000   0.000   0.000   0.000   0.000   0.310   0.000   0.000
  0.000   0.000   0.000   0.000   0.000   0.000   0.000   0.000   0.000   0.000   0.000   0.000   0.000   0.000   0.310   0.000
  0.000   0.000   0.000   0.000   0.000   0.000   0.000   0.000   0.000   0.000   0.000   0.000   0.015   0.000   0.000   0.001
  0.000   0.000   0.000   0.000   0.000   0.000   0.000   0.000   0.000   0.000   0.000   0.000   0.000   0.015   0.000   0.000
  0.000   0.000   0.000   0.000   0.000   0.000   0.000   0.000   0.000   0.000   0.000   0.000   0.000   0.000   0.015   0.000
 total augmentation occupancy for first ion, spin component:           2
 -0.003   0.000  -0.002   0.000  -0.001   0.002   0.000   0.001   0.000   0.000   0.000   0.000   0.000   0.000   0.000   0.000
  0.000  -0.005   0.000  -0.002   0.000   0.000   0.002   0.000   0.001   0.000   0.000   0.000   0.000   0.000   0.000   0.000
 -0.002   0.000  -0.005   0.000   0.001   0.001   0.000   0.003   0.000   0.000   0.000   0.000   0.000   0.000   0.000   0.000
  0.000  -0.002   0.000  -0.003   0.000   0.000   0.001   0.000   0.002   0.000   0.000   0.000   0.000   0.000   0.000   0.000
 -0.001   0.000   0.001   0.000  -0.006   0.000   0.000   0.000   0.000   0.003   0.000   0.000   0.000   0.000   0.000   0.000
  0.002   0.000   0.001   0.000   0.000  -0.001   0.000   0.000   0.000   0.000   0.000   0.000   0.000   0.000   0.000   0.000
  0.000   0.002   0.000   0.001   0.000   0.000  -0.001   0.000   0.000   0.000   0.000   0.000   0.000   0.000   0.000   0.000
  0.001   0.000   0.003   0.000   0.000   0.000   0.000  -0.001   0.000   0.000   0.000   0.000   0.000   0.000   0.000   0.000
  0.000   0.001   0.000   0.002   0.000   0.000   0.000   0.000  -0.001   0.000   0.000   0.000   0.000   0.000   0.000   0.000
  0.000   0.000   0.000   0.000   0.003   0.000   0.000   0.000   0.000  -0.001   0.000   0.000   0.000   0.000   0.000   0.000
  0.000   0.000   0.000   0.000   0.000   0.000   0.000   0.000   0.000   0.000  -0.001   0.001   0.000   0.000   0.000   0.000
  0.000   0.000   0.000   0.000   0.000   0.000   0.000   0.000   0.000   0.000   0.001  -0.001   0.000   0.000   0.000   0.000
  0.000   0.000   0.000   0.000   0.000   0.000   0.000   0.000   0.000   0.000   0.000   0.000  -0.001   0.000   0.000   0.000
  0.000   0.000   0.000   0.000   0.000   0.000   0.000   0.000   0.000   0.000   0.000   0.000   0.000  -0.001   0.000   0.000
  0.000   0.000   0.000   0.000   0.000   0.000   0.000   0.000   0.000   0.000   0.000   0.000   0.000   0.000  -0.001   0.000
  0.000   0.000   0.000   0.000   0.000   0.000   0.000   0.000   0.000   0.000   0.000   0.000   0.000   0.000   0.000   0.000
  0.000   0.000   0.000   0.000   0.000   0.000   0.000   0.000   0.000   0.000   0.000   0.000   0.000   0.000   0.000   0.000
  0.000   0.000   0.000   0.000   0.000   0.000   0.000   0.000   0.000   0.000   0.000   0.000   0.000   0.000   0.000   0.000


------------------------ aborting loop because EDIFF is reached ----------------------------------------


 


 total charge     
 
# of ion     s       p       d       tot
----------------------------------------
  1        0.730   0.731   3.223   4.683
 


 magnetization (x)
 
# of ion     s       p       d       tot
----------------------------------------
  1       -0.001  -0.002  -0.016  -0.019
 
    CHARGE:  cpu time    0.02: real time    0.02
    FORLOC:  cpu time    0.00: real time    0.00
    FORNL :  cpu time    0.05: real time    0.05
    STRESS:  cpu time    0.11: real time    0.11
    FORCOR:  cpu time    0.04: real time    0.04
    FORHAR:  cpu time    0.00: real time    0.00
    MIXING:  cpu time    0.00: real time    0.00

  FORCE on cell =-STRESS in cart. coord.  units (eV):
  Direction    XX          YY          ZZ          XY          YZ          ZX
  --------------------------------------------------------------------------------------
  Alpha Z    30.58334    30.58334    30.58334
  Ewald     -65.96700   -65.96700   -65.96700     0.00000     0.00000     0.00000
  Hartree     0.14252     0.14252     0.14252     0.00000     0.00000     0.00000
  E(xc)     -22.63799   -22.63799   -22.63797     0.00001     0.00002     0.00001
  Local       2.87175     2.87175     2.87175     0.00000     0.00000     0.00000
  n-local    -9.04239    -9.91981    -6.69906     1.70865    -2.15755    -1.70632
  augment     2.82720     2.82720     2.82719     0.00000     0.00000     0.00000
  Kinetic    58.81623    59.04156    53.48734    -0.57458     2.85139     1.68826
  Fock        0.00000     0.00000     0.00000     0.00000     0.00000     0.00000
  -------------------------------------------------------------------------------------
  Total      -3.61888    -3.61888    -3.61888     0.00000     0.00000     0.00000
  in kB    -319.76509  -319.76509  -319.76509     0.00000     0.00000     0.00000
  external pressure =     -319.77 kB  Pullay stress =        0.00 kB


 VOLUME and BASIS-vectors are now :
 -----------------------------------------------------------------------------
  energy-cutoff  :      150.00
  volume of cell :       18.13
      direct lattice vectors                 reciprocal lattice vectors
     2.866544087  0.000000000  0.000000000     0.348852126  0.123337852  0.213627426
    -0.955514696  2.702603683  0.000000000     0.000000000  0.370013556  0.213627426
    -0.955514696 -1.351301841  2.340523446     0.000000000  0.000000000  0.427254853

  length of vectors
     2.866544087  2.866544087  2.866544087     0.427254853  0.427254853  0.427254853


 FORCES acting on ions
    electron-ion (+dipol)            ewald-force                    non-local-force                 convergence-correction
 -----------------------------------------------------------------------------------------------
   -.118E-14 -.198E-14 -.108E-14   -.279E-15 -.214E-15 0.640E-15   -.207E-24 -.931E-24 0.000E+00   0.663E-16 -.100E-15 0.164E-15
 -----------------------------------------------------------------------------------------------
   -.118E-14 -.198E-14 -.108E-14   -.279E-15 -.214E-15 0.640E-15   -.207E-24 -.931E-24 0.000E+00   0.663E-16 -.100E-15 0.164E-15
 
 
 POSITION                                       TOTAL-FORCE (eV/Angst)
 -----------------------------------------------------------------------------------
      0.00000      0.00000      0.00000         0.000000      0.000000      0.000000
 -----------------------------------------------------------------------------------
    total drift:                                0.000000      0.000000      0.000000


--------------------------------------------------------------------------------------------------------



  FREE ENERGIE OF THE ION-ELECTRON SYSTEM (eV)
  ---------------------------------------------------
  free  energy   TOTEN  =       -12.045397 eV

  energy  without entropy=      -12.045162  energy(sigma->0) =      -12.045318
 


--------------------------------------------------------------------------------------------------------


    POTLOK:  cpu time    0.06: real time    0.06


--------------------------------------------------------------------------------------------------------


 writing wavefunctions
     LOOP+:  cpu time    5.80: real time    6.18
    4ORBIT:  cpu time    0.00: real time    0.00
 


 total charge     
 
# of ion     s       p       d       tot
----------------------------------------
  1        0.730   0.731   3.223   4.683
 


 magnetization (x)
 
# of ion     s       p       d       tot
----------------------------------------
  1       -0.001  -0.002  -0.016  -0.019
 

 total amount of memory used by VASP on root node    33101. kBytes
========================================================================

   base      :      30000. kBytes
   nonl-proj :        520. kBytes
   fftplans  :        504. kBytes
   grid      :       1202. kBytes
   one-center:         31. kBytes
   wavefun   :        844. kBytes
 
  
  
 General timing and accounting informations for this job:
 ========================================================
  
                  Total CPU time used (sec):        6.324
                            User time (sec):        6.014
                          System time (sec):        0.310
                         Elapsed time (sec):        6.903
  
                   Maximum memory used (kb):           0.
                   Average memory used (kb):           0.
  
                          Minor page faults:         4789
                          Major page faults:            0
                 Voluntary context switches:         9531
