 vasp.5.2.12 11Nov11 complex                                                    
  
 executed on             LinuxIFC date 2012.10.14  15:48:55
 running on    1 nodes
 distr:  one band on    1 nodes,    1 groups


--------------------------------------------------------------------------------------------------------


 INCAR:
 POTCAR:    PAW_PBE Ta 17Jan2003                  
 POTCAR:    PAW_PBE Ta 17Jan2003                  
   VRHFIN =Ta:  6s5d                                                            
   LEXCH  = PE                                                                  
   EATOM  =   130.6506 eV,    9.6025 Ry                                         
                                                                                
   TITEL  = PAW_PBE Ta 17Jan2003                                                
   LULTRA =        F    use ultrasoft PP ?                                      
   IUNSCR =        1    unscreen: 0-lin 1-nonlin 2-no                           
   RPACOR =    2.330    partial core radius                                     
   POMASS =  180.948; ZVAL   =    5.000    mass and valenz                      
   RCORE  =    2.900    outmost cutoff radius                                   
   RWIGS  =    2.840; RWIGS  =    1.503    wigner-seitz radius (au A)           
   ENMAX  =  223.667; ENMIN  =  167.750 eV                                      
   RCLOC  =    2.205    cutoff for local pot                                    
   LCOR   =        T    correct aug charges                                     
   LPAW   =        T    paw PP                                                  
   EAUG   =  332.075                                                            
   DEXC   =    -.049                                                            
   RMAX   =    3.083    core radius for proj-oper                               
   RAUG   =    1.300    factor for augmentation sphere                          
   RDEP   =    3.060    radius for radial grids                                 
   QCUT   =   -4.055; QGAM   =    8.109    optimization parameters              
                                                                                
   Description                                                                  
     l     E      TYP  RCUT    TYP  RCUT                                        
     2   .000     23  2.500                                                     
     2   .000     23  2.500                                                     
     0   .000     23  2.500                                                     
     0   .000     23  2.500                                                     
     1   .000     23  2.900                                                     
     1  2.000     23  2.900                                                     
     3   .000      7   .000                                                     
  local pseudopotential read in
  partial core-charges read in
  atomic valenz-charges read in
  non local Contribution for L=           2  read in
    real space projection operators read in
  non local Contribution for L=           2  read in
    real space projection operators read in
  non local Contribution for L=           0  read in
    real space projection operators read in
  non local Contribution for L=           0  read in
    real space projection operators read in
  non local Contribution for L=           1  read in
    real space projection operators read in
  non local Contribution for L=           1  read in
    real space projection operators read in
    PAW grid and wavefunctions read in
 
   number of l-projection  operators is LMAX  =           6
   number of lm-projection operators is LMMAX =          18
 
  PAW_PBE Ta 17Jan2003                  :
 energy of atom  1       EATOM= -130.6506
 kinetic energy error for atom=    1.0232 (will be added to EATOM!!)
 
 
 POSCAR: Ta                                      
  positions in cartesian coordinates
  No initial velocities read in
 exchange correlation table for  LEXCH =        8
   RHO(1)=    0.500       N(1)  =     2000
   RHO(2)=  100.500       N(2)  =     4000
 


--------------------------------------------------------------------------------------------------------


 ion  position               nearest neighbor table
   1  0.000  0.000  0.000-
 
  LATTYP: Found a body centered cubic cell.
 ALAT       =     3.3100000000
  
  Lattice vectors:
  
 A1 = (   2.8665440865,   0.0000000000,   0.0000000000)
 A2 = (  -0.9555146955,   2.7026036829,   0.0000000000)
 A3 = (  -0.9555146955,  -1.3513018414,   2.3405234457)
 Subroutine PRICEL returns:
 Original cell was already a primitive cell.
 

Analysis of symmetry for initial positions (statically):

 Routine SETGRP: Setting up the symmetry group for a 
 body centered cubic supercell.


 Subroutine GETGRP returns: Found 48 space group operations
 (whereof 48 operations were pure point group operations)
 out of a pool of 48 trial point group operations.


The static configuration has the point symmetry O_h .

Analysis of symmetry for dynamics (positions and initial velocities):

 Subroutine DYNSYM returns: Found 48 space group operations
 (whereof 48 operations were pure point group operations)
 out of a pool of 48 trial space group operations
 (whereof 48 operations were pure point group operations)
 and found also     1 'primitive' translations


The dynamic configuration has the point symmetry O_h .
 
 
 KPOINTS: KPOINTS created by Atomic Simulation Env

Automatic generation of k-mesh.
 
 Subroutine IBZKPT returns following result:
 ===========================================
 
 Found     44 irreducible k-points:
 
 Following reciprocal coordinates:
            Coordinates               Weight
  0.050000  0.050000  0.050000      8.000000
  0.150000  0.050000  0.050000     24.000000
  0.250000  0.050000  0.050000     24.000000
  0.350000  0.050000  0.050000     24.000000
  0.450000  0.050000  0.050000     12.000000
 -0.050000  0.050000  0.050000      6.000000
  0.150000  0.150000  0.050000     24.000000
  0.250000  0.150000  0.050000     48.000000
  0.350000  0.150000  0.050000     48.000000
 -0.150000  0.150000  0.050000     24.000000
  0.250000  0.250000  0.050000     24.000000
  0.350000  0.250000  0.050000     24.000000
 -0.250000  0.250000  0.050000     24.000000
 -0.150000  0.250000  0.050000     24.000000
 -0.350000  0.350000  0.050000     24.000000
 -0.250000  0.350000  0.050000     48.000000
 -0.450000  0.450000  0.050000     24.000000
 -0.350000  0.450000  0.050000     48.000000
 -0.250000  0.450000  0.050000     24.000000
 -0.450000 -0.450000  0.050000     24.000000
 -0.350000 -0.450000  0.050000     48.000000
 -0.350000 -0.350000  0.050000      8.000000
  0.150000  0.150000  0.150000      8.000000
  0.250000  0.150000  0.150000     24.000000
  0.350000  0.150000  0.150000     12.000000
 -0.150000  0.150000  0.150000      6.000000
  0.250000  0.250000  0.150000     24.000000
 -0.250000  0.250000  0.150000     24.000000
 -0.350000  0.350000  0.150000     24.000000
 -0.250000  0.350000  0.150000     24.000000
 -0.450000  0.450000  0.150000     24.000000
 -0.350000  0.450000  0.150000     48.000000
 -0.450000 -0.450000  0.150000     24.000000
 -0.350000 -0.450000  0.150000     24.000000
  0.250000  0.250000  0.250000      2.000000
 -0.250000  0.250000  0.250000      6.000000
 -0.350000  0.350000  0.250000     24.000000
 -0.450000  0.450000  0.250000     24.000000
 -0.350000  0.450000  0.250000     24.000000
 -0.450000 -0.450000  0.250000     24.000000
 -0.350000  0.350000  0.350000      6.000000
 -0.450000  0.450000  0.350000     24.000000
 -0.450000 -0.450000  0.350000      8.000000
 -0.450000  0.450000  0.450000      6.000000
 
 Following cartesian coordinates:
            Coordinates               Weight
  0.017443  0.024668  0.042725      8.000000
  0.052328  0.037001  0.064088     24.000000
  0.087213  0.049335  0.085451     24.000000
  0.122098  0.061669  0.106814     24.000000
  0.156983  0.074003  0.128176     12.000000
 -0.017443  0.012334  0.021363      6.000000
  0.052328  0.074003  0.085451     24.000000
  0.087213  0.086336  0.106814     48.000000
  0.122098  0.098670  0.128176     48.000000
 -0.052328  0.037001  0.021363     24.000000
  0.087213  0.123338  0.128176     24.000000
  0.122098  0.135672  0.149539     24.000000
 -0.087213  0.061669  0.021363     24.000000
 -0.052328  0.074003  0.042725     24.000000
 -0.122098  0.086336  0.021363     24.000000
 -0.087213  0.098670  0.042725     48.000000
 -0.156983  0.111004  0.021363     24.000000
 -0.122098  0.123338  0.042725     48.000000
 -0.087213  0.135672  0.064088     24.000000
 -0.156983 -0.222008 -0.170902     24.000000
 -0.122098 -0.209674 -0.149539     48.000000
 -0.122098 -0.172673 -0.128176      8.000000
  0.052328  0.074003  0.128176      8.000000
  0.087213  0.086336  0.149539     24.000000
  0.122098  0.098670  0.170902     12.000000
 -0.052328  0.037001  0.064088      6.000000
  0.087213  0.123338  0.170902     24.000000
 -0.087213  0.061669  0.064088     24.000000
 -0.122098  0.086336  0.064088     24.000000
 -0.087213  0.098670  0.085451     24.000000
 -0.156983  0.111004  0.064088     24.000000
 -0.122098  0.123338  0.085451     48.000000
 -0.156983 -0.222008 -0.128176     24.000000
 -0.122098 -0.209674 -0.106814     24.000000
  0.087213  0.123338  0.213627      2.000000
 -0.087213  0.061669  0.106814      6.000000
 -0.122098  0.086336  0.106814     24.000000
 -0.156983  0.111004  0.106814     24.000000
 -0.122098  0.123338  0.128176     24.000000
 -0.156983 -0.222008 -0.085451     24.000000
 -0.122098  0.086336  0.149539      6.000000
 -0.156983  0.111004  0.149539     24.000000
 -0.156983 -0.222008 -0.042725      8.000000
 -0.156983  0.111004  0.192265      6.000000
 


--------------------------------------------------------------------------------------------------------




 Dimension of arrays:
   k-points           NKPTS =     44   k-points in BZ     NKDIM =     44   number of bands    NBANDS=      6
   number of dos      NEDOS =    301   number of ions     NIONS =      1
   non local maximal  LDIM  =      6   non local SUM 2l+1 LMDIM =     18
   total plane-waves  NPLWV =   1728
   max r-space proj   IRMAX =      1   max aug-charges    IRDMAX=   6686
   dimension x,y,z NGX =    12 NGY =   12 NGZ =   12
   dimension x,y,z NGXF=    24 NGYF=   24 NGZF=   24
   support grid    NGXF=    24 NGYF=   24 NGZF=   24
   ions per type =               1
 NGX,Y,Z   is equivalent  to a cutoff of   6.96,  6.96,  6.96 a.u.
 NGXF,Y,Z  is equivalent  to a cutoff of  13.92, 13.92, 13.92 a.u.


 I would recommend the setting:
   dimension x,y,z NGX =    11 NGY =   11 NGZ =   11
 SYSTEM =  unknown system                          
 POSCAR =  Ta                                      

 Startparameter for this run:
   NWRITE =      2    write-flag & timer
   PREC   = accura    normal or accurate (medium, high low for compatibility)
   ISTART =      0    job   : 0-new  1-cont  2-samecut
   ICHARG =      2    charge: 1-file 2-atom 10-const
   ISPIN  =      1    spin polarized calculation?
   LNONCOLLINEAR =      F non collinear calculations
   LSORBIT =      F    spin-orbit coupling
   INIWAV =      1    electr: 0-lowe 1-rand  2-diag
   LASPH  =      F    aspherical Exc in radial PAW
   METAGGA=      F    non-selfconsistent MetaGGA calc.

 Electronic Relaxation 1
   ENCUT  =  150.0 eV  11.02 Ry    3.32 a.u.   2.86  2.86  2.86*2*pi/ulx,y,z
   ENINI  =  150.0     initial cutoff
   ENAUG  =  332.1 eV  augmentation charge cutoff
   NELM   =     60;   NELMIN=  2; NELMDL= -5     # of ELM steps 
   EDIFF  = 0.1E-03   stopping-criterion for ELM
   LREAL  =      F    real-space projection
   NLSPLINE    = F    spline interpolate recip. space projectors
   LCOMPAT=      F    compatible to vasp.4.4
   GGA_COMPAT  = T    GGA compatible to vasp.4.4-vasp.4.6
   LMAXPAW     = -100 max onsite density
   LMAXMIX     =    2 max onsite mixed and CHGCAR
   VOSKOWN=      0    Vosko Wilk Nusair interpolation
   ROPT   =    0.00000
 Ionic relaxation
   EDIFFG = 0.1E-02   stopping-criterion for IOM
   NSW    =      0    number of steps for IOM
   NBLOCK =      1;   KBLOCK =      1    inner block; outer block 
   IBRION =     -1    ionic relax: 0-MD 1-quasi-New 2-CG
   NFREE  =      0    steps in history (QN), initial steepest desc. (CG)
   ISIF   =      2    stress and relaxation
   IWAVPR =     10    prediction:  0-non 1-charg 2-wave 3-comb
   ISYM   =      2    0-nonsym 1-usesym 2-fastsym
   LCORR  =      T    Harris-Foulkes like correction to forces

   POTIM  = 0.5000    time-step for ionic-motion
   TEIN   =    0.0    initial temperature
   TEBEG  =    0.0;   TEEND  =   0.0 temperature during run
   SMASS  =  -3.00    Nose mass-parameter (am)
   estimated Nose-frequenzy (Omega)   =  0.10E-29 period in steps =****** mass=  -0.188E-27a.u.
   SCALEE = 1.0000    scale energy and forces
   NPACO  =    256;   APACO  = 16.0  distance and # of slots for P.C.
   PSTRESS=    0.0 pullay stress

  Mass of Ions in am
   POMASS = 180.95
  Ionic Valenz
   ZVAL   =   5.00
  Atomic Wigner-Seitz radii
   RWIGS  =  -1.00
  virtual crystal weights 
   VCA    =   1.00
   NELECT =       5.0000    total number of electrons
   NUPDOWN=      -1.0000    fix difference up-down

 DOS related values:
   EMIN   =  10.00;   EMAX   =-10.00  energy-range for DOS
   EFERMI =   0.00
   ISMEAR =     1;   SIGMA  =   0.05  broadening in eV -4-tet -1-fermi 0-gaus

 Electronic relaxation 2 (details)
   IALGO  =     38    algorithm
   LDIAG  =      T    sub-space diagonalisation (order eigenvalues)
   LSUBROT=      T    optimize rotation matrix (better conditioning)
   TURBO    =      0    0=normal 1=particle mesh
   IRESTART =      0    0=no restart 2=restart with 2 vectors
   NREBOOT  =      0    no. of reboots
   NMIN     =      0    reboot dimension
   EREF     =   0.00    reference energy to select bands
   IMIX   =      4    mixing-type and parameters
     AMIX     =   0.40;   BMIX     =  1.00
     AMIX_MAG =   1.60;   BMIX_MAG =  1.00
     AMIN     =   0.10
     WC   =   100.;   INIMIX=   1;  MIXPRE=   1

 Intra band minimization:
   WEIMIN = 0.0000     energy-eigenvalue tresh-hold
   EBREAK =  0.42E-05  absolut break condition
   DEPER  =   0.30     relativ break condition  

   TIME   =   0.40     timestep for ELM

  volume/ion in A,a.u.               =      18.13       122.36
  Fermi-wavevector in a.u.,A,eV,Ry     =   1.065566  2.013627 15.448462  1.135430
  Thomas-Fermi vector in A             =   2.201121
 
 Write flags
   LWAVE  =      T    write WAVECAR
   LCHARG =      T    write CHGCAR
   LVTOT  =      F    write LOCPOT, total local potential
   LVHAR  =      F    write LOCPOT, Hartree potential only
   LELF   =      F    write electronic localiz. function (ELF)
   LORBIT =      0    0 simple, 1 ext, 2 COOP (PROOUT)


 Dipole corrections
   LMONO  =      F    monopole corrections only (constant potential shift)
   LDIPOL =      F    correct potential (dipole corrections)
   IDIPOL =      0    1-x, 2-y, 3-z, 4-all directions 
   EPSILON=  1.0000000 bulk dielectric constant

 Exchange correlation treatment:
   GGA     =    --    GGA type
   LEXCH   =     8    internal setting for exchange type
   VOSKOWN=      0    Vosko Wilk Nusair interpolation
   LHFCALC =     F    Hartree Fock is set to
   LHFONE  =     F    Hartree Fock one center treatment
   AEXX    =    0.0000 exact exchange contribution

 Linear response parameters
   LEPSILON=     F    determine dielectric tensor
   LRPA    =     F    only Hartree local field effects (RPA)
   LNABLA  =     F    use nabla operator in PAW spheres
   LVEL    =     F    velocity operator in full k-point grid
   LINTERFAST=   F  fast interpolation
   KINTER  =     0    interpolate to denser k-point grid
   CSHIFT  =0.1000    complex shift for real part using Kramers Kronig
   OMEGAMAX=  -1.0    maximum frequency
   RTIME   =    0.100 relaxation time in fs

 Orbital magnetization related:
   ORBITALMAG=     F  switch on orbital magnetization
   LCHIMAG   =     F  perturbation theory with respect to B field
   DQ        =  0.001000  dq finite difference perturbation B field



--------------------------------------------------------------------------------------------------------


 Static calculation
 charge density and potential will be updated during run
 non-spin polarized calculation
 Variant of blocked Davidson
 Davidson routine will perform the subspace rotation
 perform sub-space diagonalisation
    after iterative eigenvector-optimisation
 modified Broyden-mixing scheme, WC =      100.0
 initial mixing is a Kerker type mixing with AMIX =  0.4000 and BMIX =      1.0000
 Hartree-type preconditioning will be used
 using additional bands            3
 reciprocal scheme for non local part
 use partial core corrections
 calculate Harris-corrections to forces 
   (improved forces if not selfconsistent)
 use gradient corrections 
 use of overlap-Matrix (Vanderbilt PP)
 Methfessel and Paxton  Order N= 1 SIGMA  =   0.05


--------------------------------------------------------------------------------------------------------


  energy-cutoff  :      150.00
  volume of cell :       18.13
      direct lattice vectors                 reciprocal lattice vectors
     2.866544087  0.000000000  0.000000000     0.348852126  0.123337852  0.213627426
    -0.955514696  2.702603683  0.000000000     0.000000000  0.370013556  0.213627426
    -0.955514696 -1.351301841  2.340523446     0.000000000  0.000000000  0.427254853

  length of vectors
     2.866544087  2.866544087  2.866544087     0.427254853  0.427254853  0.427254853


 
 k-points in units of 2pi/SCALE and weight: KPOINTS created by Atomic Simulation Env
   0.01744261  0.02466757  0.04272549       0.008
   0.05232782  0.03700136  0.06408823       0.024
   0.08721303  0.04933514  0.08545097       0.024
   0.12209824  0.06166893  0.10681371       0.024
   0.15698346  0.07400271  0.12817646       0.012
  -0.01744261  0.01233379  0.02136274       0.006
   0.05232782  0.07400271  0.08545097       0.024
   0.08721303  0.08633650  0.10681371       0.048
   0.12209824  0.09867028  0.12817646       0.048
  -0.05232782  0.03700136  0.02136274       0.024
   0.08721303  0.12333785  0.12817646       0.024
   0.12209824  0.13567164  0.14953920       0.024
  -0.08721303  0.06166893  0.02136274       0.024
  -0.05232782  0.07400271  0.04272549       0.024
  -0.12209824  0.08633650  0.02136274       0.024
  -0.08721303  0.09867028  0.04272549       0.048
  -0.15698346  0.11100407  0.02136274       0.024
  -0.12209824  0.12333785  0.04272549       0.048
  -0.08721303  0.13567164  0.06408823       0.024
  -0.15698346 -0.22200813 -0.17090194       0.024
  -0.12209824 -0.20967435 -0.14953920       0.048
  -0.12209824 -0.17267299 -0.12817646       0.008
   0.05232782  0.07400271  0.12817646       0.008
   0.08721303  0.08633650  0.14953920       0.024
   0.12209824  0.09867028  0.17090194       0.012
  -0.05232782  0.03700136  0.06408823       0.006
   0.08721303  0.12333785  0.17090194       0.024
  -0.08721303  0.06166893  0.06408823       0.024
  -0.12209824  0.08633650  0.06408823       0.024
  -0.08721303  0.09867028  0.08545097       0.024
  -0.15698346  0.11100407  0.06408823       0.024
  -0.12209824  0.12333785  0.08545097       0.048
  -0.15698346 -0.22200813 -0.12817646       0.024
  -0.12209824 -0.20967435 -0.10681371       0.024
   0.08721303  0.12333785  0.21362743       0.002
  -0.08721303  0.06166893  0.10681371       0.006
  -0.12209824  0.08633650  0.10681371       0.024
  -0.15698346  0.11100407  0.10681371       0.024
  -0.12209824  0.12333785  0.12817646       0.024
  -0.15698346 -0.22200813 -0.08545097       0.024
  -0.12209824  0.08633650  0.14953920       0.006
  -0.15698346  0.11100407  0.14953920       0.024
  -0.15698346 -0.22200813 -0.04272549       0.008
  -0.15698346  0.11100407  0.19226468       0.006
 
 k-points in reciprocal lattice and weights: KPOINTS created by Atomic Simulation Env
   0.05000000  0.05000000  0.05000000       0.008
   0.15000000  0.05000000  0.05000000       0.024
   0.25000000  0.05000000  0.05000000       0.024
   0.35000000  0.05000000  0.05000000       0.024
   0.45000000  0.05000000  0.05000000       0.012
  -0.05000000  0.05000000  0.05000000       0.006
   0.15000000  0.15000000  0.05000000       0.024
   0.25000000  0.15000000  0.05000000       0.048
   0.35000000  0.15000000  0.05000000       0.048
  -0.15000000  0.15000000  0.05000000       0.024
   0.25000000  0.25000000  0.05000000       0.024
   0.35000000  0.25000000  0.05000000       0.024
  -0.25000000  0.25000000  0.05000000       0.024
  -0.15000000  0.25000000  0.05000000       0.024
  -0.35000000  0.35000000  0.05000000       0.024
  -0.25000000  0.35000000  0.05000000       0.048
  -0.45000000  0.45000000  0.05000000       0.024
  -0.35000000  0.45000000  0.05000000       0.048
  -0.25000000  0.45000000  0.05000000       0.024
  -0.45000000 -0.45000000  0.05000000       0.024
  -0.35000000 -0.45000000  0.05000000       0.048
  -0.35000000 -0.35000000  0.05000000       0.008
   0.15000000  0.15000000  0.15000000       0.008
   0.25000000  0.15000000  0.15000000       0.024
   0.35000000  0.15000000  0.15000000       0.012
  -0.15000000  0.15000000  0.15000000       0.006
   0.25000000  0.25000000  0.15000000       0.024
  -0.25000000  0.25000000  0.15000000       0.024
  -0.35000000  0.35000000  0.15000000       0.024
  -0.25000000  0.35000000  0.15000000       0.024
  -0.45000000  0.45000000  0.15000000       0.024
  -0.35000000  0.45000000  0.15000000       0.048
  -0.45000000 -0.45000000  0.15000000       0.024
  -0.35000000 -0.45000000  0.15000000       0.024
   0.25000000  0.25000000  0.25000000       0.002
  -0.25000000  0.25000000  0.25000000       0.006
  -0.35000000  0.35000000  0.25000000       0.024
  -0.45000000  0.45000000  0.25000000       0.024
  -0.35000000  0.45000000  0.25000000       0.024
  -0.45000000 -0.45000000  0.25000000       0.024
  -0.35000000  0.35000000  0.35000000       0.006
  -0.45000000  0.45000000  0.35000000       0.024
  -0.45000000 -0.45000000  0.35000000       0.008
  -0.45000000  0.45000000  0.45000000       0.006
 
 position of ions in fractional coordinates (direct lattice) 
   0.00000000  0.00000000  0.00000000
 
 position of ions in cartesian coordinates  (Angst):
   0.00000000  0.00000000  0.00000000
 


--------------------------------------------------------------------------------------------------------


 k-point  1 :  0.05000.05000.0500  plane waves:      80
 k-point  2 :  0.15000.05000.0500  plane waves:      73
 k-point  3 :  0.25000.05000.0500  plane waves:      71
 k-point  4 :  0.35000.05000.0500  plane waves:      76
 k-point  5 :  0.45000.05000.0500  plane waves:      80
 k-point  6 :  -.05000.05000.0500  plane waves:      79
 k-point  7 :  0.15000.15000.0500  plane waves:      70
 k-point  8 :  0.25000.15000.0500  plane waves:      75
 k-point  9 :  0.35000.15000.0500  plane waves:      77
 k-point 10 :  -.15000.15000.0500  plane waves:      76
 k-point 11 :  0.25000.25000.0500  plane waves:      76
 k-point 12 :  0.35000.25000.0500  plane waves:      76
 k-point 13 :  -.25000.25000.0500  plane waves:      74
 k-point 14 :  -.15000.25000.0500  plane waves:      76
 k-point 15 :  -.35000.35000.0500  plane waves:      74
 k-point 16 :  -.25000.35000.0500  plane waves:      73
 k-point 17 :  -.45000.45000.0500  plane waves:      74
 k-point 18 :  -.35000.45000.0500  plane waves:      75
 k-point 19 :  -.25000.45000.0500  plane waves:      74
 k-point 20 :  -.4500-.45000.0500  plane waves:      76
 k-point 21 :  -.3500-.45000.0500  plane waves:      78
 k-point 22 :  -.3500-.35000.0500  plane waves:      77
 k-point 23 :  0.15000.15000.1500  plane waves:      74
 k-point 24 :  0.25000.15000.1500  plane waves:      72
 k-point 25 :  0.35000.15000.1500  plane waves:      74
 k-point 26 :  -.15000.15000.1500  plane waves:      79
 k-point 27 :  0.25000.25000.1500  plane waves:      75
 k-point 28 :  -.25000.25000.1500  plane waves:      74
 k-point 29 :  -.35000.35000.1500  plane waves:      75
 k-point 30 :  -.25000.35000.1500  plane waves:      76
 k-point 31 :  -.45000.45000.1500  plane waves:      74
 k-point 32 :  -.35000.45000.1500  plane waves:      76
 k-point 33 :  -.4500-.45000.1500  plane waves:      76
 k-point 34 :  -.3500-.45000.1500  plane waves:      78
 k-point 35 :  0.25000.25000.2500  plane waves:      80
 k-point 36 :  -.25000.25000.2500  plane waves:      75
 k-point 37 :  -.35000.35000.2500  plane waves:      76
 k-point 38 :  -.45000.45000.2500  plane waves:      77
 k-point 39 :  -.35000.45000.2500  plane waves:      82
 k-point 40 :  -.4500-.45000.2500  plane waves:      80
 k-point 41 :  -.35000.35000.3500  plane waves:      80
 k-point 42 :  -.45000.45000.3500  plane waves:      80
 k-point 43 :  -.4500-.45000.3500  plane waves:      80
 k-point 44 :  -.45000.45000.4500  plane waves:      80

 maximum and minimum number of plane-waves per node :        82       70

 maximum number of plane-waves:        82
 maximum index in each direction: 
   IXMAX=    3   IYMAX=    3   IZMAX=    2
   IXMIN=   -3   IYMIN=   -3   IZMIN=   -3

 WARNING: aliasing errors must be expected set NGX to  14 to avoid them
 WARNING: aliasing errors must be expected set NGY to  14 to avoid them
 NGZ is ok and might be reduce to  12
 aliasing errors are usually negligible using standard VASP settings
 and one can safely disregard these warnings

 serial   3D FFT for wavefunctions
 parallel 3D FFT for charge:
    minimum data exchange during FFTs selected (reduces bandwidth)


 total amount of memory used by VASP on root node    32232. kBytes
========================================================================

   base      :      30000. kBytes
   nonl-proj :        520. kBytes
   fftplans  :        504. kBytes
   grid      :        771. kBytes
   one-center:         15. kBytes
   wavefun   :        422. kBytes
 
 Broyden mixing: mesh for mixing (old mesh)
   NGX =  5   NGY =  5   NGZ =  5
  (NGX  = 24   NGY  = 24   NGZ  = 24)
  gives a total of    125 points

 initial charge density was supplied:
 charge density of overlapping atoms calculated
 number of electron       5.0000000 magnetization 
 keeping initial charge density in first step


--------------------------------------------------------------------------------------------------------


 Maximum index for augmentation-charges         6231 (set IRDMAX)


--------------------------------------------------------------------------------------------------------


 First call to EWALD:  gamma=   0.675
 Maximum number of real-space cells 3x 3x 3
 Maximum number of reciprocal cells 3x 3x 3

    FEWALD:  cpu time    0.00: real time    0.00


----------------------------------------- Iteration    1(   1)  ---------------------------------------


    POTLOK:  cpu time    0.02: real time    0.02
    SETDIJ:  cpu time    0.01: real time    0.01
     EDDAV:  cpu time    0.17: real time    0.17
       DOS:  cpu time    0.00: real time    0.00
    --------------------------------------------
      LOOP:  cpu time    0.20: real time    0.20

 eigenvalue-minimisations  :   666
 total energy-change (2. order) :-0.1085414E+02  (-0.8368383E+02)
 number of electron       5.0000000 magnetization 
 augmentation part        5.0000000 magnetization 

 Free energy of the ion-electron system (eV)
  ---------------------------------------------------
  alpha Z        PSCENC =        30.58334069
  Ewald energy   TEWEN  =      -197.90100875
  -1/2 Hartree   DENC   =        -2.50452612
  -exchange  EXHF       =         0.00000000
  -V(xc)+E(xc)   XCENC  =       -66.68582662
  PAW double counting   =       148.27821850      -73.99089003
  entropy T*S    EENTRO =         0.00012652
  eigenvalues    EBANDS =        21.73904846
  atomic energy  EATOM  =       129.62738067
  ---------------------------------------------------
  free energy    TOTEN  =       -10.85413668 eV

  energy without entropy =      -10.85426320  energy(sigma->0) =      -10.85417885


--------------------------------------------------------------------------------------------------------




----------------------------------------- Iteration    1(   2)  ---------------------------------------


     EDDAV:  cpu time    0.19: real time    0.24
       DOS:  cpu time    0.00: real time    0.00
    --------------------------------------------
      LOOP:  cpu time    0.19: real time    0.68

 eigenvalue-minimisations  :   756
 total energy-change (2. order) :-0.1856664E+01  (-0.1763431E+01)
 number of electron       5.0000000 magnetization 
 augmentation part        5.0000000 magnetization 

 Free energy of the ion-electron system (eV)
  ---------------------------------------------------
  alpha Z        PSCENC =        30.58334069
  Ewald energy   TEWEN  =      -197.90100875
  -1/2 Hartree   DENC   =        -2.50452612
  -exchange  EXHF       =         0.00000000
  -V(xc)+E(xc)   XCENC  =       -66.68582662
  PAW double counting   =       148.27821850      -73.99089003
  entropy T*S    EENTRO =        -0.00029959
  eigenvalues    EBANDS =        19.88281060
  atomic energy  EATOM  =       129.62738067
  ---------------------------------------------------
  free energy    TOTEN  =       -12.71080065 eV

  energy without entropy =      -12.71050105  energy(sigma->0) =      -12.71070078


--------------------------------------------------------------------------------------------------------




----------------------------------------- Iteration    1(   3)  ---------------------------------------


     EDDAV:  cpu time    0.16: real time    0.28
       DOS:  cpu time    0.00: real time    0.00
    --------------------------------------------
      LOOP:  cpu time    0.16: real time    0.88

 eigenvalue-minimisations  :   552
 total energy-change (2. order) :-0.6277064E-02  (-0.6255175E-02)
 number of electron       5.0000000 magnetization 
 augmentation part        5.0000000 magnetization 

 Free energy of the ion-electron system (eV)
  ---------------------------------------------------
  alpha Z        PSCENC =        30.58334069
  Ewald energy   TEWEN  =      -197.90100875
  -1/2 Hartree   DENC   =        -2.50452612
  -exchange  EXHF       =         0.00000000
  -V(xc)+E(xc)   XCENC  =       -66.68582662
  PAW double counting   =       148.27821850      -73.99089003
  entropy T*S    EENTRO =        -0.00011436
  eigenvalues    EBANDS =        19.87634830
  atomic energy  EATOM  =       129.62738067
  ---------------------------------------------------
  free energy    TOTEN  =       -12.71707771 eV

  energy without entropy =      -12.71696336  energy(sigma->0) =      -12.71703959


--------------------------------------------------------------------------------------------------------




----------------------------------------- Iteration    1(   4)  ---------------------------------------


     EDDAV:  cpu time    0.21: real time    0.22
       DOS:  cpu time    0.00: real time    0.00
    --------------------------------------------
      LOOP:  cpu time    0.22: real time    0.28

 eigenvalue-minimisations  :   720
 total energy-change (2. order) :-0.2056246E-04  (-0.2056127E-04)
 number of electron       5.0000000 magnetization 
 augmentation part        5.0000000 magnetization 

 Free energy of the ion-electron system (eV)
  ---------------------------------------------------
  alpha Z        PSCENC =        30.58334069
  Ewald energy   TEWEN  =      -197.90100875
  -1/2 Hartree   DENC   =        -2.50452612
  -exchange  EXHF       =         0.00000000
  -V(xc)+E(xc)   XCENC  =       -66.68582662
  PAW double counting   =       148.27821850      -73.99089003
  entropy T*S    EENTRO =        -0.00011359
  eigenvalues    EBANDS =        19.87632697
  atomic energy  EATOM  =       129.62738067
  ---------------------------------------------------
  free energy    TOTEN  =       -12.71709827 eV

  energy without entropy =      -12.71698468  energy(sigma->0) =      -12.71706041


--------------------------------------------------------------------------------------------------------




----------------------------------------- Iteration    1(   5)  ---------------------------------------


     EDDAV:  cpu time    0.13: real time    0.13
       DOS:  cpu time    0.00: real time    0.00
    CHARGE:  cpu time    0.01: real time    0.04
    MIXING:  cpu time    0.00: real time    0.00
    --------------------------------------------
      LOOP:  cpu time    0.14: real time    0.27

 eigenvalue-minimisations  :   450
 total energy-change (2. order) :-0.9843805E-07  (-0.9880316E-07)
 number of electron       4.9999997 magnetization 
 augmentation part        0.3280526 magnetization 

 Broyden mixing:
  rms(total) = 0.37008E+00    rms(broyden)= 0.36629E+00
  rms(prec ) = 0.16024E+01
  weight for this iteration     100.00

 Free energy of the ion-electron system (eV)
  ---------------------------------------------------
  alpha Z        PSCENC =        30.58334069
  Ewald energy   TEWEN  =      -197.90100875
  -1/2 Hartree   DENC   =        -2.50452612
  -exchange  EXHF       =         0.00000000
  -V(xc)+E(xc)   XCENC  =       -66.68582662
  PAW double counting   =       148.27821850      -73.99089003
  entropy T*S    EENTRO =        -0.00011358
  eigenvalues    EBANDS =        19.87632687
  atomic energy  EATOM  =       129.62738067
  ---------------------------------------------------
  free energy    TOTEN  =       -12.71709837 eV

  energy without entropy =      -12.71698479  energy(sigma->0) =      -12.71706051


--------------------------------------------------------------------------------------------------------




----------------------------------------- Iteration    1(   6)  ---------------------------------------


    POTLOK:  cpu time    0.02: real time    0.02
    SETDIJ:  cpu time    0.01: real time    0.01
     EDDAV:  cpu time    0.23: real time    0.40
       DOS:  cpu time    0.00: real time    0.00
    CHARGE:  cpu time    0.01: real time    0.01
    MIXING:  cpu time    0.00: real time    0.00
    --------------------------------------------
      LOOP:  cpu time    0.27: real time    0.51

 eigenvalue-minimisations  :   630
 total energy-change (2. order) : 0.4652359E+00  (-0.2700692E-01)
 number of electron       4.9999997 magnetization 
 augmentation part        0.3508342 magnetization 

 Broyden mixing:
  rms(total) = 0.19741E+00    rms(broyden)= 0.19700E+00
  rms(prec ) = 0.85815E+00
  weight for this iteration     100.00

 eigenvalues of (default mixing * dielectric matrix)
  average eigenvalue GAMMA=   2.1433
  2.1433

 Free energy of the ion-electron system (eV)
  ---------------------------------------------------
  alpha Z        PSCENC =        30.58334069
  Ewald energy   TEWEN  =      -197.90100875
  -1/2 Hartree   DENC   =        -1.29671694
  -exchange  EXHF       =         0.00000000
  -V(xc)+E(xc)   XCENC  =       -66.32612244
  PAW double counting   =       161.15054424      -87.26824290
  entropy T*S    EENTRO =        -0.00078930
  eigenvalues    EBANDS =        19.17975229
  atomic energy  EATOM  =       129.62738067
  ---------------------------------------------------
  free energy    TOTEN  =       -12.25186244 eV

  energy without entropy =      -12.25107314  energy(sigma->0) =      -12.25159934


--------------------------------------------------------------------------------------------------------




----------------------------------------- Iteration    1(   7)  ---------------------------------------


    POTLOK:  cpu time    0.02: real time    0.02
    SETDIJ:  cpu time    0.01: real time    0.01
     EDDAV:  cpu time    0.15: real time    0.15
       DOS:  cpu time    0.00: real time    0.00
    CHARGE:  cpu time    0.01: real time    0.01
    MIXING:  cpu time    0.00: real time    0.00
    --------------------------------------------
      LOOP:  cpu time    0.19: real time    0.25

 eigenvalue-minimisations  :   624
 total energy-change (2. order) : 0.2059326E+00  (-0.3855554E-01)
 number of electron       4.9999996 magnetization 
 augmentation part        0.3784930 magnetization 

 Broyden mixing:
  rms(total) = 0.16423E-01    rms(broyden)= 0.15760E-01
  rms(prec ) = 0.45932E-01
  weight for this iteration     100.00

 eigenvalues of (default mixing * dielectric matrix)
  average eigenvalue GAMMA=   2.1313
  2.1313  2.1313

 Free energy of the ion-electron system (eV)
  ---------------------------------------------------
  alpha Z        PSCENC =        30.58334069
  Ewald energy   TEWEN  =      -197.90100875
  -1/2 Hartree   DENC   =        -0.40997302
  -exchange  EXHF       =         0.00000000
  -V(xc)+E(xc)   XCENC  =       -65.85972446
  PAW double counting   =       182.06657424     -108.59071939
  entropy T*S    EENTRO =        -0.00020727
  eigenvalues    EBANDS =        18.43840744
  atomic energy  EATOM  =       129.62738067
  ---------------------------------------------------
  free energy    TOTEN  =       -12.04592985 eV

  energy without entropy =      -12.04572258  energy(sigma->0) =      -12.04586076


--------------------------------------------------------------------------------------------------------




----------------------------------------- Iteration    1(   8)  ---------------------------------------


    POTLOK:  cpu time    0.02: real time    0.02
    SETDIJ:  cpu time    0.01: real time    0.01
     EDDAV:  cpu time    0.14: real time    0.14
       DOS:  cpu time    0.00: real time    0.00
    CHARGE:  cpu time    0.01: real time    0.01
    MIXING:  cpu time    0.00: real time    0.00
    --------------------------------------------
      LOOP:  cpu time    0.18: real time    0.21

 eigenvalue-minimisations  :   600
 total energy-change (2. order) : 0.4863149E-03  (-0.9862457E-04)
 number of electron       4.9999996 magnetization 
 augmentation part        0.3793518 magnetization 

 Broyden mixing:
  rms(total) = 0.33871E-02    rms(broyden)= 0.32653E-02
  rms(prec ) = 0.94915E-02
  weight for this iteration     100.00

 eigenvalues of (default mixing * dielectric matrix)
  average eigenvalue GAMMA=   1.8589
  0.9550  2.3790  2.2426

 Free energy of the ion-electron system (eV)
  ---------------------------------------------------
  alpha Z        PSCENC =        30.58334069
  Ewald energy   TEWEN  =      -197.90100875
  -1/2 Hartree   DENC   =        -0.42529929
  -exchange  EXHF       =         0.00000000
  -V(xc)+E(xc)   XCENC  =       -65.85824226
  PAW double counting   =       186.98095443     -113.54297400
  entropy T*S    EENTRO =        -0.00025360
  eigenvalues    EBANDS =        18.49065858
  atomic energy  EATOM  =       129.62738067
  ---------------------------------------------------
  free energy    TOTEN  =       -12.04544353 eV

  energy without entropy =      -12.04518993  energy(sigma->0) =      -12.04535900


--------------------------------------------------------------------------------------------------------




----------------------------------------- Iteration    1(   9)  ---------------------------------------


    POTLOK:  cpu time    0.02: real time    0.04
    SETDIJ:  cpu time    0.01: real time    0.01
     EDDAV:  cpu time    0.12: real time    0.28
       DOS:  cpu time    0.00: real time    0.00
    --------------------------------------------
      LOOP:  cpu time    0.14: real time    0.34

 eigenvalue-minimisations  :   384
 total energy-change (2. order) : 0.9491653E-05  (-0.7711136E-05)
 number of electron       4.9999996 magnetization 
 augmentation part        0.3793518 magnetization 

 Free energy of the ion-electron system (eV)
  ---------------------------------------------------
  alpha Z        PSCENC =        30.58334069
  Ewald energy   TEWEN  =      -197.90100875
  -1/2 Hartree   DENC   =        -0.42694139
  -exchange  EXHF       =         0.00000000
  -V(xc)+E(xc)   XCENC  =       -65.85595886
  PAW double counting   =       188.48330236     -115.05457960
  entropy T*S    EENTRO =        -0.00027527
  eigenvalues    EBANDS =        18.49930610
  atomic energy  EATOM  =       129.62738067
  ---------------------------------------------------
  free energy    TOTEN  =       -12.04543404 eV

  energy without entropy =      -12.04515877  energy(sigma->0) =      -12.04534229


--------------------------------------------------------------------------------------------------------




 average (electrostatic) potential at core
  the test charge radii are     1.2538
  (the norm of the test charge is              1.0000)
       1 -35.4668
 
 
 
 E-fermi :   5.7976     XC(G=0): -12.4012     alpha+bet :-13.5035


 k-point   1 :       0.0500    0.0500    0.0500
  band No.  band energies     occupation 
      1      -1.5330      2.00000
      2       6.2153      0.00000
      3       6.2153      0.00000
      4       7.2905      0.00000
      5       9.4173      0.00000
      6       9.4173      0.00000

 k-point   2 :       0.1500    0.0500    0.0500
  band No.  band energies     occupation 
      1      -0.4087      2.00000
      2       5.5903      2.00000
      3       5.7738      1.71107
      4       8.7313      0.00000
      5       9.2690      0.00000
      6       9.9846      0.00000

 k-point   3 :       0.2500    0.0500    0.0500
  band No.  band energies     occupation 
      1       0.9345      2.00000
      2       4.9302      2.00000
      3       5.4689      2.00000
      4       9.5092      0.00000
      5      10.3849      0.00000
      6      10.8329      0.00000

 k-point   4 :       0.3500    0.0500    0.0500
  band No.  band energies     occupation 
      1       1.5724      2.00000
      2       4.4509      2.00000
      3       6.1498      0.00000
      4       9.8336      0.00000
      5      10.6335      0.00000
      6      12.8440      0.00000

 k-point   5 :       0.4500    0.0500    0.0500
  band No.  band energies     occupation 
      1       1.6263      2.00000
      2       4.2610      2.00000
      3       6.9820      0.00000
      4       9.7507      0.00000
      5      10.7507      0.00000
      6      13.7898      0.00000

 k-point   6 :      -0.0500    0.0500    0.0500
  band No.  band energies     occupation 
      1      -1.9471      2.00000
      2       6.5355      0.00000
      3       6.5355      0.00000
      4       6.6735      0.00000
      5       9.2693      0.00000
      6       9.7616      0.00000

 k-point   7 :       0.1500    0.1500    0.0500
  band No.  band energies     occupation 
      1       0.8644      2.00000
      2       5.1007      2.00000
      3       5.1260      2.00000
      4       9.4015      0.00000
      5      10.4238      0.00000
      6      10.7599      0.00000

 k-point   8 :       0.2500    0.1500    0.0500
  band No.  band energies     occupation 
      1       2.0567      2.00000
      2       4.5420      2.00000
      3       5.1136      2.00000
      4       9.6692      0.00000
      5      10.6861      0.00000
      6      12.7845      0.00000

 k-point   9 :       0.3500    0.1500    0.0500
  band No.  band energies     occupation 
      1       2.3356      2.00000
      2       4.3366      2.00000
      3       5.9705     -0.00001
      4       9.8691      0.00000
      5      10.8386      0.00000
      6      14.6553      0.00000

 k-point  10 :      -0.1500    0.1500    0.0500
  band No.  band energies     occupation 
      1      -1.1308      2.00000
      2       6.1018      0.00000
      3       6.3507      0.00000
      4       7.4437      0.00000
      5       8.6454      0.00000
      6      10.2526      0.00000

 k-point  11 :       0.2500    0.2500    0.0500
  band No.  band energies     occupation 
      1       3.0047      2.00000
      2       4.4010      2.00000
      3       5.0818      2.00000
      4      10.0338      0.00000
      5      10.7158      0.00000
      6      15.0519      0.00000

 k-point  12 :       0.3500    0.2500    0.0500
  band No.  band energies     occupation 
      1       3.1856      2.00000
      2       4.4768      2.00000
      3       5.2868      2.00000
      4      10.2716      0.00000
      5      10.7936      0.00000
      6      14.4020      0.00000

 k-point  13 :      -0.2500    0.2500    0.0500
  band No.  band energies     occupation 
      1       0.1949      2.00000
      2       5.4202      2.00000
      3       5.7721      1.74910
      4       8.7365      0.00000
      5       9.1456      0.00000
      6      10.4712      0.00000

 k-point  14 :      -0.1500    0.2500    0.0500
  band No.  band energies     occupation 
      1      -0.0490      2.00000
      2       5.7852      1.40521
      3       5.8428     -0.02432
      4       8.1151      0.00000
      5       8.6112      0.00000
      6      10.6165      0.00000

 k-point  15 :      -0.3500    0.3500    0.0500
  band No.  band energies     occupation 
      1       1.2541      2.00000
      2       4.8461      2.00000
      3       5.7566      1.98923
      4       9.3897      0.00000
      5      10.6807      0.00000
      6      11.3685      0.00000

 k-point  16 :      -0.2500    0.3500    0.0500
  band No.  band energies     occupation 
      1       1.2633      2.00000
      2       5.1192      2.00000
      3       5.5076      2.00000
      4       8.5011      0.00000
      5      10.6158      0.00000
      6      10.9144      0.00000

 k-point  17 :      -0.4500    0.4500    0.0500
  band No.  band energies     occupation 
      1       1.5061      2.00000
      2       4.5059      2.00000
      3       6.7255      0.00000
      4       9.5944      0.00000
      5      11.0058      0.00000
      6      13.4174      0.00000

 k-point  18 :      -0.3500    0.4500    0.0500
  band No.  band energies     occupation 
      1       1.9413      2.00000
      2       4.7874      2.00000
      3       5.6696      2.00177
      4       9.0736      0.00000
      5      11.0093      0.00000
      6      12.9020      0.00000

 k-point  19 :      -0.2500    0.4500    0.0500
  band No.  band energies     occupation 
      1       2.4163      2.00000
      2       4.5190      2.00000
      3       5.4952      2.00000
      4       8.8225      0.00000
      5      10.7072      0.00000
      6      12.9362      0.00000

 k-point  20 :      -0.4500   -0.4500    0.0500
  band No.  band energies     occupation 
      1       2.0048      2.00000
      2       4.6790      2.00000
      3       6.1472      0.00000
      4       9.0418      0.00000
      5      11.4052      0.00000
      6      14.1986      0.00000

 k-point  21 :      -0.3500   -0.4500    0.0500
  band No.  band energies     occupation 
      1       2.8879      2.00000
      2       4.5024      2.00000
      3       5.2916      2.00000
      4       9.2712      0.00000
      5      10.8076      0.00000
      6      15.1938      0.00000

 k-point  22 :      -0.3500   -0.3500    0.0500
  band No.  band energies     occupation 
      1       3.5736      2.00000
      2       4.5470      2.00000
      3       4.5470      2.00000
      4      10.3325      0.00000
      5      10.3325      0.00000
      6      14.7213      0.00000

 k-point  23 :       0.1500    0.1500    0.1500
  band No.  band energies     occupation 
      1       2.2368      2.00000
      2       4.5426      2.00000
      3       4.5426      2.00000
      4      10.3434      0.00000
      5      10.3434      0.00000
      6      12.8228      0.00000

 k-point  24 :       0.2500    0.1500    0.1500
  band No.  band energies     occupation 
      1       3.2166      2.00000
      2       4.3239      2.00000
      3       4.9012      2.00000
      4      10.4738      0.00000
      5      10.8097      0.00000
      6      15.1293      0.00000

 k-point  25 :       0.3500    0.1500    0.1500
  band No.  band energies     occupation 
      1       3.2087      2.00000
      2       4.2441      2.00000
      3       5.6339      2.00004
      4      10.5247      0.00000
      5      10.9199      0.00000
      6      14.3905      0.00000

 k-point  26 :      -0.1500    0.1500    0.1500
  band No.  band energies     occupation 
      1      -0.3553      2.00000
      2       6.4789      0.00000
      3       6.4789      0.00000
      4       7.1753      0.00000
      5       7.4255      0.00000
      6      10.7868      0.00000

 k-point  27 :       0.2500    0.2500    0.1500
  band No.  band energies     occupation 
      1       3.8611      2.00000
      2       4.4849      2.00000
      3       4.8836      2.00000
      4      10.7514      0.00000
      5      10.8861      0.00000
      6      13.6458      0.00000

 k-point  28 :      -0.2500    0.2500    0.1500
  band No.  band energies     occupation 
      1       0.9102      2.00000
      2       5.6763      2.00323
      3       6.2418      0.00000
      4       7.3856      0.00000
      5       8.8940      0.00000
      6      10.9926      0.00000

 k-point  29 :      -0.3500    0.3500    0.1500
  band No.  band energies     occupation 
      1       1.9895      2.00000
      2       5.0432      2.00000
      3       5.6982      2.01672
      4       8.1739      0.00000
      5      11.0487      0.00000
      6      11.0626      0.00000

 k-point  30 :      -0.2500    0.3500    0.1500
  band No.  band energies     occupation 
      1       2.0818      2.00000
      2       4.7325      2.00000
      3       6.3030      0.00000
      4       7.6700      0.00000
      5      10.2611      0.00000
      6      11.0509      0.00000

 k-point  31 :      -0.4500    0.4500    0.1500
  band No.  band energies     occupation 
      1       2.2303      2.00000
      2       5.3454      2.00000
      3       5.4090      2.00000
      4       8.2272      0.00000
      5      12.1737      0.00000
      6      13.1898      0.00000

 k-point  32 :      -0.3500    0.4500    0.1500
  band No.  band energies     occupation 
      1       2.8405      2.00000
      2       4.3178      2.00000
      3       5.9041     -0.01021
      4       8.2908      0.00000
      5      10.9238      0.00000
      6      13.1208      0.00000

 k-point  33 :      -0.4500   -0.4500    0.1500
  band No.  band energies     occupation 
      1       2.8543      2.00000
      2       4.6755      2.00000
      3       5.4520      2.00000
      4       8.3052      0.00000
      5      12.0528      0.00000
      6      14.7721      0.00000

 k-point  34 :      -0.3500   -0.4500    0.1500
  band No.  band energies     occupation 
      1       3.7315      2.00000
      2       3.8392      2.00000
      3       5.1352      2.00000
      4       9.4312      0.00000
      5      10.7808      0.00000
      6      15.4848      0.00000

 k-point  35 :       0.2500    0.2500    0.2500
  band No.  band energies     occupation 
      1       4.4849      2.00000
      2       4.4849      2.00000
      3       4.4849      2.00000
      4      10.9271      0.00000
      5      10.9271      0.00000
      6      12.6979      0.00000

 k-point  36 :      -0.2500    0.2500    0.2500
  band No.  band energies     occupation 
      1       1.9874      2.00000
      2       4.9284      2.00000
      3       7.1962      0.00000
      4       7.1962      0.00000
      5       9.0024      0.00000
      6      10.8507      0.00000

 k-point  37 :      -0.3500    0.3500    0.2500
  band No.  band energies     occupation 
      1       2.8365      2.00000
      2       4.0423      2.00000
      3       7.1942      0.00000
      4       7.8253      0.00000
      5      10.7190      0.00000
      6      10.9608      0.00000

 k-point  38 :      -0.4500    0.4500    0.2500
  band No.  band energies     occupation 
      1       2.9416      2.00000
      2       3.8712      2.00000
      3       6.9759      0.00000
      4       7.6423      0.00000
      5      12.9152      0.00000
      6      12.9258      0.00000

 k-point  39 :      -0.3500    0.4500    0.2500
  band No.  band energies     occupation 
      1       3.1744      2.00000
      2       3.3038      2.00000
      3       6.9099      0.00000
      4       8.9243      0.00000
      5      10.9306      0.00000
      6      13.0450      0.00000

 k-point  40 :      -0.4500   -0.4500    0.2500
  band No.  band energies     occupation 
      1       3.0102      2.00000
      2       3.3289      2.00000
      3       6.6475      0.00000
      4       9.4912      0.00000
      5      11.8328      0.00000
      6      15.3854      0.00000

 k-point  41 :      -0.3500    0.3500    0.3500
  band No.  band energies     occupation 
      1       2.9638      2.00000
      2       3.1244      2.00000
      3       8.7590      0.00000
      4       8.7590      0.00000
      5      10.8904      0.00000
      6      10.9832      0.00000

 k-point  42 :      -0.4500    0.4500    0.3500
  band No.  band energies     occupation 
      1       2.6372      2.00000
      2       2.7817      2.00000
      3       9.1668      0.00000
      4       9.2013      0.00000
      5      12.4809      0.00000
      6      13.1067      0.00000

 k-point  43 :      -0.4500   -0.4500    0.3500
  band No.  band energies     occupation 
      1       2.4818      2.00000
      2       2.4818      2.00000
      3       9.0863      0.00000
      4      11.5834      0.00000
      5      11.5834      0.00000
      6      15.6627      0.00000

 k-point  44 :      -0.4500    0.4500    0.4500
  band No.  band energies     occupation 
      1       2.2019      2.00000
      2       2.2271      2.00000
      3      11.5111      0.00000
      4      11.5111      0.00000
      5      12.4733      0.00000
      6      13.5489      0.00000


--------------------------------------------------------------------------------------------------------


 soft charge-density along one line, spin component           1
         0         1         2         3         4         5         6         7         8         9
 total charge-density along one line
 
 pseudopotential strength for first ion, spin component:           1
 -6.622   0.000   0.002   0.000   0.001   0.084   0.000   0.000
  0.000  -6.621   0.000   0.002   0.000   0.000   0.084   0.000
  0.002   0.000  -6.620   0.000  -0.001   0.000   0.000   0.084
  0.000   0.002   0.000  -6.622   0.000   0.000   0.000   0.000
  0.001   0.000  -0.001   0.000  -6.619   0.000   0.000   0.000
  0.084   0.000   0.000   0.000   0.000   0.071   0.000   0.000
  0.000   0.084   0.000   0.000   0.000   0.000   0.071   0.000
  0.000   0.000   0.084   0.000   0.000   0.000   0.000   0.071
  0.000   0.000   0.000   0.084   0.000   0.000   0.000   0.000
  0.000   0.000   0.000   0.000   0.084   0.000   0.000   0.000
  0.000   0.000   0.000   0.000   0.000   0.000   0.000   0.000
  0.000   0.000   0.000   0.000   0.000   0.000   0.000   0.000
  0.000   0.000   0.000   0.000   0.000   0.000   0.000   0.000
  0.000   0.000   0.000   0.000   0.000   0.000   0.000   0.000
  0.000   0.000   0.000   0.000   0.000   0.000   0.000   0.000
  0.000   0.000   0.000   0.000   0.000   0.000   0.000   0.000
  0.000   0.000   0.000   0.000   0.000   0.000   0.000   0.000
  0.000   0.000   0.000   0.000   0.000   0.000   0.000   0.000
 total augmentation occupancy for first ion, spin component:           1
  0.607   0.000   0.073   0.000   0.042  -0.528   0.000  -0.015   0.000  -0.009   0.000   0.000   0.000   0.000   0.000   0.000
  0.000   0.666   0.000   0.084   0.000   0.000  -0.540   0.000  -0.017   0.000   0.000   0.000   0.000   0.000   0.000   0.000
  0.073   0.000   0.681   0.000  -0.026  -0.015   0.000  -0.543   0.000   0.005   0.000   0.000   0.000   0.000   0.000   0.000
  0.000   0.084   0.000   0.607   0.000   0.000  -0.017   0.000  -0.528   0.000   0.000   0.000   0.000   0.000   0.000   0.000
  0.042   0.000  -0.026   0.000   0.711  -0.009   0.000   0.005   0.000  -0.549   0.000   0.000   0.000   0.000   0.000   0.000
 -0.528   0.000  -0.015   0.000  -0.009   0.504   0.000  -0.023   0.000  -0.013   0.000   0.000   0.000   0.000   0.000   0.000
  0.000  -0.540   0.000  -0.017   0.000   0.000   0.485   0.000  -0.027   0.000   0.000   0.000   0.000   0.000   0.000   0.000
 -0.015   0.000  -0.543   0.000   0.005  -0.023   0.000   0.480   0.000   0.008   0.000   0.000   0.000   0.000   0.000   0.000
  0.000  -0.017   0.000  -0.528   0.000   0.000  -0.027   0.000   0.504   0.000   0.000   0.000   0.000   0.000   0.000   0.000
 -0.009   0.000   0.005   0.000  -0.549  -0.013   0.000   0.008   0.000   0.470   0.000   0.000   0.000   0.000   0.000   0.000
  0.000   0.000   0.000   0.000   0.000   0.000   0.000   0.000   0.000   0.000   1.427  -0.305   0.000   0.000   0.000   0.000
  0.000   0.000   0.000   0.000   0.000   0.000   0.000   0.000   0.000   0.000  -0.305   0.081   0.000   0.000   0.000   0.000
  0.000   0.000   0.000   0.000   0.000   0.000   0.000   0.000   0.000   0.000   0.000   0.000   0.311   0.000   0.000   0.015
  0.000   0.000   0.000   0.000   0.000   0.000   0.000   0.000   0.000   0.000   0.000   0.000   0.000   0.311   0.000   0.000
  0.000   0.000   0.000   0.000   0.000   0.000   0.000   0.000   0.000   0.000   0.000   0.000   0.000   0.000   0.311   0.000
  0.000   0.000   0.000   0.000   0.000   0.000   0.000   0.000   0.000   0.000   0.000   0.000   0.015   0.000   0.000   0.001
  0.000   0.000   0.000   0.000   0.000   0.000   0.000   0.000   0.000   0.000   0.000   0.000   0.000   0.015   0.000   0.000
  0.000   0.000   0.000   0.000   0.000   0.000   0.000   0.000   0.000   0.000   0.000   0.000   0.000   0.000   0.015   0.000


------------------------ aborting loop because EDIFF is reached ----------------------------------------


    CHARGE:  cpu time    0.02: real time    0.02
    FORLOC:  cpu time    0.00: real time    0.00
    FORNL :  cpu time    0.03: real time    0.03
    STRESS:  cpu time    0.08: real time    0.08
    FORCOR:  cpu time    0.02: real time    0.03
    FORHAR:  cpu time    0.00: real time    0.00
    MIXING:  cpu time    0.00: real time    0.00

  FORCE on cell =-STRESS in cart. coord.  units (eV):
  Direction    XX          YY          ZZ          XY          YZ          ZX
  --------------------------------------------------------------------------------------
  Alpha Z    30.58334    30.58334    30.58334
  Ewald     -65.96700   -65.96700   -65.96700     0.00000     0.00000     0.00000
  Hartree     0.14247     0.14247     0.14247     0.00000     0.00000     0.00000
  E(xc)     -22.63638   -22.63638   -22.63638     0.00000     0.00000     0.00000
  Local       2.87145     2.87145     2.87145     0.00000     0.00000     0.00000
  n-local    -9.04614    -9.92040    -6.69533     1.70994    -2.16185    -1.70946
  augment     2.82749     2.82749     2.82748     0.00000     0.00000     0.00000
  Kinetic    58.82444    59.03673    53.48000    -0.57768     2.85743     1.69270
  Fock        0.00000     0.00000     0.00000     0.00000     0.00000     0.00000
  -------------------------------------------------------------------------------------
  Total      -3.61887    -3.61887    -3.61887     0.00000     0.00000     0.00000
  in kB    -319.76433  -319.76433  -319.76433     0.00000     0.00000     0.00000
  external pressure =     -319.76 kB  Pullay stress =        0.00 kB


 VOLUME and BASIS-vectors are now :
 -----------------------------------------------------------------------------
  energy-cutoff  :      150.00
  volume of cell :       18.13
      direct lattice vectors                 reciprocal lattice vectors
     2.866544087  0.000000000  0.000000000     0.348852126  0.123337852  0.213627426
    -0.955514696  2.702603683  0.000000000     0.000000000  0.370013556  0.213627426
    -0.955514696 -1.351301841  2.340523446     0.000000000  0.000000000  0.427254853

  length of vectors
     2.866544087  2.866544087  2.866544087     0.427254853  0.427254853  0.427254853


 FORCES acting on ions
    electron-ion (+dipol)            ewald-force                    non-local-force                 convergence-correction
 -----------------------------------------------------------------------------------------------
   -.225E-15 -.161E-14 0.252E-15   -.279E-15 -.214E-15 0.640E-15   -.662E-23 0.662E-22 0.000E+00   -.239E-15 -.486E-15 -.155E-15
 -----------------------------------------------------------------------------------------------
   -.225E-15 -.161E-14 0.252E-15   -.279E-15 -.214E-15 0.640E-15   -.662E-23 0.662E-22 0.000E+00   -.239E-15 -.486E-15 -.155E-15
 
 
 POSITION                                       TOTAL-FORCE (eV/Angst)
 -----------------------------------------------------------------------------------
      0.00000      0.00000      0.00000         0.000000      0.000000      0.000000
 -----------------------------------------------------------------------------------
    total drift:                                0.000000      0.000000      0.000000


--------------------------------------------------------------------------------------------------------



  FREE ENERGIE OF THE ION-ELECTRON SYSTEM (eV)
  ---------------------------------------------------
  free  energy   TOTEN  =       -12.045434 eV

  energy  without entropy=      -12.045159  energy(sigma->0) =      -12.045342
 


--------------------------------------------------------------------------------------------------------


    POTLOK:  cpu time    0.03: real time    0.03


--------------------------------------------------------------------------------------------------------


 writing wavefunctions
     LOOP+:  cpu time    1.92: real time    4.40
    4ORBIT:  cpu time    0.00: real time    0.00

 total amount of memory used by VASP on root node    32232. kBytes
========================================================================

   base      :      30000. kBytes
   nonl-proj :        520. kBytes
   fftplans  :        504. kBytes
   grid      :        771. kBytes
   one-center:         15. kBytes
   wavefun   :        422. kBytes
 
  
  
 General timing and accounting informations for this job:
 ========================================================
  
                  Total CPU time used (sec):        2.160
                            User time (sec):        2.111
                          System time (sec):        0.049
                         Elapsed time (sec):        5.677
  
                   Maximum memory used (kb):           0.
                   Average memory used (kb):           0.
  
                          Minor page faults:         4630
                          Major page faults:            0
                 Voluntary context switches:          519
