PROCAR lm decomposed
# of k-points:   44         # of bands:   6         # of ions:   1

 k-point    1 :    0.05000000 0.05000000 0.05000000     weight = 0.00800000

band   1 # energy   -1.52553758 # occ.  1.00000000
 
ion      s     py     pz     px    dxy    dyz    dz2    dxz    dx2    tot
  1  0.828  0.011  0.032  0.005  0.000  0.002  0.001  0.001  0.000  0.879
 
band   2 # energy    6.22713998 # occ.  0.00000000
 
ion      s     py     pz     px    dxy    dyz    dz2    dxz    dx2    tot
  1  0.000  0.003  0.003  0.002  0.064  0.209  0.571  0.111  0.025  0.988
 
band   3 # energy    6.22713998 # occ.  0.00000000
 
ion      s     py     pz     px    dxy    dyz    dz2    dxz    dx2    tot
  1  0.000  0.003  0.000  0.005  0.119  0.011  0.002  0.007  0.842  0.988
 
band   4 # energy    7.30250237 # occ.  0.00000000
 
ion      s     py     pz     px    dxy    dyz    dz2    dxz    dx2    tot
  1  0.001  0.006  0.017  0.003  0.071  0.427  0.240  0.213  0.009  0.986
 
band   5 # energy    9.42305106 # occ.  0.00000000
 
ion      s     py     pz     px    dxy    dyz    dz2    dxz    dx2    tot
  1  0.000  0.000  0.000  0.000  0.656  0.009  0.126  0.000  0.086  0.877
 
band   6 # energy    9.42305106 # occ.  0.00000000
 
ion      s     py     pz     px    dxy    dyz    dz2    dxz    dx2    tot
  1  0.000  0.000  0.000  0.000  0.007  0.281  0.000  0.571  0.017  0.877
 

 k-point    2 :    0.15000000 0.05000000 0.05000000     weight = 0.02400000

band   1 # energy   -0.40121764 # occ.  1.00000000
 
ion      s     py     pz     px    dxy    dyz    dz2    dxz    dx2    tot
  1  0.755  0.021  0.062  0.040  0.006  0.009  0.001  0.017  0.002  0.912
 
band   2 # energy    5.60187036 # occ.  1.00000019
 
ion      s     py     pz     px    dxy    dyz    dz2    dxz    dx2    tot
  1  0.000  0.008  0.003  0.000  0.150  0.193  0.434  0.050  0.145  0.982
 
band   3 # energy    5.78443747 # occ.  0.73096234
 
ion      s     py     pz     px    dxy    dyz    dz2    dxz    dx2    tot
  1  0.002  0.001  0.002  0.051  0.067  0.023  0.097  0.200  0.509  0.951
 
band   4 # energy    8.74275409 # occ.  0.00000000
 
ion      s     py     pz     px    dxy    dyz    dz2    dxz    dx2    tot
  1  0.001  0.016  0.047  0.001  0.087  0.174  0.236  0.261  0.129  0.952
 
band   5 # energy    9.27607694 # occ.  0.00000000
 
ion      s     py     pz     px    dxy    dyz    dz2    dxz    dx2    tot
  1  0.001  0.001  0.003  0.001  0.052  0.475  0.061  0.157  0.137  0.888
 
band   6 # energy    9.99068115 # occ.  0.00000000
 
ion      s     py     pz     px    dxy    dyz    dz2    dxz    dx2    tot
  1  0.000  0.001  0.000  0.000  0.541  0.037  0.084  0.180  0.028  0.871
 

 k-point    3 :    0.25000000 0.05000000 0.05000000     weight = 0.02400000

band   1 # energy    0.94239828 # occ.  1.00000000
 
ion      s     py     pz     px    dxy    dyz    dz2    dxz    dx2    tot
  1  0.600  0.024  0.072  0.053  0.035  0.023  0.000  0.105  0.035  0.947
 
band   2 # energy    4.94154095 # occ.  1.00000000
 
ion      s     py     pz     px    dxy    dyz    dz2    dxz    dx2    tot
  1  0.000  0.011  0.004  0.000  0.172  0.187  0.420  0.057  0.140  0.990
 
band   3 # energy    5.47751055 # occ.  1.00000000
 
ion      s     py     pz     px    dxy    dyz    dz2    dxz    dx2    tot
  1  0.027  0.011  0.032  0.184  0.078  0.001  0.081  0.233  0.280  0.925
 
band   4 # energy    9.51718095 # occ.  0.00000000
 
ion      s     py     pz     px    dxy    dyz    dz2    dxz    dx2    tot
  1  0.004  0.000  0.000  0.012  0.064  0.308  0.001  0.191  0.337  0.917
 
band   5 # energy   10.39124328 # occ.  0.00000000
 
ion      s     py     pz     px    dxy    dyz    dz2    dxz    dx2    tot
  1  0.000  0.002  0.001  0.000  0.521  0.045  0.100  0.174  0.033  0.876
 
band   6 # energy   10.84415720 # occ.  0.00000000
 
ion      s     py     pz     px    dxy    dyz    dz2    dxz    dx2    tot
  1  0.004  0.031  0.093  0.003  0.030  0.327  0.293  0.089  0.077  0.946
 

 k-point    4 :    0.35000000 0.05000000 0.05000000     weight = 0.02400000

band   1 # energy    1.58083807 # occ.  1.00000000
 
ion      s     py     pz     px    dxy    dyz    dz2    dxz    dx2    tot
  1  0.363  0.013  0.039  0.009  0.097  0.028  0.007  0.290  0.116  0.962
 
band   2 # energy    4.46215113 # occ.  1.00000000
 
ion      s     py     pz     px    dxy    dyz    dz2    dxz    dx2    tot
  1  0.000  0.012  0.004  0.000  0.203  0.178  0.400  0.068  0.133  0.999
 
band   3 # energy    6.15665564 # occ.  0.00000000
 
ion      s     py     pz     px    dxy    dyz    dz2    dxz    dx2    tot
  1  0.072  0.039  0.117  0.404  0.025  0.009  0.060  0.074  0.102  0.901
 
band   4 # energy    9.84172794 # occ.  0.00000000
 
ion      s     py     pz     px    dxy    dyz    dz2    dxz    dx2    tot
  1  0.030  0.001  0.004  0.026  0.053  0.383  0.011  0.158  0.281  0.948
 
band   5 # energy   10.64017166 # occ.  0.00000000
 
ion      s     py     pz     px    dxy    dyz    dz2    dxz    dx2    tot
  1  0.000  0.001  0.000  0.000  0.506  0.058  0.131  0.169  0.044  0.910
 
band   6 # energy   12.85435202 # occ.  0.00000000
 
ion      s     py     pz     px    dxy    dyz    dz2    dxz    dx2    tot
  1  0.000  0.028  0.083  0.004  0.029  0.218  0.307  0.088  0.178  0.935
 

 k-point    5 :    0.45000000 0.05000000 0.05000000     weight = 0.01200000

band   1 # energy    1.63485377 # occ.  1.00000000
 
ion      s     py     pz     px    dxy    dyz    dz2    dxz    dx2    tot
  1  0.282  0.003  0.009  0.006  0.120  0.025  0.013  0.360  0.146  0.964
 
band   2 # energy    4.27221023 # occ.  1.00000000
 
ion      s     py     pz     px    dxy    dyz    dz2    dxz    dx2    tot
  1  0.000  0.013  0.004  0.000  0.247  0.164  0.370  0.082  0.123  1.003
 
band   3 # energy    6.98820421 # occ.  0.00000000
 
ion      s     py     pz     px    dxy    dyz    dz2    dxz    dx2    tot
  1  0.000  0.067  0.202  0.540  0.002  0.014  0.031  0.007  0.029  0.893
 
band   4 # energy    9.75862808 # occ.  0.00000000
 
ion      s     py     pz     px    dxy    dyz    dz2    dxz    dx2    tot
  1  0.074  0.000  0.000  0.000  0.056  0.439  0.043  0.168  0.165  0.946
 
band   5 # energy   10.75743762 # occ.  0.00000000
 
ion      s     py     pz     px    dxy    dyz    dz2    dxz    dx2    tot
  1  0.000  0.000  0.000  0.000  0.467  0.078  0.175  0.156  0.058  0.934
 
band   6 # energy   13.79937016 # occ.  0.00000000
 
ion      s     py     pz     px    dxy    dyz    dz2    dxz    dx2    tot
  1  0.000  0.005  0.015  0.039  0.025  0.149  0.335  0.074  0.310  0.952
 

 k-point    6 :   -0.05000000 0.05000000 0.05000000     weight = 0.00600000

band   1 # energy   -1.93957694 # occ.  1.00000000
 
ion      s     py     pz     px    dxy    dyz    dz2    dxz    dx2    tot
  1  0.855  0.003  0.008  0.006  0.000  0.000  0.000  0.000  0.000  0.872
 
band   2 # energy    6.54760222 # occ.  0.00000000
 
ion      s     py     pz     px    dxy    dyz    dz2    dxz    dx2    tot
  1  0.000  0.001  0.002  0.004  0.028  0.165  0.372  0.083  0.344  0.998
 
band   3 # energy    6.54763467 # occ.  0.00000000
 
ion      s     py     pz     px    dxy    dyz    dz2    dxz    dx2    tot
  1  0.000  0.005  0.002  0.000  0.248  0.165  0.372  0.083  0.124  0.998
 
band   4 # energy    6.68572135 # occ.  0.00000000
 
ion      s     py     pz     px    dxy    dyz    dz2    dxz    dx2    tot
  1  0.000  0.000  0.000  0.000  0.055  0.332  0.000  0.166  0.443  0.997
 
band   5 # energy    9.27470971 # occ.  0.00000000
 
ion      s     py     pz     px    dxy    dyz    dz2    dxz    dx2    tot
  1  0.000  0.000  0.000  0.000  0.434  0.072  0.163  0.145  0.054  0.869
 
band   6 # energy    9.76703013 # occ.  0.00000000
 
ion      s     py     pz     px    dxy    dyz    dz2    dxz    dx2    tot
  1  0.000  0.000  0.000  0.000  0.149  0.223  0.056  0.447  0.019  0.894
 

 k-point    7 :    0.15000000 0.15000000 0.05000000     weight = 0.02400000

band   1 # energy    0.87210033 # occ.  1.00000000
 
ion      s     py     pz     px    dxy    dyz    dz2    dxz    dx2    tot
  1  0.649  0.065  0.090  0.032  0.011  0.057  0.000  0.029  0.001  0.935
 
band   2 # energy    5.11061573 # occ.  1.00000000
 
ion      s     py     pz     px    dxy    dyz    dz2    dxz    dx2    tot
  1  0.000  0.026  0.000  0.052  0.080  0.051  0.000  0.102  0.642  0.954
 
band   3 # energy    5.13688302 # occ.  1.00000000
 
ion      s     py     pz     px    dxy    dyz    dz2    dxz    dx2    tot
  1  0.003  0.039  0.000  0.020  0.037  0.224  0.537  0.112  0.005  0.976
 
band   4 # energy    9.40878057 # occ.  0.00000000
 
ion      s     py     pz     px    dxy    dyz    dz2    dxz    dx2    tot
  1  0.000  0.001  0.000  0.002  0.022  0.228  0.000  0.456  0.179  0.889
 
band   5 # energy   10.43041484 # occ.  0.00000000
 
ion      s     py     pz     px    dxy    dyz    dz2    dxz    dx2    tot
  1  0.005  0.001  0.000  0.000  0.701  0.016  0.081  0.008  0.088  0.900
 
band   6 # energy   10.77110659 # occ.  0.00000000
 
ion      s     py     pz     px    dxy    dyz    dz2    dxz    dx2    tot
  1  0.002  0.032  0.110  0.016  0.062  0.292  0.280  0.146  0.008  0.949
 

 k-point    8 :    0.25000000 0.15000000 0.05000000     weight = 0.04800000

band   1 # energy    2.06495232 # occ.  1.00000000
 
ion      s     py     pz     px    dxy    dyz    dz2    dxz    dx2    tot
  1  0.445  0.059  0.094  0.020  0.045  0.092  0.013  0.172  0.022  0.962
 
band   2 # energy    4.55225282 # occ.  1.00000000
 
ion      s     py     pz     px    dxy    dyz    dz2    dxz    dx2    tot
  1  0.000  0.055  0.003  0.025  0.169  0.222  0.217  0.001  0.283  0.975
 
band   3 # energy    5.12255708 # occ.  1.00000000
 
ion      s     py     pz     px    dxy    dyz    dz2    dxz    dx2    tot
  1  0.038  0.030  0.024  0.207  0.005  0.005  0.266  0.177  0.189  0.941
 
band   4 # energy    9.67713074 # occ.  0.00000000
 
ion      s     py     pz     px    dxy    dyz    dz2    dxz    dx2    tot
  1  0.003  0.000  0.000  0.012  0.001  0.288  0.000  0.339  0.268  0.912
 
band   5 # energy   10.69301727 # occ.  0.00000000
 
ion      s     py     pz     px    dxy    dyz    dz2    dxz    dx2    tot
  1  0.016  0.000  0.000  0.001  0.614  0.004  0.178  0.057  0.055  0.926
 
band   6 # energy   12.79457089 # occ.  0.00000000
 
ion      s     py     pz     px    dxy    dyz    dz2    dxz    dx2    tot
  1  0.002  0.051  0.127  0.025  0.098  0.243  0.236  0.091  0.052  0.926
 

 k-point    9 :    0.35000000 0.15000000 0.05000000     weight = 0.04800000

band   1 # energy    2.34423846 # occ.  1.00000000
 
ion      s     py     pz     px    dxy    dyz    dz2    dxz    dx2    tot
  1  0.256  0.033  0.043  0.004  0.071  0.069  0.035  0.351  0.104  0.965
 
band   2 # energy    4.34721358 # occ.  1.00000000
 
ion      s     py     pz     px    dxy    dyz    dz2    dxz    dx2    tot
  1  0.000  0.065  0.004  0.007  0.239  0.209  0.305  0.017  0.145  0.992
 
band   3 # energy    5.97763342 # occ. -0.00000256
 
ion      s     py     pz     px    dxy    dyz    dz2    dxz    dx2    tot
  1  0.026  0.053  0.121  0.400  0.033  0.041  0.078  0.020  0.144  0.916
 
band   4 # energy    9.87696129 # occ.  0.00000000
 
ion      s     py     pz     px    dxy    dyz    dz2    dxz    dx2    tot
  1  0.040  0.000  0.001  0.011  0.026  0.333  0.037  0.237  0.241  0.927
 
band   5 # energy   10.84567886 # occ.  0.00000000
 
ion      s     py     pz     px    dxy    dyz    dz2    dxz    dx2    tot
  1  0.007  0.001  0.002  0.014  0.461  0.012  0.276  0.153  0.008  0.935
 
band   6 # energy   14.66409731 # occ.  0.00000000
 
ion      s     py     pz     px    dxy    dyz    dz2    dxz    dx2    tot
  1  0.000  0.042  0.093  0.066  0.090  0.167  0.215  0.047  0.191  0.913
 

 k-point   10 :   -0.15000000 0.15000000 0.05000000     weight = 0.02400000

band   1 # energy   -1.12331615 # occ.  1.00000000
 
ion      s     py     pz     px    dxy    dyz    dz2    dxz    dx2    tot
  1  0.806  0.023  0.009  0.046  0.005  0.000  0.002  0.001  0.001  0.893
 
band   2 # energy    6.11368048 # occ.  0.00000000
 
ion      s     py     pz     px    dxy    dyz    dz2    dxz    dx2    tot
  1  0.000  0.004  0.000  0.002  0.002  0.646  0.000  0.323  0.012  0.989
 
band   3 # energy    6.36203602 # occ.  0.00000000
 
ion      s     py     pz     px    dxy    dyz    dz2    dxz    dx2    tot
  1  0.001  0.011  0.002  0.022  0.401  0.001  0.478  0.001  0.050  0.966
 
band   4 # energy    7.45569082 # occ.  0.00000000
 
ion      s     py     pz     px    dxy    dyz    dz2    dxz    dx2    tot
  1  0.000  0.015  0.000  0.007  0.104  0.011  0.000  0.005  0.835  0.977
 
band   5 # energy    8.65145077 # occ.  0.00000000
 
ion      s     py     pz     px    dxy    dyz    dz2    dxz    dx2    tot
  1  0.000  0.000  0.000  0.000  0.270  0.053  0.390  0.106  0.034  0.853
 
band   6 # energy   10.25840005 # occ.  0.00000000
 
ion      s     py     pz     px    dxy    dyz    dz2    dxz    dx2    tot
  1  0.004  0.000  0.001  0.000  0.085  0.237  0.077  0.474  0.011  0.888
 

 k-point   11 :    0.25000000 0.25000000 0.05000000     weight = 0.02400000

band   1 # energy    3.01402028 # occ.  1.00000000
 
ion      s     py     pz     px    dxy    dyz    dz2    dxz    dx2    tot
  1  0.254  0.017  0.090  0.009  0.003  0.329  0.109  0.165  0.000  0.976
 
band   2 # energy    4.40950849 # occ.  1.00000000
 
ion      s     py     pz     px    dxy    dyz    dz2    dxz    dx2    tot
  1  0.000  0.072  0.000  0.144  0.058  0.067  0.000  0.135  0.467  0.943
 
band   3 # energy    5.09072714 # occ.  1.00000000
 
ion      s     py     pz     px    dxy    dyz    dz2    dxz    dx2    tot
  1  0.036  0.191  0.050  0.096  0.213  0.020  0.309  0.010  0.027  0.951
 
band   4 # energy   10.04179948 # occ.  0.00000000
 
ion      s     py     pz     px    dxy    dyz    dz2    dxz    dx2    tot
  1  0.000  0.006  0.000  0.011  0.029  0.213  0.000  0.426  0.229  0.914
 
band   5 # energy   10.72307971 # occ.  0.00000000
 
ion      s     py     pz     px    dxy    dyz    dz2    dxz    dx2    tot
  1  0.050  0.002  0.000  0.001  0.443  0.031  0.349  0.015  0.055  0.947
 
band   6 # energy   15.06037030 # occ.  0.00000000
 
ion      s     py     pz     px    dxy    dyz    dz2    dxz    dx2    tot
  1  0.003  0.101  0.139  0.051  0.207  0.143  0.169  0.072  0.026  0.910
 

 k-point   12 :    0.35000000 0.25000000 0.05000000     weight = 0.02400000

band   1 # energy    3.19543490 # occ.  1.00000000
 
ion      s     py     pz     px    dxy    dyz    dz2    dxz    dx2    tot
  1  0.165  0.006  0.039  0.022  0.000  0.225  0.140  0.331  0.047  0.976
 
band   2 # energy    4.48565994 # occ.  1.00000000
 
ion      s     py     pz     px    dxy    dyz    dz2    dxz    dx2    tot
  1  0.000  0.193  0.004  0.037  0.326  0.094  0.120  0.027  0.153  0.954
 
band   3 # energy    5.29423930 # occ.  1.00000000
 
ion      s     py     pz     px    dxy    dyz    dz2    dxz    dx2    tot
  1  0.000  0.038  0.113  0.302  0.127  0.117  0.038  0.000  0.188  0.923
 
band   4 # energy   10.27950746 # occ.  0.00000000
 
ion      s     py     pz     px    dxy    dyz    dz2    dxz    dx2    tot
  1  0.033  0.011  0.001  0.003  0.014  0.287  0.126  0.239  0.217  0.931
 
band   5 # energy   10.80123568 # occ.  0.00000000
 
ion      s     py     pz     px    dxy    dyz    dz2    dxz    dx2    tot
  1  0.000  0.003  0.009  0.024  0.293  0.007  0.383  0.218  0.000  0.939
 
band   6 # energy   14.41319096 # occ.  0.00000000
 
ion      s     py     pz     px    dxy    dyz    dz2    dxz    dx2    tot
  1  0.745  0.000  0.044  0.018  0.000  0.089  0.011  0.033  0.034  0.975
 

 k-point   13 :   -0.25000000 0.25000000 0.05000000     weight = 0.02400000

band   1 # energy    0.20246907 # occ.  1.00000000
 
ion      s     py     pz     px    dxy    dyz    dz2    dxz    dx2    tot
  1  0.689  0.046  0.009  0.091  0.056  0.001  0.024  0.002  0.007  0.925
 
band   2 # energy    5.43188371 # occ.  1.00000000
 
ion      s     py     pz     px    dxy    dyz    dz2    dxz    dx2    tot
  1  0.000  0.004  0.000  0.002  0.000  0.652  0.000  0.326  0.003  0.988
 
band   3 # energy    5.78111226 # occ.  0.77834649
 
ion      s     py     pz     px    dxy    dyz    dz2    dxz    dx2    tot
  1  0.010  0.044  0.001  0.089  0.529  0.005  0.158  0.010  0.066  0.912
 
band   4 # energy    8.74422671 # occ.  0.00000000
 
ion      s     py     pz     px    dxy    dyz    dz2    dxz    dx2    tot
  1  0.000  0.007  0.000  0.013  0.097  0.038  0.648  0.077  0.012  0.892
 
band   5 # energy    9.15738946 # occ.  0.00000000
 
ion      s     py     pz     px    dxy    dyz    dz2    dxz    dx2    tot
  1  0.000  0.038  0.000  0.019  0.099  0.004  0.000  0.002  0.789  0.949
 
band   6 # energy   10.47745144 # occ.  0.00000000
 
ion      s     py     pz     px    dxy    dyz    dz2    dxz    dx2    tot
  1  0.005  0.000  0.003  0.000  0.056  0.244  0.085  0.489  0.007  0.889
 

 k-point   14 :   -0.15000000 0.25000000 0.05000000     weight = 0.02400000

band   1 # energy   -0.04149899 # occ.  1.00000000
 
ion      s     py     pz     px    dxy    dyz    dz2    dxz    dx2    tot
  1  0.721  0.076  0.031  0.042  0.019  0.016  0.005  0.002  0.002  0.914
 
band   2 # energy    5.79509440 # occ.  0.56097400
 
ion      s     py     pz     px    dxy    dyz    dz2    dxz    dx2    tot
  1  0.000  0.004  0.013  0.035  0.199  0.217  0.104  0.004  0.359  0.934
 
band   3 # energy    5.85426873 # occ. -0.03315249
 
ion      s     py     pz     px    dxy    dyz    dz2    dxz    dx2    tot
  1  0.002  0.025  0.002  0.007  0.058  0.499  0.177  0.172  0.035  0.976
 
band   4 # energy    8.12234862 # occ.  0.00000000
 
ion      s     py     pz     px    dxy    dyz    dz2    dxz    dx2    tot
  1  0.000  0.000  0.001  0.003  0.231  0.001  0.407  0.214  0.007  0.865
 
band   5 # energy    8.62288445 # occ.  0.00000000
 
ion      s     py     pz     px    dxy    dyz    dz2    dxz    dx2    tot
  1  0.001  0.057  0.001  0.004  0.232  0.028  0.126  0.022  0.482  0.954
 
band   6 # energy   10.62276096 # occ.  0.00000000
 
ion      s     py     pz     px    dxy    dyz    dz2    dxz    dx2    tot
  1  0.007  0.000  0.002  0.001  0.110  0.158  0.095  0.510  0.023  0.906
 

 k-point   15 :   -0.35000000 0.35000000 0.05000000     weight = 0.02400000

band   1 # energy    1.26221437 # occ.  1.00000000
 
ion      s     py     pz     px    dxy    dyz    dz2    dxz    dx2    tot
  1  0.472  0.031  0.008  0.063  0.268  0.001  0.079  0.002  0.034  0.957
 
band   2 # energy    4.85759703 # occ.  1.00000000
 
ion      s     py     pz     px    dxy    dyz    dz2    dxz    dx2    tot
  1  0.000  0.003  0.000  0.002  0.000  0.660  0.000  0.330  0.001  0.995
 
band   3 # energy    5.76367025 # occ.  0.96013221
 
ion      s     py     pz     px    dxy    dyz    dz2    dxz    dx2    tot
  1  0.065  0.127  0.000  0.253  0.331  0.014  0.027  0.028  0.041  0.885
 
band   4 # energy    9.39810318 # occ.  0.00000000
 
ion      s     py     pz     px    dxy    dyz    dz2    dxz    dx2    tot
  1  0.007  0.021  0.000  0.042  0.083  0.015  0.709  0.031  0.010  0.919
 
band   5 # energy   10.68730373 # occ.  0.00000000
 
ion      s     py     pz     px    dxy    dyz    dz2    dxz    dx2    tot
  1  0.022  0.002  0.003  0.004  0.043  0.265  0.038  0.531  0.005  0.913
 
band   6 # energy   11.37980808 # occ.  0.00000000
 
ion      s     py     pz     px    dxy    dyz    dz2    dxz    dx2    tot
  1  0.000  0.048  0.000  0.024  0.095  0.001  0.000  0.001  0.763  0.932
 

 k-point   16 :   -0.25000000 0.35000000 0.05000000     weight = 0.04800000

band   1 # energy    1.27104454 # occ.  1.00000000
 
ion      s     py     pz     px    dxy    dyz    dz2    dxz    dx2    tot
  1  0.560  0.091  0.029  0.061  0.128  0.028  0.039  0.003  0.001  0.940
 
band   2 # energy    5.12824438 # occ.  1.00000000
 
ion      s     py     pz     px    dxy    dyz    dz2    dxz    dx2    tot
  1  0.004  0.000  0.014  0.075  0.207  0.442  0.010  0.023  0.157  0.933
 
band   3 # energy    5.51779682 # occ.  1.00000000
 
ion      s     py     pz     px    dxy    dyz    dz2    dxz    dx2    tot
  1  0.014  0.060  0.004  0.063  0.139  0.257  0.077  0.254  0.084  0.953
 
band   4 # energy    8.50955413 # occ.  0.00000000
 
ion      s     py     pz     px    dxy    dyz    dz2    dxz    dx2    tot
  1  0.000  0.001  0.001  0.034  0.111  0.002  0.594  0.126  0.027  0.895
 
band   5 # energy   10.62669838 # occ.  0.00000000
 
ion      s     py     pz     px    dxy    dyz    dz2    dxz    dx2    tot
  1  0.008  0.086  0.000  0.001  0.068  0.062  0.118  0.026  0.568  0.938
 
band   6 # energy   10.92157962 # occ.  0.00000000
 
ion      s     py     pz     px    dxy    dyz    dz2    dxz    dx2    tot
  1  0.041  0.027  0.002  0.006  0.181  0.135  0.028  0.492  0.021  0.933
 

 k-point   17 :   -0.45000000 0.45000000 0.05000000     weight = 0.02400000

band   1 # energy    1.51458187 # occ.  1.00000000
 
ion      s     py     pz     px    dxy    dyz    dz2    dxz    dx2    tot
  1  0.303  0.003  0.007  0.007  0.472  0.000  0.107  0.000  0.059  0.958
 
band   2 # energy    4.51730019 # occ.  1.00000000
 
ion      s     py     pz     px    dxy    dyz    dz2    dxz    dx2    tot
  1  0.000  0.003  0.000  0.002  0.000  0.665  0.000  0.332  0.000  1.002
 
band   3 # energy    6.73143520 # occ.  0.00000000
 
ion      s     py     pz     px    dxy    dyz    dz2    dxz    dx2    tot
  1  0.028  0.233  0.000  0.467  0.053  0.031  0.000  0.062  0.007  0.881
 
band   4 # energy    9.60249167 # occ.  0.00000000
 
ion      s     py     pz     px    dxy    dyz    dz2    dxz    dx2    tot
  1  0.086  0.012  0.000  0.023  0.169  0.000  0.640  0.000  0.021  0.951
 
band   5 # energy   11.01271580 # occ.  0.00000000
 
ion      s     py     pz     px    dxy    dyz    dz2    dxz    dx2    tot
  1  0.020  0.028  0.001  0.055  0.009  0.277  0.000  0.553  0.001  0.944
 
band   6 # energy   13.42800992 # occ.  0.00000000
 
ion      s     py     pz     px    dxy    dyz    dz2    dxz    dx2    tot
  1  0.000  0.014  0.000  0.007  0.102  0.000  0.000  0.000  0.818  0.943
 

 k-point   18 :   -0.35000000 0.45000000 0.05000000     weight = 0.04800000

band   1 # energy    1.94955390 # occ.  1.00000000
 
ion      s     py     pz     px    dxy    dyz    dz2    dxz    dx2    tot
  1  0.333  0.049  0.026  0.013  0.392  0.020  0.087  0.000  0.036  0.954
 
band   2 # energy    4.79789396 # occ.  1.00000000
 
ion      s     py     pz     px    dxy    dyz    dz2    dxz    dx2    tot
  1  0.004  0.003  0.016  0.041  0.038  0.689  0.004  0.154  0.027  0.976
 
band   3 # energy    5.67665833 # occ.  1.00150122
 
ion      s     py     pz     px    dxy    dyz    dz2    dxz    dx2    tot
  1  0.043  0.139  0.002  0.260  0.082  0.001  0.007  0.253  0.106  0.892
 
band   4 # energy    9.08203186 # occ.  0.00000000
 
ion      s     py     pz     px    dxy    dyz    dz2    dxz    dx2    tot
  1  0.024  0.009  0.000  0.054  0.136  0.005  0.658  0.018  0.002  0.906
 
band   5 # energy   11.01695515 # occ.  0.00000000
 
ion      s     py     pz     px    dxy    dyz    dz2    dxz    dx2    tot
  1  0.081  0.007  0.001  0.052  0.013  0.221  0.006  0.454  0.130  0.965
 
band   6 # energy   12.91212199 # occ.  0.00000000
 
ion      s     py     pz     px    dxy    dyz    dz2    dxz    dx2    tot
  1  0.002  0.130  0.001  0.013  0.159  0.003  0.013  0.049  0.561  0.932
 

 k-point   19 :   -0.25000000 0.45000000 0.05000000     weight = 0.02400000

band   1 # energy    2.42451533 # occ.  1.00000000
 
ion      s     py     pz     px    dxy    dyz    dz2    dxz    dx2    tot
  1  0.393  0.100  0.028  0.046  0.132  0.200  0.062  0.000  0.003  0.965
 
band   2 # energy    4.52662253 # occ.  1.00000000
 
ion      s     py     pz     px    dxy    dyz    dz2    dxz    dx2    tot
  1  0.000  0.012  0.035  0.093  0.304  0.186  0.009  0.007  0.267  0.912
 
band   3 # energy    5.50504166 # occ.  1.00000000
 
ion      s     py     pz     px    dxy    dyz    dz2    dxz    dx2    tot
  1  0.011  0.122  0.033  0.055  0.000  0.256  0.115  0.291  0.067  0.950
 
band   4 # energy    8.83136336 # occ.  0.00000000
 
ion      s     py     pz     px    dxy    dyz    dz2    dxz    dx2    tot
  1  0.000  0.004  0.011  0.031  0.117  0.008  0.473  0.207  0.055  0.906
 
band   5 # energy   10.71525026 # occ.  0.00000000
 
ion      s     py     pz     px    dxy    dyz    dz2    dxz    dx2    tot
  1  0.097  0.000  0.006  0.002  0.022  0.249  0.123  0.279  0.168  0.947
 
band   6 # energy   12.94582133 # occ.  0.00000000
 
ion      s     py     pz     px    dxy    dyz    dz2    dxz    dx2    tot
  1  0.013  0.169  0.002  0.030  0.268  0.000  0.044  0.118  0.277  0.922
 

 k-point   20 :   -0.45000000-0.45000000 0.05000000     weight = 0.02400000

band   1 # energy    2.01318913 # occ.  1.00000000
 
ion      s     py     pz     px    dxy    dyz    dz2    dxz    dx2    tot
  1  0.248  0.010  0.024  0.005  0.499  0.006  0.095  0.003  0.062  0.954
 
band   2 # energy    4.68999030 # occ.  1.00000000
 
ion      s     py     pz     px    dxy    dyz    dz2    dxz    dx2    tot
  1  0.003  0.014  0.017  0.007  0.014  0.616  0.009  0.308  0.002  0.989
 
band   3 # energy    6.15314766 # occ.  0.00000000
 
ion      s     py     pz     px    dxy    dyz    dz2    dxz    dx2    tot
  1  0.000  0.190  0.000  0.381  0.005  0.087  0.000  0.173  0.042  0.878
 
band   4 # energy    9.04992865 # occ.  0.00000000
 
ion      s     py     pz     px    dxy    dyz    dz2    dxz    dx2    tot
  1  0.096  0.001  0.001  0.000  0.166  0.017  0.596  0.009  0.021  0.906
 
band   5 # energy   11.41295538 # occ.  0.00000000
 
ion      s     py     pz     px    dxy    dyz    dz2    dxz    dx2    tot
  1  0.000  0.064  0.000  0.128  0.017  0.205  0.000  0.410  0.133  0.957
 
band   6 # energy   14.20802517 # occ.  0.00000000
 
ion      s     py     pz     px    dxy    dyz    dz2    dxz    dx2    tot
  1  0.000  0.040  0.000  0.081  0.085  0.020  0.000  0.041  0.680  0.947
 

 k-point   21 :   -0.35000000-0.45000000 0.05000000     weight = 0.04800000

band   1 # energy    2.89665856 # occ.  1.00000000
 
ion      s     py     pz     px    dxy    dyz    dz2    dxz    dx2    tot
  1  0.220  0.052  0.028  0.000  0.396  0.106  0.106  0.014  0.034  0.956
 
band   2 # energy    4.51087744 # occ.  1.00000000
 
ion      s     py     pz     px    dxy    dyz    dz2    dxz    dx2    tot
  1  0.013  0.005  0.040  0.110  0.116  0.508  0.017  0.028  0.094  0.932
 
band   3 # energy    5.29903882 # occ.  1.00000000
 
ion      s     py     pz     px    dxy    dyz    dz2    dxz    dx2    tot
  1  0.002  0.168  0.014  0.169  0.008  0.006  0.022  0.420  0.098  0.907
 
band   4 # energy    9.27993378 # occ.  0.00000000
 
ion      s     py     pz     px    dxy    dyz    dz2    dxz    dx2    tot
  1  0.039  0.003  0.013  0.024  0.127  0.065  0.585  0.054  0.000  0.908
 
band   5 # energy   10.81617450 # occ.  0.00000000
 
ion      s     py     pz     px    dxy    dyz    dz2    dxz    dx2    tot
  1  0.042  0.021  0.001  0.071  0.005  0.198  0.001  0.293  0.313  0.945
 
band   6 # energy   15.20236529 # occ.  0.00000000
 
ion      s     py     pz     px    dxy    dyz    dz2    dxz    dx2    tot
  1  0.051  0.142  0.006  0.100  0.189  0.017  0.028  0.090  0.355  0.977
 

 k-point   22 :   -0.35000000-0.35000000 0.05000000     weight = 0.00800000

band   1 # energy    3.58423775 # occ.  1.00000000
 
ion      s     py     pz     px    dxy    dyz    dz2    dxz    dx2    tot
  1  0.179  0.000  0.000  0.000  0.059  0.354  0.199  0.177  0.007  0.975
 
band   2 # energy    4.55379297 # occ.  1.00000000
 
ion      s     py     pz     px    dxy    dyz    dz2    dxz    dx2    tot
  1  0.000  0.097  0.000  0.193  0.024  0.131  0.000  0.262  0.189  0.896
 
band   3 # energy    4.55379869 # occ.  1.00000000
 
ion      s     py     pz     px    dxy    dyz    dz2    dxz    dx2    tot
  1  0.000  0.129  0.097  0.064  0.476  0.047  0.000  0.024  0.059  0.896
 
band   4 # energy   10.34149897 # occ.  0.00000000
 
ion      s     py     pz     px    dxy    dyz    dz2    dxz    dx2    tot
  1  0.000  0.043  0.033  0.022  0.076  0.094  0.610  0.047  0.010  0.934
 
band   5 # energy   10.34153421 # occ.  0.00000000
 
ion      s     py     pz     px    dxy    dyz    dz2    dxz    dx2    tot
  1  0.000  0.033  0.000  0.065  0.047  0.138  0.000  0.276  0.374  0.934
 
band   6 # energy   14.73211475 # occ.  0.00000000
 
ion      s     py     pz     px    dxy    dyz    dz2    dxz    dx2    tot
  1  0.692  0.013  0.039  0.006  0.015  0.090  0.050  0.045  0.002  0.952
 

 k-point   23 :    0.15000000 0.15000000 0.15000000     weight = 0.00800000

band   1 # energy    2.24465803 # occ.  1.00000000
 
ion      s     py     pz     px    dxy    dyz    dz2    dxz    dx2    tot
  1  0.506  0.059  0.177  0.030  0.012  0.073  0.041  0.036  0.002  0.936
 
band   2 # energy    4.55266607 # occ.  1.00000000
 
ion      s     py     pz     px    dxy    dyz    dz2    dxz    dx2    tot
  1  0.000  0.040  0.034  0.029  0.006  0.162  0.595  0.097  0.009  0.973
 
band   3 # energy    4.55266607 # occ.  1.00000000
 
ion      s     py     pz     px    dxy    dyz    dz2    dxz    dx2    tot
  1  0.000  0.041  0.000  0.063  0.091  0.041  0.003  0.048  0.687  0.973
 
band   4 # energy   10.35053779 # occ.  0.00000000
 
ion      s     py     pz     px    dxy    dyz    dz2    dxz    dx2    tot
  1  0.000  0.001  0.001  0.000  0.727  0.037  0.038  0.007  0.102  0.912
 
band   5 # energy   10.35053779 # occ.  0.00000000
 
ion      s     py     pz     px    dxy    dyz    dz2    dxz    dx2    tot
  1  0.000  0.001  0.000  0.001  0.026  0.253  0.000  0.531  0.100  0.912
 
band   6 # energy   12.83279917 # occ.  0.00000000
 
ion      s     py     pz     px    dxy    dyz    dz2    dxz    dx2    tot
  1  0.019  0.050  0.150  0.025  0.053  0.316  0.178  0.158  0.007  0.955
 

 k-point   24 :    0.25000000 0.15000000 0.15000000     weight = 0.02400000
