<?xml version="1.0" encoding="ISO-8859-1"?>
<modeling>
 <generator>
  <i name="program" type="string">vasp </i>
  <i name="version" type="string">5.2.12  </i>
  <i name="subversion" type="string">11Nov11 complex                                                      parallel </i>
  <i name="platform" type="string">LinuxIFC </i>
  <i name="date" type="string">2012 10 14 </i>
  <i name="time" type="string">15:48:55 </i>
 </generator>
 <incar>
  <i type="string" name="PREC">accurate</i>
  <i name="ENCUT">    150.00000000</i>
  <i type="logical" name="LREAL"> F  </i>
  <i type="int" name="ISMEAR">     1</i>
  <i name="SIGMA">      0.05000000</i>
 </incar>
 <kpoints>
  <generation param="Monkhorst-Pack">
   <v type="int" name="divisions">      10       10       10 </v>
   <v name="usershift">      0.00000000       0.00000000       0.00000000 </v>
   <v name="genvec1">      0.10000000       0.00000000       0.00000000 </v>
   <v name="genvec2">      0.00000000       0.10000000       0.00000000 </v>
   <v name="genvec3">      0.00000000       0.00000000       0.10000000 </v>
   <v name="shift">      0.50000000       0.50000000       0.50000000 </v>
  </generation>
  <varray name="kpointlist" >
   <v>       0.05000000       0.05000000       0.05000000 </v>
   <v>       0.15000000       0.05000000       0.05000000 </v>
   <v>       0.25000000       0.05000000       0.05000000 </v>
   <v>       0.35000000       0.05000000       0.05000000 </v>
   <v>       0.45000000       0.05000000       0.05000000 </v>
   <v>      -0.05000000       0.05000000       0.05000000 </v>
   <v>       0.15000000       0.15000000       0.05000000 </v>
   <v>       0.25000000       0.15000000       0.05000000 </v>
   <v>       0.35000000       0.15000000       0.05000000 </v>
   <v>      -0.15000000       0.15000000       0.05000000 </v>
   <v>       0.25000000       0.25000000       0.05000000 </v>
   <v>       0.35000000       0.25000000       0.05000000 </v>
   <v>      -0.25000000       0.25000000       0.05000000 </v>
   <v>      -0.15000000       0.25000000       0.05000000 </v>
   <v>      -0.35000000       0.35000000       0.05000000 </v>
   <v>      -0.25000000       0.35000000       0.05000000 </v>
   <v>      -0.45000000       0.45000000       0.05000000 </v>
   <v>      -0.35000000       0.45000000       0.05000000 </v>
   <v>      -0.25000000       0.45000000       0.05000000 </v>
   <v>      -0.45000000      -0.45000000       0.05000000 </v>
   <v>      -0.35000000      -0.45000000       0.05000000 </v>
   <v>      -0.35000000      -0.35000000       0.05000000 </v>
   <v>       0.15000000       0.15000000       0.15000000 </v>
   <v>       0.25000000       0.15000000       0.15000000 </v>
   <v>       0.35000000       0.15000000       0.15000000 </v>
   <v>      -0.15000000       0.15000000       0.15000000 </v>
   <v>       0.25000000       0.25000000       0.15000000 </v>
   <v>      -0.25000000       0.25000000       0.15000000 </v>
   <v>      -0.35000000       0.35000000       0.15000000 </v>
   <v>      -0.25000000       0.35000000       0.15000000 </v>
   <v>      -0.45000000       0.45000000       0.15000000 </v>
   <v>      -0.35000000       0.45000000       0.15000000 </v>
   <v>      -0.45000000      -0.45000000       0.15000000 </v>
   <v>      -0.35000000      -0.45000000       0.15000000 </v>
   <v>       0.25000000       0.25000000       0.25000000 </v>
   <v>      -0.25000000       0.25000000       0.25000000 </v>
   <v>      -0.35000000       0.35000000       0.25000000 </v>
   <v>      -0.45000000       0.45000000       0.25000000 </v>
   <v>      -0.35000000       0.45000000       0.25000000 </v>
   <v>      -0.45000000      -0.45000000       0.25000000 </v>
   <v>      -0.35000000       0.35000000       0.35000000 </v>
   <v>      -0.45000000       0.45000000       0.35000000 </v>
   <v>      -0.45000000      -0.45000000       0.35000000 </v>
   <v>      -0.45000000       0.45000000       0.45000000 </v>
  </varray>
  <varray name="weights" >
   <v>       0.00800000 </v>
   <v>       0.02400000 </v>
   <v>       0.02400000 </v>
   <v>       0.02400000 </v>
   <v>       0.01200000 </v>
   <v>       0.00600000 </v>
   <v>       0.02400000 </v>
   <v>       0.04800000 </v>
   <v>       0.04800000 </v>
   <v>       0.02400000 </v>
   <v>       0.02400000 </v>
   <v>       0.02400000 </v>
   <v>       0.02400000 </v>
   <v>       0.02400000 </v>
   <v>       0.02400000 </v>
   <v>       0.04800000 </v>
   <v>       0.02400000 </v>
   <v>       0.04800000 </v>
   <v>       0.02400000 </v>
   <v>       0.02400000 </v>
   <v>       0.04800000 </v>
   <v>       0.00800000 </v>
   <v>       0.00800000 </v>
   <v>       0.02400000 </v>
   <v>       0.01200000 </v>
   <v>       0.00600000 </v>
   <v>       0.02400000 </v>
   <v>       0.02400000 </v>
   <v>       0.02400000 </v>
   <v>       0.02400000 </v>
   <v>       0.02400000 </v>
   <v>       0.04800000 </v>
   <v>       0.02400000 </v>
   <v>       0.02400000 </v>
   <v>       0.00200000 </v>
   <v>       0.00600000 </v>
   <v>       0.02400000 </v>
   <v>       0.02400000 </v>
   <v>       0.02400000 </v>
   <v>       0.02400000 </v>
   <v>       0.00600000 </v>
   <v>       0.02400000 </v>
   <v>       0.00800000 </v>
   <v>       0.00600000 </v>
  </varray>
 </kpoints>
 <parameters>
  <separator name="general" >
   <i type="string" name="SYSTEM">unknown system</i>
   <i type="logical" name="LCOMPAT"> F  </i>
  </separator>
  <separator name="electronic" >
   <i type="string" name="PREC">accura</i>
   <i name="ENMAX">    150.00000000</i>
   <i name="ENAUG">    332.07500000</i>
   <i name="EDIFF">      0.00010000</i>
   <i type="int" name="IALGO">    38</i>
   <i type="int" name="IWAVPR">    10</i>
   <i type="int" name="NBANDS">     6</i>
   <i name="NELECT">      5.00000000</i>
   <i type="int" name="TURBO">     0</i>
   <i type="int" name="IRESTART">     0</i>
   <i type="int" name="NREBOOT">     0</i>
   <i type="int" name="NMIN">     0</i>
   <i name="EREF">      0.00000000</i>
   <separator name="electronic smearing" >
    <i type="int" name="ISMEAR">     1</i>
    <i name="SIGMA">      0.05000000</i>
    <i name="KSPACING">      0.50000000</i>
    <i type="logical" name="KGAMMA"> T  </i>
   </separator>
   <separator name="electronic projectors" >
    <i type="logical" name="LREAL"> F  </i>
    <v name="ROPT">      0.00000000</v>
    <i type="int" name="LMAXPAW">  -100</i>
    <i type="int" name="LMAXMIX">     2</i>
    <i type="logical" name="NLSPLINE"> F  </i>
   </separator>
   <separator name="electronic startup" >
    <i type="int" name="ISTART">     0</i>
    <i type="int" name="ICHARG">     2</i>
    <i type="int" name="INIWAV">     1</i>
   </separator>
   <separator name="electronic spin" >
    <i type="int" name="ISPIN">     1</i>
    <i type="logical" name="LNONCOLLINEAR"> F  </i>
    <v name="MAGMOM">      1.00000000</v>
    <i name="NUPDOWN">     -1.00000000</i>
    <i type="logical" name="LSORBIT"> F  </i>
    <v name="SAXIS">      0.00000000      0.00000000      1.00000000</v>
    <i type="logical" name="LSPIRAL"> F  </i>
    <v name="QSPIRAL">      0.00000000      0.00000000      0.00000000</v>
    <i type="logical" name="LZEROZ"> F  </i>
   </separator>
   <separator name="electronic exchange-correlation" >
    <i type="logical" name="LASPH"> F  </i>
    <i type="logical" name="LMETAGGA"> F  </i>
   </separator>
   <separator name="electronic convergence" >
    <i type="int" name="NELM">    60</i>
    <i type="int" name="NELMDL">    -5</i>
    <i type="int" name="NELMIN">     2</i>
    <i name="ENINI">    150.00000000</i>
    <separator name="electronic convergence detail" >
     <i type="logical" name="LDIAG"> T  </i>
     <i type="logical" name="LSUBROT"> T  </i>
     <i name="WEIMIN">      0.00000000</i>
     <i name="EBREAK">      0.00000417</i>
     <i name="DEPER">      0.30000000</i>
     <i type="int" name="NRMM">     4</i>
     <i name="TIME">      0.40000000</i>
    </separator>
   </separator>
   <separator name="electronic mixer" >
    <i name="AMIX">      0.40000000</i>
    <i name="BMIX">      1.00000000</i>
    <i name="AMIN">      0.10000000</i>
    <i name="AMIX_MAG">      1.60000000</i>
    <i name="BMIX_MAG">      1.00000000</i>
    <separator name="electronic mixer details" >
     <i type="int" name="IMIX">     4</i>
     <i type="int" name="MAXMIX">   -45</i>
     <i name="WC">    100.00000000</i>
     <i type="int" name="INIMIX">     1</i>
     <i type="int" name="MIXPRE">     1</i>
     <i type="int" name="MREMOVE">     5</i>
    </separator>
   </separator>
   <separator name="electronic dipolcorrection" >
    <i type="logical" name="LDIPOL"> F  </i>
    <i type="logical" name="LMONO"> F  </i>
    <i type="int" name="IDIPOL">     0</i>
    <i name="EPSILON">      1.00000000</i>
    <v name="DIPOL">   -100.00000000   -100.00000000   -100.00000000</v>
    <i name="EFIELD">      0.00000000</i>
   </separator>
  </separator>
  <separator name="grids" >
   <i type="int" name="NGX">    12</i>
   <i type="int" name="NGY">    12</i>
   <i type="int" name="NGZ">    12</i>
   <i type="int" name="NGXF">    24</i>
   <i type="int" name="NGYF">    24</i>
   <i type="int" name="NGZF">    24</i>
   <i type="logical" name="ADDGRID"> F  </i>
  </separator>
  <separator name="ionic" >
   <i type="int" name="NSW">     0</i>
   <i type="int" name="IBRION">    -1</i>
   <i type="int" name="ISIF">     2</i>
   <i name="PSTRESS">      0.00000000</i>
   <i name="EDIFFG">      0.00100000</i>
   <i type="int" name="NFREE">     0</i>
   <i name="POTIM">      0.50000000</i>
   <i name="SMASS">     -3.00000000</i>
   <i name="SCALEE">      1.00000000</i>
  </separator>
  <separator name="ionic md" >
   <i name="TEBEG">      0.00010000</i>
   <i name="TEEND">      0.00010000</i>
   <i type="int" name="NBLOCK">     1</i>
   <i type="int" name="KBLOCK">     1</i>
   <i type="int" name="NPACO">   256</i>
   <i name="APACO">     16.00000000</i>
  </separator>
  <separator name="symmetry" >
   <i type="int" name="ISYM">     2</i>
   <i name="SYMPREC">      0.00001000</i>
  </separator>
  <separator name="dos" >
   <i type="logical" name="LORBIT"> F  </i>
   <v name="RWIGS">     -1.00000000</v>
   <i type="int" name="NEDOS">   301</i>
   <i name="EMIN">     10.00000000</i>
   <i name="EMAX">    -10.00000000</i>
   <i name="EFERMI">      0.00000000</i>
  </separator>
  <separator name="writing" >
   <i type="int" name="NWRITE">     2</i>
   <i type="logical" name="LWAVE"> T  </i>
   <i type="logical" name="LCHARG"> T  </i>
   <i type="logical" name="LPARD"> F  </i>
   <i type="logical" name="LVTOT"> F  </i>
   <i type="logical" name="LVHAR"> F  </i>
   <i type="logical" name="LELF"> F  </i>
   <i type="logical" name="LOPTICS"> F  </i>
   <v name="STM">      0.00000000      0.00000000      0.00000000      0.00000000      0.00000000      0.00000000      0.00000000</v>
  </separator>
  <separator name="performance" >
   <i type="int" name="NPAR">     1</i>
   <i type="int" name="NSIM">     4</i>
   <i type="int" name="NBLK">    -1</i>
   <i type="logical" name="LPLANE"> T  </i>
   <i type="logical" name="LSCALAPACK"> F  </i>
   <i type="logical" name="LSCAAWARE"> F  </i>
   <i type="logical" name="LSCALU"> F  </i>
   <i type="logical" name="LASYNC"> F  </i>
   <i type="logical" name="LORBITALREAL"> F  </i>
  </separator>
  <separator name="miscellaneous" >
   <i type="int" name="IDIOT">     3</i>
   <i type="logical" name="LMUSIC"> F  </i>
   <v name="POMASS">    180.94800000</v>
   <v name="DARWINR">      0.00000000</v>
   <v name="DARWINV">      1.00000000</v>
   <i type="logical" name="LCORR"> T  </i>
  </separator>
  <i type="logical" name="GGA_COMPAT"> T  </i>
  <i type="logical" name="LBERRY"> F  </i>
  <i type="int" name="ICORELEVEL">     0</i>
  <i type="logical" name="LDAU"> F  </i>
  <i type="int" name="I_CONSTRAINED_M">     0</i>
  <separator name="electronic exchange-correlation" >
   <i type="string" name="GGA">--</i>
   <i type="int" name="VOSKOWN">     0</i>
   <i type="logical" name="LHFCALC"> F  </i>
   <i type="string" name="PRECFOCK"></i>
   <i type="logical" name="LHFONE"> F  </i>
   <i type="logical" name="LRHFCALC"> F  </i>
   <i type="logical" name="LTHOMAS"> F  </i>
   <i type="logical" name="LMODELHF"> F  </i>
   <i name="ENCUT4O">     -1.00000000</i>
   <i type="int" name="EXXOEP">     0</i>
   <i type="int" name="FOURORBIT">     0</i>
   <i name="AEXX">      0.00000000</i>
   <i name="HFALPHA">      0.00000000</i>
   <i name="ALDAX">      1.00000000</i>
   <i name="AGGAX">      1.00000000</i>
   <i name="ALDAC">      1.00000000</i>
   <i name="AGGAC">      1.00000000</i>
   <i type="int" name="NKREDX">     1</i>
   <i type="int" name="NKREDY">     1</i>
   <i type="int" name="NKREDZ">     1</i>
   <i type="logical" name="SHIFTRED"> F  </i>
   <i type="logical" name="ODDONLY"> F  </i>
   <i type="logical" name="EVENONLY"> F  </i>
   <i type="int" name="LMAXFOCK">     0</i>
   <i type="int" name="NMAXFOCKAE">     0</i>
   <i type="logical" name="LFOCKAEDFT"> F  </i>
   <i name="HFSCREEN">      0.00000000</i>
   <i name="HFSCREENC">      0.00000000</i>
  </separator>
  <separator name="vdW DFT" >
   <i type="logical" name="LUSE_VDW"> F  </i>
   <i name="Zab_VDW">     -0.84910000</i>
   <i name="PARAM1">      0.12340000</i>
   <i name="PARAM2">      1.00000000</i>
   <i name="PARAM3">      0.00000000</i>
  </separator>
  <separator name="model GW" >
   <i type="int" name="MODEL_GW">     0</i>
   <i name="MODEL_EPS0">     10.87940730</i>
   <i name="MODEL_ALPHA">      1.00000000</i>
  </separator>
  <separator name="linear response parameters" >
   <i type="logical" name="LEPSILON"> F  </i>
   <i type="logical" name="LRPA"> F  </i>
   <i type="logical" name="LNABLA"> F  </i>
   <i type="logical" name="LVEL"> F  </i>
   <i type="int" name="KINTER">     0</i>
   <i name="CSHIFT">      0.10000000</i>
   <i name="OMEGAMAX">     -1.00000000</i>
  </separator>
  <separator name="orbital magnetization" >
   <i type="logical" name="NUCIND"> F  </i>
   <v name="MAGPOS">      0.00000000      0.00000000      0.00000000</v>
   <i type="logical" name="LNICSALL"> T  </i>
   <i type="logical" name="ORBITALMAG"> F  </i>
   <i type="logical" name="LMAGBLOCH"> F  </i>
   <i type="logical" name="LCHIMAG"> F  </i>
   <i type="logical" name="LGAUGE"> T  </i>
   <i type="int" name="MAGATOM">     0</i>
   <v name="MAGDIPOL">      0.00000000      0.00000000      0.00000000</v>
   <v name="AVECCONST">      0.00000000      0.00000000      0.00000000</v>
  </separator>
  <separator name="response functions" >
   <i type="logical" name="LADDER"> F  </i>
   <i type="logical" name="LHARTREE"> T  </i>
   <i type="int" name="IBSE">     0</i>
   <i type="logical" name="LTCTE"> F  </i>
   <i type="logical" name="LTETE"> F  </i>
   <i type="logical" name="LFXCEPS"> F  </i>
   <i type="logical" name="L2ORDER"> F  </i>
   <i type="logical" name="LUSEW"> F  </i>
   <i name="ENCUTGW">     -2.00000000</i>
   <i name="ENCUTGWSOFT">     -2.00000000</i>
   <i name="ENCUTLF">     -1.00000000</i>
   <i type="int" name="LMAXMP2">    -1</i>
   <i name="SCISSOR">      0.00000000</i>
   <i type="int" name="NOMEGA">     0</i>
   <i type="int" name="NOMEGAR">     0</i>
   <i type="int" name="NBANDSGW">    -1</i>
   <i type="int" name="NBANDSO">    -1</i>
   <i type="int" name="NBANDSV">    -1</i>
   <i name="OPTEMAX">      0.00000000</i>
   <i type="int" name="NELM">     1</i>
   <i type="int" name="DIM">     3</i>
   <i type="int" name="ANTIRES">     0</i>
   <i name="OMEGAMAX">    -30.00000000</i>
   <i name="OMEGATL">   -200.00000000</i>
   <i type="int" name="OMEGAGRID">     0</i>
   <i name="CSHIFT">     -0.10000000</i>
   <i type="logical" name="SELFENERGY"> F  </i>
   <i type="logical" name="LSPECTRAL"> F  </i>
   <i type="logical" name="ODDONLYGW"> F  </i>
   <i type="logical" name="EVENONLYGW"> F  </i>
   <i type="int" name="NKREDLFX">     1</i>
   <i type="int" name="NKREDLFY">     1</i>
   <i type="int" name="NKREDLFZ">     1</i>
   <i type="int" name="MAXMEM">  1800</i>
   <i type="int" name="TELESCOPE">     0</i>
  </separator>
 </parameters>
 <atominfo>
  <atoms>       1 </atoms>
  <types>       1 </types>
  <array name="atoms" >
   <dimension dim="1">ion</dimension>
   <field type="string">element</field>
   <field type="int">atomtype</field>
   <set>
    <rc><c>Ta</c><c>   1</c></rc>
   </set>
  </array>
  <array name="atomtypes" >
   <dimension dim="1">type</dimension>
   <field type="int">atomspertype</field>
   <field type="string">element</field>
   <field>mass</field>
   <field>valence</field>
   <field type="string">pseudopotential</field>
   <set>
    <rc><c>   1</c><c>Ta</c><c>    180.94800000</c><c>      5.00000000</c><c>  PAW_PBE Ta 17Jan2003                  </c></rc>
   </set>
  </array>
 </atominfo>
 <structure name="initialpos" >
  <crystal>
   <varray name="basis" >
    <v>       2.86654409       0.00000000       0.00000000 </v>
    <v>      -0.95551470       2.70260368       0.00000000 </v>
    <v>      -0.95551470      -1.35130184       2.34052345 </v>
   </varray>
   <i name="volume">     18.13234550 </i>
   <varray name="rec_basis" >
    <v>       0.34885213       0.12333785       0.21362743 </v>
    <v>       0.00000000       0.37001356       0.21362743 </v>
    <v>       0.00000000       0.00000000       0.42725485 </v>
   </varray>
  </crystal>
  <varray name="positions" >
   <v>       0.00000000       0.00000000       0.00000000 </v>
  </varray>
 </structure>
 <calculation>
  <scstep>
   <time name="dav">    0.17    0.17</time>
   <time name="total">    0.20    0.20</time>
   <energy>
    <i name="alphaZ">     30.58334069 </i>
    <i name="ewald">   -197.90100875 </i>
    <i name="hartreedc">     -2.50452612 </i>
    <i name="XCdc">    -66.68582662 </i>
    <i name="pawpsdc">    148.27821850 </i>
    <i name="pawaedc">    -73.99089003 </i>
    <i name="eentropy">      0.00012652 </i>
    <i name="bandstr">     21.73904846 </i>
    <i name="atom">    129.62738067 </i>
    <i name="e_fr_energy">    -10.85413668 </i>
    <i name="e_wo_entrp">    -10.85426320 </i>
    <i name="e_0_energy">    -10.85417885 </i>
   </energy>
  </scstep>
  <scstep>
   <time name="dav">    0.19    0.24</time>
   <time name="total">    0.19    0.68</time>
   <energy>
    <i name="e_fr_energy">    -12.71080065 </i>
    <i name="e_wo_entrp">    -12.71050105 </i>
    <i name="e_0_energy">    -12.71070078 </i>
   </energy>
  </scstep>
  <scstep>
   <time name="dav">    0.16    0.28</time>
   <time name="total">    0.16    0.88</time>
   <energy>
    <i name="e_fr_energy">    -12.71707771 </i>
    <i name="e_wo_entrp">    -12.71696336 </i>
    <i name="e_0_energy">    -12.71703959 </i>
   </energy>
  </scstep>
  <scstep>
   <time name="dav">    0.21    0.22</time>
   <time name="total">    0.22    0.28</time>
   <energy>
    <i name="e_fr_energy">    -12.71709827 </i>
    <i name="e_wo_entrp">    -12.71698468 </i>
    <i name="e_0_energy">    -12.71706041 </i>
   </energy>
  </scstep>
  <scstep>
   <time name="dav">    0.13    0.13</time>
   <time name="total">    0.14    0.27</time>
   <energy>
    <i name="e_fr_energy">    -12.71709837 </i>
    <i name="e_wo_entrp">    -12.71698479 </i>
    <i name="e_0_energy">    -12.71706051 </i>
   </energy>
  </scstep>
  <scstep>
   <time name="dav">    0.23    0.40</time>
   <time name="total">    0.27    0.51</time>
   <energy>
    <i name="e_fr_energy">    -12.25186244 </i>
    <i name="e_wo_entrp">    -12.25107314 </i>
    <i name="e_0_energy">    -12.25159934 </i>
   </energy>
  </scstep>
  <scstep>
   <time name="dav">    0.15    0.15</time>
   <time name="total">    0.19    0.25</time>
   <energy>
    <i name="e_fr_energy">    -12.04592985 </i>
    <i name="e_wo_entrp">    -12.04572258 </i>
    <i name="e_0_energy">    -12.04586076 </i>
   </energy>
  </scstep>
  <scstep>
   <time name="dav">    0.14    0.14</time>
   <time name="total">    0.18    0.21</time>
   <energy>
    <i name="e_fr_energy">    -12.04544353 </i>
    <i name="e_wo_entrp">    -12.04518993 </i>
    <i name="e_0_energy">    -12.04535900 </i>
   </energy>
  </scstep>
  <scstep>
   <time name="dav">    0.12    0.28</time>
   <time name="total">    0.14    0.34</time>
   <energy>
    <i name="alphaZ">     30.58334069 </i>
    <i name="ewald">   -197.90100875 </i>
    <i name="hartreedc">     -0.42694139 </i>
    <i name="XCdc">    -65.85595886 </i>
    <i name="pawpsdc">    188.48330236 </i>
    <i name="pawaedc">   -115.05457960 </i>
    <i name="eentropy">     -0.00027527 </i>
    <i name="bandstr">     18.49930610 </i>
    <i name="atom">    129.62738067 </i>
    <i name="e_fr_energy">    -12.04543404 </i>
    <i name="e_wo_entrp">    -12.04515877 </i>
    <i name="e_0_energy">    -12.04534229 </i>
   </energy>
  </scstep>
  <parameters_embedded>
   <separator name="dft+d2" >
    <i type="logical" name="LVDW"> F  </i>
   </separator>
  </parameters_embedded>
  <structure>
   <crystal>
    <varray name="basis" >
     <v>       2.86654409       0.00000000       0.00000000 </v>
     <v>      -0.95551470       2.70260368       0.00000000 </v>
     <v>      -0.95551470      -1.35130184       2.34052345 </v>
    </varray>
    <i name="volume">     18.13234550 </i>
    <varray name="rec_basis" >
     <v>       0.34885213       0.12333785       0.21362743 </v>
     <v>       0.00000000       0.37001356       0.21362743 </v>
     <v>       0.00000000       0.00000000       0.42725485 </v>
    </varray>
   </crystal>
   <varray name="positions" >
    <v>       0.00000000       0.00000000       0.00000000 </v>
   </varray>
  </structure>
  <varray name="forces" >
   <v>       0.00000000       0.00000000       0.00000000 </v>
  </varray>
  <varray name="stress" >
   <v>    -319.76432805       0.00000000       0.00000000 </v>
   <v>       0.00000000    -319.76432805       0.00000000 </v>
   <v>       0.00000000       0.00000000    -319.76432805 </v>
  </varray>
  <energy>
   <i name="e_fr_energy">    -12.04543404 </i>
   <i name="e_wo_entrp">    -12.04534229 </i>
   <i name="e_0_energy">     -0.00027527 </i>
  </energy>
  <time name="totalsc">    1.92    4.40</time>
  <eigenvalues>
   <array>
    <dimension dim="1">band</dimension>
    <dimension dim="2">kpoint</dimension>
    <dimension dim="3">spin</dimension>
    <field>eigene</field>
    <field>occ</field>
    <set>
     <set comment="spin 1">
      <set comment="kpoint 1">
       <r>   -1.5330    1.0000 </r>
       <r>    6.2153    0.0000 </r>
       <r>    6.2153    0.0000 </r>
       <r>    7.2905    0.0000 </r>
       <r>    9.4173    0.0000 </r>
       <r>    9.4173    0.0000 </r>
      </set>
      <set comment="kpoint 2">
       <r>   -0.4087    1.0000 </r>
       <r>    5.5903    1.0000 </r>
       <r>    5.7738    0.8555 </r>
       <r>    8.7313    0.0000 </r>
       <r>    9.2690    0.0000 </r>
       <r>    9.9846    0.0000 </r>
      </set>
      <set comment="kpoint 3">
       <r>    0.9345    1.0000 </r>
       <r>    4.9302    1.0000 </r>
       <r>    5.4689    1.0000 </r>
       <r>    9.5092    0.0000 </r>
       <r>   10.3849    0.0000 </r>
       <r>   10.8329    0.0000 </r>
      </set>
      <set comment="kpoint 4">
       <r>    1.5724    1.0000 </r>
       <r>    4.4509    1.0000 </r>
       <r>    6.1498    0.0000 </r>
       <r>    9.8336    0.0000 </r>
       <r>   10.6335    0.0000 </r>
       <r>   12.8440    0.0000 </r>
      </set>
      <set comment="kpoint 5">
       <r>    1.6263    1.0000 </r>
       <r>    4.2610    1.0000 </r>
       <r>    6.9820    0.0000 </r>
       <r>    9.7507    0.0000 </r>
       <r>   10.7507    0.0000 </r>
       <r>   13.7898    0.0000 </r>
      </set>
      <set comment="kpoint 6">
       <r>   -1.9471    1.0000 </r>
       <r>    6.5355    0.0000 </r>
       <r>    6.5355    0.0000 </r>
       <r>    6.6735    0.0000 </r>
       <r>    9.2693    0.0000 </r>
       <r>    9.7616    0.0000 </r>
      </set>
      <set comment="kpoint 7">
       <r>    0.8644    1.0000 </r>
       <r>    5.1007    1.0000 </r>
       <r>    5.1260    1.0000 </r>
       <r>    9.4015    0.0000 </r>
       <r>   10.4238    0.0000 </r>
       <r>   10.7599    0.0000 </r>
      </set>
      <set comment="kpoint 8">
       <r>    2.0567    1.0000 </r>
       <r>    4.5420    1.0000 </r>
       <r>    5.1136    1.0000 </r>
       <r>    9.6692    0.0000 </r>
       <r>   10.6861    0.0000 </r>
       <r>   12.7845    0.0000 </r>
      </set>
      <set comment="kpoint 9">
       <r>    2.3356    1.0000 </r>
       <r>    4.3366    1.0000 </r>
       <r>    5.9705    0.0000 </r>
       <r>    9.8691    0.0000 </r>
       <r>   10.8386    0.0000 </r>
       <r>   14.6553    0.0000 </r>
      </set>
      <set comment="kpoint 10">
       <r>   -1.1308    1.0000 </r>
       <r>    6.1018    0.0000 </r>
       <r>    6.3507    0.0000 </r>
       <r>    7.4437    0.0000 </r>
       <r>    8.6454    0.0000 </r>
       <r>   10.2526    0.0000 </r>
      </set>
      <set comment="kpoint 11">
       <r>    3.0047    1.0000 </r>
       <r>    4.4010    1.0000 </r>
       <r>    5.0818    1.0000 </r>
       <r>   10.0338    0.0000 </r>
       <r>   10.7158    0.0000 </r>
       <r>   15.0519    0.0000 </r>
      </set>
      <set comment="kpoint 12">
       <r>    3.1856    1.0000 </r>
       <r>    4.4768    1.0000 </r>
       <r>    5.2868    1.0000 </r>
       <r>   10.2716    0.0000 </r>
       <r>   10.7936    0.0000 </r>
       <r>   14.4020    0.0000 </r>
      </set>
      <set comment="kpoint 13">
       <r>    0.1949    1.0000 </r>
       <r>    5.4202    1.0000 </r>
       <r>    5.7721    0.8745 </r>
       <r>    8.7365    0.0000 </r>
       <r>    9.1456    0.0000 </r>
       <r>   10.4712    0.0000 </r>
      </set>
      <set comment="kpoint 14">
       <r>   -0.0490    1.0000 </r>
       <r>    5.7852    0.7026 </r>
       <r>    5.8428   -0.0122 </r>
       <r>    8.1151    0.0000 </r>
       <r>    8.6112    0.0000 </r>
       <r>   10.6165    0.0000 </r>
      </set>
      <set comment="kpoint 15">
       <r>    1.2541    1.0000 </r>
       <r>    4.8461    1.0000 </r>
       <r>    5.7566    0.9946 </r>
       <r>    9.3897    0.0000 </r>
       <r>   10.6807    0.0000 </r>
       <r>   11.3685    0.0000 </r>
      </set>
      <set comment="kpoint 16">
       <r>    1.2633    1.0000 </r>
       <r>    5.1192    1.0000 </r>
       <r>    5.5076    1.0000 </r>
       <r>    8.5011    0.0000 </r>
       <r>   10.6158    0.0000 </r>
       <r>   10.9144    0.0000 </r>
      </set>
      <set comment="kpoint 17">
       <r>    1.5061    1.0000 </r>
       <r>    4.5059    1.0000 </r>
       <r>    6.7255    0.0000 </r>
       <r>    9.5944    0.0000 </r>
       <r>   11.0058    0.0000 </r>
       <r>   13.4174    0.0000 </r>
      </set>
      <set comment="kpoint 18">
       <r>    1.9413    1.0000 </r>
       <r>    4.7874    1.0000 </r>
       <r>    5.6696    1.0009 </r>
       <r>    9.0736    0.0000 </r>
       <r>   11.0093    0.0000 </r>
       <r>   12.9020    0.0000 </r>
      </set>
      <set comment="kpoint 19">
       <r>    2.4163    1.0000 </r>
       <r>    4.5190    1.0000 </r>
       <r>    5.4952    1.0000 </r>
       <r>    8.8225    0.0000 </r>
       <r>   10.7072    0.0000 </r>
       <r>   12.9362    0.0000 </r>
      </set>
      <set comment="kpoint 20">
       <r>    2.0048    1.0000 </r>
       <r>    4.6790    1.0000 </r>
       <r>    6.1472    0.0000 </r>
       <r>    9.0418    0.0000 </r>
       <r>   11.4052    0.0000 </r>
       <r>   14.1986    0.0000 </r>
      </set>
      <set comment="kpoint 21">
       <r>    2.8879    1.0000 </r>
       <r>    4.5024    1.0000 </r>
       <r>    5.2916    1.0000 </r>
       <r>    9.2712    0.0000 </r>
       <r>   10.8076    0.0000 </r>
       <r>   15.1938    0.0000 </r>
      </set>
      <set comment="kpoint 22">
       <r>    3.5736    1.0000 </r>
       <r>    4.5470    1.0000 </r>
       <r>    4.5470    1.0000 </r>
       <r>   10.3325    0.0000 </r>
       <r>   10.3325    0.0000 </r>
       <r>   14.7213    0.0000 </r>
      </set>
      <set comment="kpoint 23">
       <r>    2.2368    1.0000 </r>
       <r>    4.5426    1.0000 </r>
       <r>    4.5426    1.0000 </r>
       <r>   10.3434    0.0000 </r>
       <r>   10.3434    0.0000 </r>
       <r>   12.8228    0.0000 </r>
      </set>
      <set comment="kpoint 24">
       <r>    3.2166    1.0000 </r>
       <r>    4.3239    1.0000 </r>
       <r>    4.9012    1.0000 </r>
       <r>   10.4738    0.0000 </r>
       <r>   10.8097    0.0000 </r>
       <r>   15.1293    0.0000 </r>
      </set>
      <set comment="kpoint 25">
       <r>    3.2087    1.0000 </r>
       <r>    4.2441    1.0000 </r>
       <r>    5.6339    1.0000 </r>
       <r>   10.5247    0.0000 </r>
       <r>   10.9199    0.0000 </r>
       <r>   14.3905    0.0000 </r>
      </set>
      <set comment="kpoint 26">
       <r>   -0.3553    1.0000 </r>
       <r>    6.4789    0.0000 </r>
       <r>    6.4789    0.0000 </r>
       <r>    7.1753    0.0000 </r>
       <r>    7.4255    0.0000 </r>
       <r>   10.7868    0.0000 </r>
      </set>
      <set comment="kpoint 27">
       <r>    3.8611    1.0000 </r>
       <r>    4.4849    1.0000 </r>
       <r>    4.8836    1.0000 </r>
       <r>   10.7514    0.0000 </r>
       <r>   10.8861    0.0000 </r>
       <r>   13.6458    0.0000 </r>
      </set>
      <set comment="kpoint 28">
       <r>    0.9102    1.0000 </r>
       <r>    5.6763    1.0016 </r>
       <r>    6.2418    0.0000 </r>
       <r>    7.3856    0.0000 </r>
       <r>    8.8940    0.0000 </r>
       <r>   10.9926    0.0000 </r>
      </set>
      <set comment="kpoint 29">
       <r>    1.9895    1.0000 </r>
       <r>    5.0432    1.0000 </r>
       <r>    5.6982    1.0084 </r>
       <r>    8.1739    0.0000 </r>
       <r>   11.0487    0.0000 </r>
       <r>   11.0626    0.0000 </r>
      </set>
      <set comment="kpoint 30">
       <r>    2.0818    1.0000 </r>
       <r>    4.7325    1.0000 </r>
       <r>    6.3030    0.0000 </r>
       <r>    7.6700    0.0000 </r>
       <r>   10.2611    0.0000 </r>
       <r>   11.0509    0.0000 </r>
      </set>
      <set comment="kpoint 31">
       <r>    2.2303    1.0000 </r>
       <r>    5.3454    1.0000 </r>
       <r>    5.4090    1.0000 </r>
       <r>    8.2272    0.0000 </r>
       <r>   12.1737    0.0000 </r>
       <r>   13.1898    0.0000 </r>
      </set>
      <set comment="kpoint 32">
       <r>    2.8405    1.0000 </r>
       <r>    4.3178    1.0000 </r>
       <r>    5.9041   -0.0051 </r>
       <r>    8.2908    0.0000 </r>
       <r>   10.9238    0.0000 </r>
       <r>   13.1208    0.0000 </r>
      </set>
      <set comment="kpoint 33">
       <r>    2.8543    1.0000 </r>
       <r>    4.6755    1.0000 </r>
       <r>    5.4520    1.0000 </r>
       <r>    8.3052    0.0000 </r>
       <r>   12.0528    0.0000 </r>
       <r>   14.7721    0.0000 </r>
      </set>
      <set comment="kpoint 34">
       <r>    3.7315    1.0000 </r>
       <r>    3.8392    1.0000 </r>
       <r>    5.1352    1.0000 </r>
       <r>    9.4312    0.0000 </r>
       <r>   10.7808    0.0000 </r>
       <r>   15.4848    0.0000 </r>
      </set>
      <set comment="kpoint 35">
       <r>    4.4849    1.0000 </r>
       <r>    4.4849    1.0000 </r>
       <r>    4.4849    1.0000 </r>
       <r>   10.9271    0.0000 </r>
       <r>   10.9271    0.0000 </r>
       <r>   12.6979    0.0000 </r>
      </set>
      <set comment="kpoint 36">
       <r>    1.9874    1.0000 </r>
       <r>    4.9284    1.0000 </r>
       <r>    7.1962    0.0000 </r>
       <r>    7.1962    0.0000 </r>
       <r>    9.0024    0.0000 </r>
       <r>   10.8507    0.0000 </r>
      </set>
      <set comment="kpoint 37">
       <r>    2.8365    1.0000 </r>
       <r>    4.0423    1.0000 </r>
       <r>    7.1942    0.0000 </r>
       <r>    7.8253    0.0000 </r>
       <r>   10.7190    0.0000 </r>
       <r>   10.9608    0.0000 </r>
      </set>
      <set comment="kpoint 38">
       <r>    2.9416    1.0000 </r>
       <r>    3.8712    1.0000 </r>
       <r>    6.9759    0.0000 </r>
       <r>    7.6423    0.0000 </r>
       <r>   12.9152    0.0000 </r>
       <r>   12.9258    0.0000 </r>
      </set>
      <set comment="kpoint 39">
       <r>    3.1744    1.0000 </r>
       <r>    3.3038    1.0000 </r>
       <r>    6.9099    0.0000 </r>
       <r>    8.9243    0.0000 </r>
       <r>   10.9306    0.0000 </r>
       <r>   13.0450    0.0000 </r>
      </set>
      <set comment="kpoint 40">
       <r>    3.0102    1.0000 </r>
       <r>    3.3289    1.0000 </r>
       <r>    6.6475    0.0000 </r>
       <r>    9.4912    0.0000 </r>
       <r>   11.8328    0.0000 </r>
       <r>   15.3854    0.0000 </r>
      </set>
      <set comment="kpoint 41">
       <r>    2.9638    1.0000 </r>
       <r>    3.1244    1.0000 </r>
       <r>    8.7590    0.0000 </r>
       <r>    8.7590    0.0000 </r>
       <r>   10.8904    0.0000 </r>
       <r>   10.9832    0.0000 </r>
      </set>
      <set comment="kpoint 42">
       <r>    2.6372    1.0000 </r>
       <r>    2.7817    1.0000 </r>
       <r>    9.1668    0.0000 </r>
       <r>    9.2013    0.0000 </r>
       <r>   12.4809    0.0000 </r>
       <r>   13.1067    0.0000 </r>
      </set>
      <set comment="kpoint 43">
       <r>    2.4818    1.0000 </r>
       <r>    2.4818    1.0000 </r>
       <r>    9.0863    0.0000 </r>
       <r>   11.5834    0.0000 </r>
       <r>   11.5834    0.0000 </r>
       <r>   15.6627    0.0000 </r>
      </set>
      <set comment="kpoint 44">
       <r>    2.2019    1.0000 </r>
       <r>    2.2271    1.0000 </r>
       <r>   11.5111    0.0000 </r>
       <r>   11.5111    0.0000 </r>
       <r>   12.4733    0.0000 </r>
       <r>   13.5489    0.0000 </r>
      </set>
     </set>
    </set>
   </array>
  </eigenvalues>
  <separator name="orbital magnetization" >
   <v name="MAGDIPOLOUT">      0.00000000      0.00000000      0.00000000</v>
  </separator>
  <dos>
   <i name="efermi">      5.79755352 </i>
   <total>
    <array>
     <dimension dim="1">gridpoints</dimension>
     <dimension dim="2">spin</dimension>
     <field>energy</field>
     <field>total</field>
     <field>integrated</field>
     <set>
      <set comment="spin 1">
       <r>    -2.8276     0.0000     0.0000 </r>
       <r>    -2.7630     0.0000     0.0000 </r>
       <r>    -2.6984     0.0000     0.0000 </r>
       <r>    -2.6339     0.0000     0.0000 </r>
       <r>    -2.5693     0.0000     0.0000 </r>
       <r>    -2.5047     0.0000     0.0000 </r>
       <r>    -2.4402     0.0000     0.0000 </r>
       <r>    -2.3756     0.0000     0.0000 </r>
       <r>    -2.3110     0.0000     0.0000 </r>
       <r>    -2.2465     0.0000     0.0000 </r>
       <r>    -2.1819     0.0000     0.0000 </r>
       <r>    -2.1173     0.0000     0.0000 </r>
       <r>    -2.0528    -0.0010    -0.0001 </r>
       <r>    -1.9882     0.0019     0.0001 </r>
       <r>    -1.9236     0.1577     0.0102 </r>
       <r>    -1.8590     0.0303     0.0122 </r>
       <r>    -1.7945    -0.0030     0.0120 </r>
       <r>    -1.7299     0.0000     0.0120 </r>
       <r>    -1.6653    -0.0001     0.0120 </r>
       <r>    -1.6008    -0.0081     0.0115 </r>
       <r>    -1.5362     0.1189     0.0191 </r>
       <r>    -1.4716     0.1459     0.0286 </r>
       <r>    -1.4071    -0.0085     0.0280 </r>
       <r>    -1.3425    -0.0003     0.0280 </r>
       <r>    -1.2779    -0.0001     0.0280 </r>
       <r>    -1.2134    -0.0153     0.0270 </r>
       <r>    -1.1488     0.1762     0.0384 </r>
       <r>    -1.0842     0.5949     0.0768 </r>
       <r>    -1.0196    -0.0096     0.0762 </r>
       <r>    -0.9551    -0.0027     0.0760 </r>
       <r>    -0.8905     0.0000     0.0760 </r>
       <r>    -0.8259     0.0000     0.0760 </r>
       <r>    -0.7614     0.0000     0.0760 </r>
       <r>    -0.6968     0.0000     0.0760 </r>
       <r>    -0.6322     0.0000     0.0760 </r>
       <r>    -0.5677     0.0000     0.0760 </r>
       <r>    -0.5031    -0.0084     0.0755 </r>
       <r>    -0.4385     0.0656     0.0797 </r>
       <r>    -0.3740     0.6937     0.1245 </r>
       <r>    -0.3094     0.1872     0.1366 </r>
       <r>    -0.2448    -0.0081     0.1360 </r>
       <r>    -0.1802    -0.0012     0.1360 </r>
       <r>    -0.1157    -0.0247     0.1344 </r>
       <r>    -0.0511     0.3698     0.1583 </r>
       <r>     0.0135     0.4251     0.1857 </r>
       <r>     0.0780    -0.0273     0.1839 </r>
       <r>     0.1426    -0.0207     0.1826 </r>
       <r>     0.2072     0.5429     0.2176 </r>
       <r>     0.2717     0.2416     0.2332 </r>
       <r>     0.3363    -0.0191     0.2320 </r>
       <r>     0.4009    -0.0002     0.2320 </r>
       <r>     0.4654     0.0000     0.2320 </r>
       <r>     0.5300     0.0000     0.2320 </r>
       <r>     0.5946     0.0000     0.2320 </r>
       <r>     0.6592     0.0000     0.2320 </r>
       <r>     0.7237    -0.0002     0.2320 </r>
       <r>     0.7883    -0.0208     0.2306 </r>
       <r>     0.8529     0.2096     0.2442 </r>
       <r>     0.9174     1.2087     0.3222 </r>
       <r>     0.9820     0.8711     0.3785 </r>
       <r>     1.0466    -0.0355     0.3762 </r>
       <r>     1.1111    -0.0031     0.3760 </r>
       <r>     1.1757    -0.0422     0.3733 </r>
       <r>     1.2403     0.4729     0.4038 </r>
       <r>     1.3048     1.8156     0.5210 </r>
       <r>     1.3694    -0.0062     0.5206 </r>
       <r>     1.4340    -0.0321     0.5185 </r>
       <r>     1.4986     0.2784     0.5365 </r>
       <r>     1.5631     0.7569     0.5854 </r>
       <r>     1.6277     0.6944     0.6302 </r>
       <r>     1.6923     0.1655     0.6409 </r>
       <r>     1.7568    -0.0138     0.6400 </r>
       <r>     1.8214    -0.0030     0.6398 </r>
       <r>     1.8860    -0.0538     0.6364 </r>
       <r>     1.9505     1.0123     0.7017 </r>
       <r>     2.0151     1.8679     0.8223 </r>
       <r>     2.0797     1.9731     0.9497 </r>
       <r>     2.1442     0.6173     0.9896 </r>
       <r>     2.2088     0.2801     1.0077 </r>
       <r>     2.2734     1.0098     1.0729 </r>
       <r>     2.3379     0.8399     1.1271 </r>
       <r>     2.4025     0.9390     1.1877 </r>
       <r>     2.4671     0.6508     1.2298 </r>
       <r>     2.5317     0.3547     1.2527 </r>
       <r>     2.5962    -0.0049     1.2523 </r>
       <r>     2.6608     0.6288     1.2929 </r>
       <r>     2.7254     0.0887     1.2987 </r>
       <r>     2.7899     0.4041     1.3248 </r>
       <r>     2.8545     2.4843     1.4852 </r>
       <r>     2.9191     2.4030     1.6403 </r>
       <r>     2.9836     1.0583     1.7087 </r>
       <r>     3.0482     1.2812     1.7914 </r>
       <r>     3.1128     0.0189     1.7926 </r>
       <r>     3.1773     0.8947     1.8504 </r>
       <r>     3.2419     1.7811     1.9654 </r>
       <r>     3.3065     0.6424     2.0068 </r>
       <r>     3.3711     0.9722     2.0696 </r>
       <r>     3.4356    -0.0210     2.0683 </r>
       <r>     3.5002    -0.0113     2.0675 </r>
       <r>     3.5648     0.0945     2.0736 </r>
       <r>     3.6293     0.1636     2.0842 </r>
       <r>     3.6939     0.0146     2.0851 </r>
       <r>     3.7585     0.6207     2.1252 </r>
       <r>     3.8230     0.2942     2.1442 </r>
       <r>     3.8876     1.7955     2.2601 </r>
       <r>     3.9522     0.2637     2.2772 </r>
       <r>     4.0167     0.0744     2.2820 </r>
       <r>     4.0813     0.6397     2.3233 </r>
       <r>     4.1459     0.0114     2.3240 </r>
       <r>     4.2105    -0.0025     2.3239 </r>
       <r>     4.2750     0.5429     2.3589 </r>
       <r>     4.3396     2.8021     2.5398 </r>
       <r>     4.4042     1.5441     2.6395 </r>
       <r>     4.4687     1.4240     2.7315 </r>
       <r>     4.5333     4.7948     3.0411 </r>
       <r>     4.5979     2.0569     3.1739 </r>
       <r>     4.6624     0.2769     3.1918 </r>
       <r>     4.7270     1.4040     3.2824 </r>
       <r>     4.7916     1.2991     3.3663 </r>
       <r>     4.8561     1.2328     3.4459 </r>
       <r>     4.9207     1.8231     3.5636 </r>
       <r>     4.9853     0.7624     3.6128 </r>
       <r>     5.0499     0.3363     3.6346 </r>
       <r>     5.1144     3.4068     3.8545 </r>
       <r>     5.1790     3.0832     4.0536 </r>
       <r>     5.2436    -0.1802     4.0420 </r>
       <r>     5.3081     1.7924     4.1577 </r>
       <r>     5.3727     1.1620     4.2327 </r>
       <r>     5.4373     1.4768     4.3281 </r>
       <r>     5.5018     2.5917     4.4954 </r>
       <r>     5.5664     1.3502     4.5826 </r>
       <r>     5.6310     0.7343     4.6300 </r>
       <r>     5.6955     2.4000     4.7850 </r>
       <r>     5.7601     1.7789     4.8999 </r>
       <r>     5.8247     2.1670     5.0398 </r>
       <r>     5.8893     0.9355     5.1002 </r>
       <r>     5.9538     1.4996     5.1970 </r>
       <r>     6.0184     1.1175     5.2692 </r>
       <r>     6.0830     0.0877     5.2748 </r>
       <r>     6.1475     1.3425     5.3615 </r>
       <r>     6.2121     1.1086     5.4331 </r>
       <r>     6.2767     0.9649     5.4954 </r>
       <r>     6.3412     0.9369     5.5559 </r>
       <r>     6.4058     0.5151     5.5892 </r>
       <r>     6.4704     0.1035     5.5959 </r>
       <r>     6.5349     0.4424     5.6244 </r>
       <r>     6.5995     0.1719     5.6355 </r>
       <r>     6.6641     0.6139     5.6752 </r>
       <r>     6.7287     0.7564     5.7240 </r>
       <r>     6.7932     0.3333     5.7455 </r>
       <r>     6.8578    -0.0466     5.7425 </r>
       <r>     6.9224     0.5103     5.7755 </r>
       <r>     6.9869     0.9993     5.8400 </r>
       <r>     7.0515     0.4037     5.8661 </r>
       <r>     7.1161    -0.0649     5.8619 </r>
       <r>     7.1806     0.4422     5.8904 </r>
       <r>     7.2452     0.9231     5.9500 </r>
       <r>     7.3098     0.1494     5.9597 </r>
       <r>     7.3743     0.2773     5.9776 </r>
       <r>     7.4389     1.0019     6.0423 </r>
       <r>     7.5035     0.4928     6.0741 </r>
       <r>     7.5681    -0.0576     6.0704 </r>
       <r>     7.6326     0.2958     6.0895 </r>
       <r>     7.6972     1.1605     6.1644 </r>
       <r>     7.7618     0.0408     6.1670 </r>
       <r>     7.8263     0.3992     6.1928 </r>
       <r>     7.8909     0.3848     6.2177 </r>
       <r>     7.9555    -0.0251     6.2160 </r>
       <r>     8.0200    -0.0086     6.2155 </r>
       <r>     8.0846     0.0530     6.2189 </r>
       <r>     8.1492     0.7435     6.2669 </r>
       <r>     8.2137     0.8579     6.3223 </r>
       <r>     8.2783     1.1301     6.3953 </r>
       <r>     8.3429     1.7117     6.5058 </r>
       <r>     8.4075    -0.0367     6.5034 </r>
       <r>     8.4720     0.1401     6.5125 </r>
       <r>     8.5366     1.2768     6.5949 </r>
       <r>     8.6012     0.3319     6.6163 </r>
       <r>     8.6657     1.0667     6.6852 </r>
       <r>     8.7303     0.8607     6.7408 </r>
       <r>     8.7949     1.2736     6.8230 </r>
       <r>     8.8594     0.6251     6.8634 </r>
       <r>     8.9240     1.0601     6.9318 </r>
       <r>     8.9886     0.4690     6.9621 </r>
       <r>     9.0531     0.9443     7.0231 </r>
       <r>     9.1177     1.7446     7.1357 </r>
       <r>     9.1823     1.3417     7.2224 </r>
       <r>     9.2469     1.2175     7.3010 </r>
       <r>     9.3114     1.9870     7.4293 </r>
       <r>     9.3760     0.3285     7.4505 </r>
       <r>     9.4406     2.0734     7.5844 </r>
       <r>     9.5051     1.2504     7.6651 </r>
       <r>     9.5697     0.7339     7.7125 </r>
       <r>     9.6343     0.6638     7.7554 </r>
       <r>     9.6988     1.2973     7.8391 </r>
       <r>     9.7634     0.4846     7.8704 </r>
       <r>     9.8280     0.5348     7.9050 </r>
       <r>     9.8925     1.7037     8.0150 </r>
       <r>     9.9571     0.2845     8.0333 </r>
       <r>    10.0217     0.8655     8.0892 </r>
       <r>    10.0863     0.5660     8.1258 </r>
       <r>    10.1508    -0.0350     8.1235 </r>
       <r>    10.2154    -0.0098     8.1229 </r>
       <r>    10.2800     1.7140     8.2335 </r>
       <r>    10.3445     1.1702     8.3091 </r>
       <r>    10.4091     1.1683     8.3845 </r>
       <r>    10.4737     1.4665     8.4792 </r>
       <r>    10.5382     0.9499     8.5406 </r>
       <r>    10.6028     0.7572     8.5894 </r>
       <r>    10.6674     2.8101     8.7709 </r>
       <r>    10.7319     3.7170     9.0109 </r>
       <r>    10.7965     3.9426     9.2655 </r>
       <r>    10.8611     4.2201     9.5380 </r>
       <r>    10.9257     3.5864     9.7695 </r>
       <r>    10.9902     3.5214     9.9969 </r>
       <r>    11.0548     3.4391    10.2190 </r>
       <r>    11.1194     1.0892    10.2893 </r>
       <r>    11.1839    -0.0801    10.2841 </r>
       <r>    11.2485    -0.0033    10.2839 </r>
       <r>    11.3131    -0.0327    10.2818 </r>
       <r>    11.3776     0.5946    10.3202 </r>
       <r>    11.4422     0.9153    10.3793 </r>
       <r>    11.5068     0.1625    10.3898 </r>
       <r>    11.5713     0.3829    10.4145 </r>
       <r>    11.6359     0.3478    10.4370 </r>
       <r>    11.7005    -0.0144    10.4360 </r>
       <r>    11.7651    -0.0254    10.4344 </r>
       <r>    11.8296     0.3564    10.4574 </r>
       <r>    11.8942     0.4380    10.4857 </r>
       <r>    11.9588    -0.0341    10.4835 </r>
       <r>    12.0233     0.0707    10.4881 </r>
       <r>    12.0879     0.6379    10.5293 </r>
       <r>    12.1525     0.1777    10.5407 </r>
       <r>    12.2170     0.6121    10.5802 </r>
       <r>    12.2816    -0.0003    10.5802 </r>
       <r>    12.3462    -0.0040    10.5800 </r>
       <r>    12.4107    -0.0296    10.5781 </r>
       <r>    12.4753     0.4307    10.6059 </r>
       <r>    12.5399     0.5610    10.6421 </r>
       <r>    12.6045    -0.0320    10.6400 </r>
       <r>    12.6690     0.0014    10.6401 </r>
       <r>    12.7336     0.0113    10.6408 </r>
       <r>    12.7982     1.1326    10.7140 </r>
       <r>    12.8627     1.2259    10.7931 </r>
       <r>    12.9273     2.6519    10.9644 </r>
       <r>    12.9919     1.2988    11.0482 </r>
       <r>    13.0564     0.3771    11.0726 </r>
       <r>    13.1210     1.5902    11.1752 </r>
       <r>    13.1856     1.3291    11.2611 </r>
       <r>    13.2501     0.3828    11.2858 </r>
       <r>    13.3147    -0.0317    11.2837 </r>
       <r>    13.3793     0.0190    11.2850 </r>
       <r>    13.4439     0.6422    11.3264 </r>
       <r>    13.5084     0.0976    11.3327 </r>
       <r>    13.5730     0.1266    11.3409 </r>
       <r>    13.6376     0.3207    11.3616 </r>
       <r>    13.7021     0.4897    11.3932 </r>
       <r>    13.7667     0.0386    11.3957 </r>
       <r>    13.8313     0.3130    11.4159 </r>
       <r>    13.8958     0.0030    11.4161 </r>
       <r>    13.9604    -0.0020    11.4160 </r>
       <r>    14.0250     0.0000    11.4160 </r>
       <r>    14.0895    -0.0032    11.4158 </r>
       <r>    14.1541    -0.0040    11.4155 </r>
       <r>    14.2187     0.6102    11.4549 </r>
       <r>    14.2833     0.1511    11.4647 </r>
       <r>    14.3478    -0.0352    11.4624 </r>
       <r>    14.4124     0.8341    11.5163 </r>
       <r>    14.4770     0.3324    11.5377 </r>
       <r>    14.5415    -0.0312    11.5357 </r>
       <r>    14.6061    -0.0312    11.5337 </r>
       <r>    14.6707     1.1345    11.6070 </r>
       <r>    14.7352     0.6227    11.6472 </r>
       <r>    14.7998     0.6872    11.6915 </r>
       <r>    14.8644     0.0784    11.6966 </r>
       <r>    14.9289    -0.0105    11.6959 </r>
       <r>    14.9935    -0.0253    11.6943 </r>
       <r>    15.0581     0.4513    11.7234 </r>
       <r>    15.1227     0.5849    11.7612 </r>
       <r>    15.1872     1.0833    11.8312 </r>
       <r>    15.2518     0.9327    11.8914 </r>
       <r>    15.3164    -0.0744    11.8866 </r>
       <r>    15.3809     0.3325    11.9080 </r>
       <r>    15.4455     0.4693    11.9384 </r>
       <r>    15.5101     0.6135    11.9780 </r>
       <r>    15.5746     0.1004    11.9844 </r>
       <r>    15.6392     0.0296    11.9864 </r>
       <r>    15.7038     0.2102    11.9999 </r>
       <r>    15.7683     0.0025    12.0001 </r>
       <r>    15.8329    -0.0013    12.0000 </r>
       <r>    15.8975     0.0000    12.0000 </r>
       <r>    15.9621     0.0000    12.0000 </r>
       <r>    16.0266     0.0000    12.0000 </r>
       <r>    16.0912     0.0000    12.0000 </r>
       <r>    16.1558     0.0000    12.0000 </r>
       <r>    16.2203     0.0000    12.0000 </r>
       <r>    16.2849     0.0000    12.0000 </r>
       <r>    16.3495     0.0000    12.0000 </r>
       <r>    16.4140     0.0000    12.0000 </r>
       <r>    16.4786     0.0000    12.0000 </r>
       <r>    16.5432     0.0000    12.0000 </r>
      </set>
     </set>
    </array>
   </total>
  </dos>
 </calculation>
 <structure name="finalpos" >
  <crystal>
   <varray name="basis" >
    <v>       2.86654409       0.00000000       0.00000000 </v>
    <v>      -0.95551470       2.70260368       0.00000000 </v>
    <v>      -0.95551470      -1.35130184       2.34052345 </v>
   </varray>
   <i name="volume">     18.13234550 </i>
   <varray name="rec_basis" >
    <v>       0.34885213       0.12333785       0.21362743 </v>
    <v>       0.00000000       0.37001356       0.21362743 </v>
    <v>       0.00000000       0.00000000       0.42725485 </v>
   </varray>
  </crystal>
  <varray name="positions" >
   <v>       0.00000000       0.00000000       0.00000000 </v>
  </varray>
 </structure>
</modeling>
