<?xml version="1.0" encoding="ISO-8859-1"?>
<modeling>
 <generator>
  <i name="program" type="string">vasp </i>
  <i name="version" type="string">5.2.12  </i>
  <i name="subversion" type="string">11Nov11 complex                                                      parallel </i>
  <i name="platform" type="string">LinuxIFC </i>
  <i name="date" type="string">2012 10 17 </i>
  <i name="time" type="string">10:12:37 </i>
 </generator>
 <incar>
  <i type="int" name="ISTART">     0</i>
  <i type="string" name="PREC">accurate</i>
  <i type="int" name="ISPIN">     2</i>
  <i name="ENCUT">    150.00000000</i>
  <i type="int" name="NBANDS">     6</i>
  <v name="MAGMOM">      6.00000000</v>
  <i type="logical" name="LREAL"> F  </i>
  <i type="int" name="ISMEAR">     1</i>
  <i name="SIGMA">      0.05000000</i>
  <i type="logical" name="LORBIT"> F  </i>
 </incar>
 <kpoints>
  <generation param="Monkhorst-Pack">
   <v type="int" name="divisions">      10       10       10 </v>
   <v name="usershift">      0.00000000       0.00000000       0.00000000 </v>
   <v name="genvec1">      0.10000000       0.00000000       0.00000000 </v>
   <v name="genvec2">      0.00000000       0.10000000       0.00000000 </v>
   <v name="genvec3">      0.00000000       0.00000000       0.10000000 </v>
   <v name="shift">      0.50000000       0.50000000       0.50000000 </v>
  </generation>
  <varray name="kpointlist" >
   <v>       0.05000000       0.05000000       0.05000000 </v>
   <v>       0.15000000       0.05000000       0.05000000 </v>
   <v>       0.25000000       0.05000000       0.05000000 </v>
   <v>       0.35000000       0.05000000       0.05000000 </v>
   <v>       0.45000000       0.05000000       0.05000000 </v>
   <v>      -0.05000000       0.05000000       0.05000000 </v>
   <v>       0.15000000       0.15000000       0.05000000 </v>
   <v>       0.25000000       0.15000000       0.05000000 </v>
   <v>       0.35000000       0.15000000       0.05000000 </v>
   <v>      -0.15000000       0.15000000       0.05000000 </v>
   <v>       0.25000000       0.25000000       0.05000000 </v>
   <v>       0.35000000       0.25000000       0.05000000 </v>
   <v>      -0.25000000       0.25000000       0.05000000 </v>
   <v>      -0.15000000       0.25000000       0.05000000 </v>
   <v>      -0.35000000       0.35000000       0.05000000 </v>
   <v>      -0.25000000       0.35000000       0.05000000 </v>
   <v>      -0.45000000       0.45000000       0.05000000 </v>
   <v>      -0.35000000       0.45000000       0.05000000 </v>
   <v>      -0.25000000       0.45000000       0.05000000 </v>
   <v>      -0.45000000      -0.45000000       0.05000000 </v>
   <v>      -0.35000000      -0.45000000       0.05000000 </v>
   <v>      -0.35000000      -0.35000000       0.05000000 </v>
   <v>       0.15000000       0.15000000       0.15000000 </v>
   <v>       0.25000000       0.15000000       0.15000000 </v>
   <v>       0.35000000       0.15000000       0.15000000 </v>
   <v>      -0.15000000       0.15000000       0.15000000 </v>
   <v>       0.25000000       0.25000000       0.15000000 </v>
   <v>      -0.25000000       0.25000000       0.15000000 </v>
   <v>      -0.35000000       0.35000000       0.15000000 </v>
   <v>      -0.25000000       0.35000000       0.15000000 </v>
   <v>      -0.45000000       0.45000000       0.15000000 </v>
   <v>      -0.35000000       0.45000000       0.15000000 </v>
   <v>      -0.45000000      -0.45000000       0.15000000 </v>
   <v>      -0.35000000      -0.45000000       0.15000000 </v>
   <v>       0.25000000       0.25000000       0.25000000 </v>
   <v>      -0.25000000       0.25000000       0.25000000 </v>
   <v>      -0.35000000       0.35000000       0.25000000 </v>
   <v>      -0.45000000       0.45000000       0.25000000 </v>
   <v>      -0.35000000       0.45000000       0.25000000 </v>
   <v>      -0.45000000      -0.45000000       0.25000000 </v>
   <v>      -0.35000000       0.35000000       0.35000000 </v>
   <v>      -0.45000000       0.45000000       0.35000000 </v>
   <v>      -0.45000000      -0.45000000       0.35000000 </v>
   <v>      -0.45000000       0.45000000       0.45000000 </v>
  </varray>
  <varray name="weights" >
   <v>       0.00800000 </v>
   <v>       0.02400000 </v>
   <v>       0.02400000 </v>
   <v>       0.02400000 </v>
   <v>       0.01200000 </v>
   <v>       0.00600000 </v>
   <v>       0.02400000 </v>
   <v>       0.04800000 </v>
   <v>       0.04800000 </v>
   <v>       0.02400000 </v>
   <v>       0.02400000 </v>
   <v>       0.02400000 </v>
   <v>       0.02400000 </v>
   <v>       0.02400000 </v>
   <v>       0.02400000 </v>
   <v>       0.04800000 </v>
   <v>       0.02400000 </v>
   <v>       0.04800000 </v>
   <v>       0.02400000 </v>
   <v>       0.02400000 </v>
   <v>       0.04800000 </v>
   <v>       0.00800000 </v>
   <v>       0.00800000 </v>
   <v>       0.02400000 </v>
   <v>       0.01200000 </v>
   <v>       0.00600000 </v>
   <v>       0.02400000 </v>
   <v>       0.02400000 </v>
   <v>       0.02400000 </v>
   <v>       0.02400000 </v>
   <v>       0.02400000 </v>
   <v>       0.04800000 </v>
   <v>       0.02400000 </v>
   <v>       0.02400000 </v>
   <v>       0.00200000 </v>
   <v>       0.00600000 </v>
   <v>       0.02400000 </v>
   <v>       0.02400000 </v>
   <v>       0.02400000 </v>
   <v>       0.02400000 </v>
   <v>       0.00600000 </v>
   <v>       0.02400000 </v>
   <v>       0.00800000 </v>
   <v>       0.00600000 </v>
  </varray>
 </kpoints>
 <parameters>
  <separator name="general" >
   <i type="string" name="SYSTEM">unknown system</i>
   <i type="logical" name="LCOMPAT"> F  </i>
  </separator>
  <separator name="electronic" >
   <i type="string" name="PREC">accura</i>
   <i name="ENMAX">    150.00000000</i>
   <i name="ENAUG">    332.07500000</i>
   <i name="EDIFF">      0.00010000</i>
   <i type="int" name="IALGO">    38</i>
   <i type="int" name="IWAVPR">    10</i>
   <i type="int" name="NBANDS">     6</i>
   <i name="NELECT">      5.00000000</i>
   <i type="int" name="TURBO">     0</i>
   <i type="int" name="IRESTART">     0</i>
   <i type="int" name="NREBOOT">     0</i>
   <i type="int" name="NMIN">     0</i>
   <i name="EREF">      0.00000000</i>
   <separator name="electronic smearing" >
    <i type="int" name="ISMEAR">     1</i>
    <i name="SIGMA">      0.05000000</i>
    <i name="KSPACING">      0.50000000</i>
    <i type="logical" name="KGAMMA"> T  </i>
   </separator>
   <separator name="electronic projectors" >
    <i type="logical" name="LREAL"> F  </i>
    <v name="ROPT">      0.00000000</v>
    <i type="int" name="LMAXPAW">  -100</i>
    <i type="int" name="LMAXMIX">     2</i>
    <i type="logical" name="NLSPLINE"> F  </i>
   </separator>
   <separator name="electronic startup" >
    <i type="int" name="ISTART">     0</i>
    <i type="int" name="ICHARG">     2</i>
    <i type="int" name="INIWAV">     1</i>
   </separator>
   <separator name="electronic spin" >
    <i type="int" name="ISPIN">     2</i>
    <i type="logical" name="LNONCOLLINEAR"> F  </i>
    <v name="MAGMOM">      6.00000000</v>
    <i name="NUPDOWN">     -1.00000000</i>
    <i type="logical" name="LSORBIT"> F  </i>
    <v name="SAXIS">      0.00000000      0.00000000      1.00000000</v>
    <i type="logical" name="LSPIRAL"> F  </i>
    <v name="QSPIRAL">      0.00000000      0.00000000      0.00000000</v>
    <i type="logical" name="LZEROZ"> F  </i>
   </separator>
   <separator name="electronic exchange-correlation" >
    <i type="logical" name="LASPH"> F  </i>
    <i type="logical" name="LMETAGGA"> F  </i>
   </separator>
   <separator name="electronic convergence" >
    <i type="int" name="NELM">    60</i>
    <i type="int" name="NELMDL">    -5</i>
    <i type="int" name="NELMIN">     2</i>
    <i name="ENINI">    150.00000000</i>
    <separator name="electronic convergence detail" >
     <i type="logical" name="LDIAG"> T  </i>
     <i type="logical" name="LSUBROT"> T  </i>
     <i name="WEIMIN">      0.00000000</i>
     <i name="EBREAK">      0.00000417</i>
     <i name="DEPER">      0.30000000</i>
     <i type="int" name="NRMM">     4</i>
     <i name="TIME">      0.40000000</i>
    </separator>
   </separator>
   <separator name="electronic mixer" >
    <i name="AMIX">      0.40000000</i>
    <i name="BMIX">      1.00000000</i>
    <i name="AMIN">      0.10000000</i>
    <i name="AMIX_MAG">      1.60000000</i>
    <i name="BMIX_MAG">      1.00000000</i>
    <separator name="electronic mixer details" >
     <i type="int" name="IMIX">     4</i>
     <i type="int" name="MAXMIX">   -45</i>
     <i name="WC">    100.00000000</i>
     <i type="int" name="INIMIX">     1</i>
     <i type="int" name="MIXPRE">     1</i>
     <i type="int" name="MREMOVE">     5</i>
    </separator>
   </separator>
   <separator name="electronic dipolcorrection" >
    <i type="logical" name="LDIPOL"> F  </i>
    <i type="logical" name="LMONO"> F  </i>
    <i type="int" name="IDIPOL">     0</i>
    <i name="EPSILON">      1.00000000</i>
    <v name="DIPOL">   -100.00000000   -100.00000000   -100.00000000</v>
    <i name="EFIELD">      0.00000000</i>
   </separator>
  </separator>
  <separator name="grids" >
   <i type="int" name="NGX">    12</i>
   <i type="int" name="NGY">    12</i>
   <i type="int" name="NGZ">    12</i>
   <i type="int" name="NGXF">    24</i>
   <i type="int" name="NGYF">    24</i>
   <i type="int" name="NGZF">    24</i>
   <i type="logical" name="ADDGRID"> F  </i>
  </separator>
  <separator name="ionic" >
   <i type="int" name="NSW">     0</i>
   <i type="int" name="IBRION">    -1</i>
   <i type="int" name="ISIF">     2</i>
   <i name="PSTRESS">      0.00000000</i>
   <i name="EDIFFG">      0.00100000</i>
   <i type="int" name="NFREE">     0</i>
   <i name="POTIM">      0.50000000</i>
   <i name="SMASS">     -3.00000000</i>
   <i name="SCALEE">      1.00000000</i>
  </separator>
  <separator name="ionic md" >
   <i name="TEBEG">      0.00010000</i>
   <i name="TEEND">      0.00010000</i>
   <i type="int" name="NBLOCK">     1</i>
   <i type="int" name="KBLOCK">     1</i>
   <i type="int" name="NPACO">   256</i>
   <i name="APACO">     16.00000000</i>
  </separator>
  <separator name="symmetry" >
   <i type="int" name="ISYM">     2</i>
   <i name="SYMPREC">      0.00001000</i>
  </separator>
  <separator name="dos" >
   <i type="logical" name="LORBIT"> F  </i>
   <v name="RWIGS">     -1.00000000</v>
   <i type="int" name="NEDOS">   301</i>
   <i name="EMIN">     10.00000000</i>
   <i name="EMAX">    -10.00000000</i>
   <i name="EFERMI">      0.00000000</i>
  </separator>
  <separator name="writing" >
   <i type="int" name="NWRITE">     2</i>
   <i type="logical" name="LWAVE"> T  </i>
   <i type="logical" name="LCHARG"> T  </i>
   <i type="logical" name="LPARD"> F  </i>
   <i type="logical" name="LVTOT"> F  </i>
   <i type="logical" name="LVHAR"> F  </i>
   <i type="logical" name="LELF"> F  </i>
   <i type="logical" name="LOPTICS"> F  </i>
   <v name="STM">      0.00000000      0.00000000      0.00000000      0.00000000      0.00000000      0.00000000      0.00000000</v>
  </separator>
  <separator name="performance" >
   <i type="int" name="NPAR">     1</i>
   <i type="int" name="NSIM">     4</i>
   <i type="int" name="NBLK">    -1</i>
   <i type="logical" name="LPLANE"> T  </i>
   <i type="logical" name="LSCALAPACK"> F  </i>
   <i type="logical" name="LSCAAWARE"> F  </i>
   <i type="logical" name="LSCALU"> F  </i>
   <i type="logical" name="LASYNC"> F  </i>
   <i type="logical" name="LORBITALREAL"> F  </i>
  </separator>
  <separator name="miscellaneous" >
   <i type="int" name="IDIOT">     3</i>
   <i type="logical" name="LMUSIC"> F  </i>
   <v name="POMASS">    180.94800000</v>
   <v name="DARWINR">      0.00000000</v>
   <v name="DARWINV">      1.00000000</v>
   <i type="logical" name="LCORR"> T  </i>
  </separator>
  <i type="logical" name="GGA_COMPAT"> T  </i>
  <i type="logical" name="LBERRY"> F  </i>
  <i type="int" name="ICORELEVEL">     0</i>
  <i type="logical" name="LDAU"> F  </i>
  <i type="int" name="I_CONSTRAINED_M">     0</i>
  <separator name="electronic exchange-correlation" >
   <i type="string" name="GGA">--</i>
   <i type="int" name="VOSKOWN">     0</i>
   <i type="logical" name="LHFCALC"> F  </i>
   <i type="string" name="PRECFOCK"></i>
   <i type="logical" name="LHFONE"> F  </i>
   <i type="logical" name="LRHFCALC"> F  </i>
   <i type="logical" name="LTHOMAS"> F  </i>
   <i type="logical" name="LMODELHF"> F  </i>
   <i name="ENCUT4O">     -1.00000000</i>
   <i type="int" name="EXXOEP">     0</i>
   <i type="int" name="FOURORBIT">     0</i>
   <i name="AEXX">      0.00000000</i>
   <i name="HFALPHA">      0.00000000</i>
   <i name="ALDAX">      1.00000000</i>
   <i name="AGGAX">      1.00000000</i>
   <i name="ALDAC">      1.00000000</i>
   <i name="AGGAC">      1.00000000</i>
   <i type="int" name="NKREDX">     1</i>
   <i type="int" name="NKREDY">     1</i>
   <i type="int" name="NKREDZ">     1</i>
   <i type="logical" name="SHIFTRED"> F  </i>
   <i type="logical" name="ODDONLY"> F  </i>
   <i type="logical" name="EVENONLY"> F  </i>
   <i type="int" name="LMAXFOCK">     0</i>
   <i type="int" name="NMAXFOCKAE">     0</i>
   <i type="logical" name="LFOCKAEDFT"> F  </i>
   <i name="HFSCREEN">      0.00000000</i>
   <i name="HFSCREENC">      0.00000000</i>
  </separator>
  <separator name="vdW DFT" >
   <i type="logical" name="LUSE_VDW"> F  </i>
   <i name="Zab_VDW">     -0.84910000</i>
   <i name="PARAM1">      0.12340000</i>
   <i name="PARAM2">      1.00000000</i>
   <i name="PARAM3">      0.00000000</i>
  </separator>
  <separator name="model GW" >
   <i type="int" name="MODEL_GW">     0</i>
   <i name="MODEL_EPS0">     10.87940730</i>
   <i name="MODEL_ALPHA">      1.00000000</i>
  </separator>
  <separator name="linear response parameters" >
   <i type="logical" name="LEPSILON"> F  </i>
   <i type="logical" name="LRPA"> F  </i>
   <i type="logical" name="LNABLA"> F  </i>
   <i type="logical" name="LVEL"> F  </i>
   <i type="int" name="KINTER">     0</i>
   <i name="CSHIFT">      0.10000000</i>
   <i name="OMEGAMAX">     -1.00000000</i>
  </separator>
  <separator name="orbital magnetization" >
   <i type="logical" name="NUCIND"> F  </i>
   <v name="MAGPOS">      0.00000000      0.00000000      0.00000000</v>
   <i type="logical" name="LNICSALL"> T  </i>
   <i type="logical" name="ORBITALMAG"> F  </i>
   <i type="logical" name="LMAGBLOCH"> F  </i>
   <i type="logical" name="LCHIMAG"> F  </i>
   <i type="logical" name="LGAUGE"> T  </i>
   <i type="int" name="MAGATOM">     0</i>
   <v name="MAGDIPOL">      0.00000000      0.00000000      0.00000000</v>
   <v name="AVECCONST">      0.00000000      0.00000000      0.00000000</v>
  </separator>
  <separator name="response functions" >
   <i type="logical" name="LADDER"> F  </i>
   <i type="logical" name="LHARTREE"> T  </i>
   <i type="int" name="IBSE">     0</i>
   <i type="logical" name="LTCTE"> F  </i>
   <i type="logical" name="LTETE"> F  </i>
   <i type="logical" name="LFXCEPS"> F  </i>
   <i type="logical" name="L2ORDER"> F  </i>
   <i type="logical" name="LUSEW"> F  </i>
   <i name="ENCUTGW">     -2.00000000</i>
   <i name="ENCUTGWSOFT">     -2.00000000</i>
   <i name="ENCUTLF">     -1.00000000</i>
   <i type="int" name="LMAXMP2">    -1</i>
   <i name="SCISSOR">      0.00000000</i>
   <i type="int" name="NOMEGA">     0</i>
   <i type="int" name="NOMEGAR">     0</i>
   <i type="int" name="NBANDSGW">    -1</i>
   <i type="int" name="NBANDSO">    -1</i>
   <i type="int" name="NBANDSV">    -1</i>
   <i name="OPTEMAX">      0.00000000</i>
   <i type="int" name="NELM">     1</i>
   <i type="int" name="DIM">     3</i>
   <i type="int" name="ANTIRES">     0</i>
   <i name="OMEGAMAX">    -30.00000000</i>
   <i name="OMEGATL">   -200.00000000</i>
   <i type="int" name="OMEGAGRID">     0</i>
   <i name="CSHIFT">     -0.10000000</i>
   <i type="logical" name="SELFENERGY"> F  </i>
   <i type="logical" name="LSPECTRAL"> F  </i>
   <i type="logical" name="ODDONLYGW"> F  </i>
   <i type="logical" name="EVENONLYGW"> F  </i>
   <i type="int" name="NKREDLFX">     1</i>
   <i type="int" name="NKREDLFY">     1</i>
   <i type="int" name="NKREDLFZ">     1</i>
   <i type="int" name="MAXMEM">  1800</i>
   <i type="int" name="TELESCOPE">     0</i>
  </separator>
 </parameters>
 <atominfo>
  <atoms>       1 </atoms>
  <types>       1 </types>
  <array name="atoms" >
   <dimension dim="1">ion</dimension>
   <field type="string">element</field>
   <field type="int">atomtype</field>
   <set>
    <rc><c>Ta</c><c>   1</c></rc>
   </set>
  </array>
  <array name="atomtypes" >
   <dimension dim="1">type</dimension>
   <field type="int">atomspertype</field>
   <field type="string">element</field>
   <field>mass</field>
   <field>valence</field>
   <field type="string">pseudopotential</field>
   <set>
    <rc><c>   1</c><c>Ta</c><c>    180.94800000</c><c>      5.00000000</c><c>  PAW_PBE Ta 17Jan2003                  </c></rc>
   </set>
  </array>
 </atominfo>
 <structure name="initialpos" >
  <crystal>
   <varray name="basis" >
    <v>       2.86654409       0.00000000       0.00000000 </v>
    <v>      -0.95551470       2.70260368       0.00000000 </v>
    <v>      -0.95551470      -1.35130184       2.34052345 </v>
   </varray>
   <i name="volume">     18.13234550 </i>
   <varray name="rec_basis" >
    <v>       0.34885213       0.12333785       0.21362743 </v>
    <v>       0.00000000       0.37001356       0.21362743 </v>
    <v>       0.00000000       0.00000000       0.42725485 </v>
   </varray>
  </crystal>
  <varray name="positions" >
   <v>       0.00000000       0.00000000       0.00000000 </v>
  </varray>
 </structure>
 <calculation>
  <scstep>
   <time name="dav">    0.32    0.32</time>
   <time name="total">    0.39    0.39</time>
   <energy>
    <i name="alphaZ">     30.58334069 </i>
    <i name="ewald">   -197.90100875 </i>
    <i name="hartreedc">     -2.50452612 </i>
    <i name="XCdc">    -60.68461845 </i>
    <i name="pawpsdc">    143.51874798 </i>
    <i name="pawaedc">    -69.33493833 </i>
    <i name="eentropy">      0.00011481 </i>
    <i name="bandstr">     28.04433047 </i>
    <i name="atom">    129.62738067 </i>
    <i name="e_fr_energy">      1.34882297 </i>
    <i name="e_wo_entrp">      1.34870815 </i>
    <i name="e_0_energy">      1.34878470 </i>
   </energy>
  </scstep>
  <scstep>
   <time name="dav">    0.38    0.38</time>
   <time name="total">    0.39    0.40</time>
   <energy>
    <i name="e_fr_energy">     -1.50228404 </i>
    <i name="e_wo_entrp">     -1.50241283 </i>
    <i name="e_0_energy">     -1.50232697 </i>
   </energy>
  </scstep>
  <scstep>
   <time name="dav">    0.27    0.27</time>
   <time name="total">    0.28    0.29</time>
   <energy>
    <i name="e_fr_energy">     -1.52082771 </i>
    <i name="e_wo_entrp">     -1.52092113 </i>
    <i name="e_0_energy">     -1.52085885 </i>
   </energy>
  </scstep>
  <scstep>
   <time name="dav">    0.33    0.33</time>
   <time name="total">    0.34    0.36</time>
   <energy>
    <i name="e_fr_energy">     -1.52097381 </i>
    <i name="e_wo_entrp">     -1.52106775 </i>
    <i name="e_0_energy">     -1.52100512 </i>
   </energy>
  </scstep>
  <scstep>
   <time name="dav">    0.23    0.23</time>
   <time name="total">    0.27    0.28</time>
   <energy>
    <i name="e_fr_energy">     -1.52097580 </i>
    <i name="e_wo_entrp">     -1.52106975 </i>
    <i name="e_0_energy">     -1.52100712 </i>
   </energy>
  </scstep>
  <scstep>
   <time name="dav">    0.28    0.28</time>
   <time name="total">    0.37    0.40</time>
   <energy>
    <i name="e_fr_energy">    -11.93597241 </i>
    <i name="e_wo_entrp">    -11.93598053 </i>
    <i name="e_0_energy">    -11.93597511 </i>
   </energy>
  </scstep>
  <scstep>
   <time name="dav">    0.29    0.29</time>
   <time name="total">    0.39    0.41</time>
   <energy>
    <i name="e_fr_energy">    -12.05109390 </i>
    <i name="e_wo_entrp">    -12.05139855 </i>
    <i name="e_0_energy">    -12.05119545 </i>
   </energy>
  </scstep>
  <scstep>
   <time name="dav">    0.30    0.30</time>
   <time name="total">    0.39    0.42</time>
   <energy>
    <i name="e_fr_energy">    -11.55310923 </i>
    <i name="e_wo_entrp">    -11.55333353 </i>
    <i name="e_0_energy">    -11.55318400 </i>
   </energy>
  </scstep>
  <scstep>
   <time name="dav">    0.28    0.28</time>
   <time name="total">    0.38    0.39</time>
   <energy>
    <i name="e_fr_energy">    -12.01276641 </i>
    <i name="e_wo_entrp">    -12.01231295 </i>
    <i name="e_0_energy">    -12.01261526 </i>
   </energy>
  </scstep>
  <scstep>
   <time name="dav">    0.28    0.28</time>
   <time name="total">    0.37    0.41</time>
   <energy>
    <i name="e_fr_energy">    -12.03199114 </i>
    <i name="e_wo_entrp">    -12.03191828 </i>
    <i name="e_0_energy">    -12.03196685 </i>
   </energy>
  </scstep>
  <scstep>
   <time name="dav">    0.27    0.27</time>
   <time name="total">    0.36    0.39</time>
   <energy>
    <i name="e_fr_energy">    -12.04477054 </i>
    <i name="e_wo_entrp">    -12.04471307 </i>
    <i name="e_0_energy">    -12.04475138 </i>
   </energy>
  </scstep>
  <scstep>
   <time name="dav">    0.28    0.28</time>
   <time name="total">    0.37    0.39</time>
   <energy>
    <i name="e_fr_energy">    -12.04470188 </i>
    <i name="e_wo_entrp">    -12.04454719 </i>
    <i name="e_0_energy">    -12.04465032 </i>
   </energy>
  </scstep>
  <scstep>
   <time name="dav">    0.21    0.21</time>
   <time name="total">    0.30    0.31</time>
   <energy>
    <i name="e_fr_energy">    -12.04442180 </i>
    <i name="e_wo_entrp">    -12.04422905 </i>
    <i name="e_0_energy">    -12.04435755 </i>
   </energy>
  </scstep>
  <scstep>
   <time name="dav">    0.16    0.16</time>
   <time name="total">    0.25    0.27</time>
   <energy>
    <i name="e_fr_energy">    -12.04487679 </i>
    <i name="e_wo_entrp">    -12.04476107 </i>
    <i name="e_0_energy">    -12.04483822 </i>
   </energy>
  </scstep>
  <scstep>
   <time name="dav">    0.26    0.26</time>
   <time name="total">    0.35    0.37</time>
   <energy>
    <i name="e_fr_energy">    -12.04537495 </i>
    <i name="e_wo_entrp">    -12.04516196 </i>
    <i name="e_0_energy">    -12.04530395 </i>
   </energy>
  </scstep>
  <scstep>
   <time name="dav">    0.16    0.16</time>
   <time name="total">    0.22    0.23</time>
   <energy>
    <i name="alphaZ">     30.58334069 </i>
    <i name="ewald">   -197.90100875 </i>
    <i name="hartreedc">     -0.42902945 </i>
    <i name="XCdc">    -65.85671764 </i>
    <i name="pawpsdc">    188.72976893 </i>
    <i name="pawaedc">   -115.29867006 </i>
    <i name="eentropy">     -0.00023504 </i>
    <i name="bandstr">     18.49977410 </i>
    <i name="atom">    129.62738067 </i>
    <i name="e_fr_energy">    -12.04539655 </i>
    <i name="e_wo_entrp">    -12.04516150 </i>
    <i name="e_0_energy">    -12.04531820 </i>
   </energy>
  </scstep>
  <parameters_embedded>
   <separator name="dft+d2" >
    <i type="logical" name="LVDW"> F  </i>
   </separator>
  </parameters_embedded>
  <structure>
   <crystal>
    <varray name="basis" >
     <v>       2.86654409       0.00000000       0.00000000 </v>
     <v>      -0.95551470       2.70260368       0.00000000 </v>
     <v>      -0.95551470      -1.35130184       2.34052345 </v>
    </varray>
    <i name="volume">     18.13234550 </i>
    <varray name="rec_basis" >
     <v>       0.34885213       0.12333785       0.21362743 </v>
     <v>       0.00000000       0.37001356       0.21362743 </v>
     <v>       0.00000000       0.00000000       0.42725485 </v>
    </varray>
   </crystal>
   <varray name="positions" >
    <v>       0.00000000       0.00000000       0.00000000 </v>
   </varray>
  </structure>
  <varray name="forces" >
   <v>       0.00000000       0.00000000       0.00000000 </v>
  </varray>
  <varray name="stress" >
   <v>    -319.76508605       0.00000000       0.00000000 </v>
   <v>       0.00000000    -319.76508605       0.00000000 </v>
   <v>       0.00000000       0.00000000    -319.76508605 </v>
  </varray>
  <energy>
   <i name="e_fr_energy">    -12.04539655 </i>
   <i name="e_wo_entrp">    -12.04531820 </i>
   <i name="e_0_energy">     -0.00023504 </i>
  </energy>
  <time name="totalsc">    5.80    6.18</time>
  <eigenvalues>
   <array>
    <dimension dim="1">band</dimension>
    <dimension dim="2">kpoint</dimension>
    <dimension dim="3">spin</dimension>
    <field>eigene</field>
    <field>occ</field>
    <set>
     <set comment="spin 1">
      <set comment="kpoint 1">
       <r>   -1.5255    1.0000 </r>
       <r>    6.2271    0.0000 </r>
       <r>    6.2271    0.0000 </r>
       <r>    7.3025    0.0000 </r>
       <r>    9.4231    0.0000 </r>
       <r>    9.4231    0.0000 </r>
      </set>
      <set comment="kpoint 2">
       <r>   -0.4012    1.0000 </r>
       <r>    5.6019    1.0000 </r>
       <r>    5.7844    0.7310 </r>
       <r>    8.7428    0.0000 </r>
       <r>    9.2761    0.0000 </r>
       <r>    9.9907    0.0000 </r>
      </set>
      <set comment="kpoint 3">
       <r>    0.9424    1.0000 </r>
       <r>    4.9415    1.0000 </r>
       <r>    5.4775    1.0000 </r>
       <r>    9.5172    0.0000 </r>
       <r>   10.3912    0.0000 </r>
       <r>   10.8442    0.0000 </r>
      </set>
      <set comment="kpoint 4">
       <r>    1.5808    1.0000 </r>
       <r>    4.4622    1.0000 </r>
       <r>    6.1567    0.0000 </r>
       <r>    9.8417    0.0000 </r>
       <r>   10.6402    0.0000 </r>
       <r>   12.8544    0.0000 </r>
      </set>
      <set comment="kpoint 5">
       <r>    1.6349    1.0000 </r>
       <r>    4.2722    1.0000 </r>
       <r>    6.9882    0.0000 </r>
       <r>    9.7586    0.0000 </r>
       <r>   10.7574    0.0000 </r>
       <r>   13.7994    0.0000 </r>
      </set>
      <set comment="kpoint 6">
       <r>   -1.9396    1.0000 </r>
       <r>    6.5476    0.0000 </r>
       <r>    6.5476    0.0000 </r>
       <r>    6.6857    0.0000 </r>
       <r>    9.2747    0.0000 </r>
       <r>    9.7670    0.0000 </r>
      </set>
      <set comment="kpoint 7">
       <r>    0.8721    1.0000 </r>
       <r>    5.1106    1.0000 </r>
       <r>    5.1369    1.0000 </r>
       <r>    9.4088    0.0000 </r>
       <r>   10.4304    0.0000 </r>
       <r>   10.7711    0.0000 </r>
      </set>
      <set comment="kpoint 8">
       <r>    2.0650    1.0000 </r>
       <r>    4.5523    1.0000 </r>
       <r>    5.1226    1.0000 </r>
       <r>    9.6771    0.0000 </r>
       <r>   10.6930    0.0000 </r>
       <r>   12.7946    0.0000 </r>
      </set>
      <set comment="kpoint 9">
       <r>    2.3442    1.0000 </r>
       <r>    4.3472    1.0000 </r>
       <r>    5.9776    0.0000 </r>
       <r>    9.8770    0.0000 </r>
       <r>   10.8457    0.0000 </r>
       <r>   14.6641    0.0000 </r>
      </set>
      <set comment="kpoint 10">
       <r>   -1.1233    1.0000 </r>
       <r>    6.1137    0.0000 </r>
       <r>    6.3620    0.0000 </r>
       <r>    7.4557    0.0000 </r>
       <r>    8.6515    0.0000 </r>
       <r>   10.2584    0.0000 </r>
      </set>
      <set comment="kpoint 11">
       <r>    3.0140    1.0000 </r>
       <r>    4.4095    1.0000 </r>
       <r>    5.0907    1.0000 </r>
       <r>   10.0418    0.0000 </r>
       <r>   10.7231    0.0000 </r>
       <r>   15.0604    0.0000 </r>
      </set>
      <set comment="kpoint 12">
       <r>    3.1954    1.0000 </r>
       <r>    4.4857    1.0000 </r>
       <r>    5.2942    1.0000 </r>
       <r>   10.2795    0.0000 </r>
       <r>   10.8012    0.0000 </r>
       <r>   14.4132    0.0000 </r>
      </set>
      <set comment="kpoint 13">
       <r>    0.2025    1.0000 </r>
       <r>    5.4319    1.0000 </r>
       <r>    5.7811    0.7783 </r>
       <r>    8.7442    0.0000 </r>
       <r>    9.1574    0.0000 </r>
       <r>   10.4775    0.0000 </r>
      </set>
      <set comment="kpoint 14">
       <r>   -0.0415    1.0000 </r>
       <r>    5.7951    0.5610 </r>
       <r>    5.8543   -0.0332 </r>
       <r>    8.1223    0.0000 </r>
       <r>    8.6229    0.0000 </r>
       <r>   10.6228    0.0000 </r>
      </set>
      <set comment="kpoint 15">
       <r>    1.2622    1.0000 </r>
       <r>    4.8576    1.0000 </r>
       <r>    5.7637    0.9601 </r>
       <r>    9.3981    0.0000 </r>
       <r>   10.6873    0.0000 </r>
       <r>   11.3798    0.0000 </r>
      </set>
      <set comment="kpoint 16">
       <r>    1.2710    1.0000 </r>
       <r>    5.1282    1.0000 </r>
       <r>    5.5178    1.0000 </r>
       <r>    8.5096    0.0000 </r>
       <r>   10.6267    0.0000 </r>
       <r>   10.9216    0.0000 </r>
      </set>
      <set comment="kpoint 17">
       <r>    1.5146    1.0000 </r>
       <r>    4.5173    1.0000 </r>
       <r>    6.7314    0.0000 </r>
       <r>    9.6025    0.0000 </r>
       <r>   11.0127    0.0000 </r>
       <r>   13.4280    0.0000 </r>
      </set>
      <set comment="kpoint 18">
       <r>    1.9496    1.0000 </r>
       <r>    4.7979    1.0000 </r>
       <r>    5.6767    1.0015 </r>
       <r>    9.0820    0.0000 </r>
       <r>   11.0170    0.0000 </r>
       <r>   12.9121    0.0000 </r>
      </set>
      <set comment="kpoint 19">
       <r>    2.4245    1.0000 </r>
       <r>    4.5266    1.0000 </r>
       <r>    5.5050    1.0000 </r>
       <r>    8.8314    0.0000 </r>
       <r>   10.7153    0.0000 </r>
       <r>   12.9458    0.0000 </r>
      </set>
      <set comment="kpoint 20">
       <r>    2.0132    1.0000 </r>
       <r>    4.6900    1.0000 </r>
       <r>    6.1531    0.0000 </r>
       <r>    9.0499    0.0000 </r>
       <r>   11.4130    0.0000 </r>
       <r>   14.2080    0.0000 </r>
      </set>
      <set comment="kpoint 21">
       <r>    2.8967    1.0000 </r>
       <r>    4.5109    1.0000 </r>
       <r>    5.2990    1.0000 </r>
       <r>    9.2799    0.0000 </r>
       <r>   10.8162    0.0000 </r>
       <r>   15.2024    0.0000 </r>
      </set>
      <set comment="kpoint 22">
       <r>    3.5842    1.0000 </r>
       <r>    4.5538    1.0000 </r>
       <r>    4.5538    1.0000 </r>
       <r>   10.3415    0.0000 </r>
       <r>   10.3415    0.0000 </r>
       <r>   14.7321    0.0000 </r>
      </set>
      <set comment="kpoint 23">
       <r>    2.2447    1.0000 </r>
       <r>    4.5527    1.0000 </r>
       <r>    4.5527    1.0000 </r>
       <r>   10.3505    0.0000 </r>
       <r>   10.3505    0.0000 </r>
       <r>   12.8328    0.0000 </r>
      </set>
      <set comment="kpoint 24">
       <r>    3.2252    1.0000 </r>
       <r>    4.3342    1.0000 </r>
       <r>    4.9098    1.0000 </r>
       <r>   10.4812    0.0000 </r>
       <r>   10.8166    0.0000 </r>
       <r>   15.1381    0.0000 </r>
      </set>
      <set comment="kpoint 25">
       <r>    3.2176    1.0000 </r>
       <r>    4.2545    1.0000 </r>
       <r>    5.6417    1.0000 </r>
       <r>   10.5322    0.0000 </r>
       <r>   10.9267    0.0000 </r>
       <r>   14.4019    0.0000 </r>
      </set>
      <set comment="kpoint 26">
       <r>   -0.3479    1.0000 </r>
       <r>    6.4904    0.0000 </r>
       <r>    6.4905    0.0000 </r>
       <r>    7.1809    0.0000 </r>
       <r>    7.4374    0.0000 </r>
       <r>   10.7929    0.0000 </r>
      </set>
      <set comment="kpoint 27">
       <r>    3.8709    1.0000 </r>
       <r>    4.4939    1.0000 </r>
       <r>    4.8921    1.0000 </r>
       <r>   10.7585    0.0000 </r>
       <r>   10.8930    0.0000 </r>
       <r>   13.6574    0.0000 </r>
      </set>
      <set comment="kpoint 28">
       <r>    0.9175    1.0000 </r>
       <r>    5.6836    1.0027 </r>
       <r>    6.2533    0.0000 </r>
       <r>    7.3950    0.0000 </r>
       <r>    8.9057    0.0000 </r>
       <r>   10.9994    0.0000 </r>
      </set>
      <set comment="kpoint 29">
       <r>    1.9971    1.0000 </r>
       <r>    5.0495    1.0000 </r>
       <r>    5.7096    1.0151 </r>
       <r>    8.1830    0.0000 </r>
       <r>   11.0599    0.0000 </r>
       <r>   11.0701    0.0000 </r>
      </set>
      <set comment="kpoint 30">
       <r>    2.0890    1.0000 </r>
       <r>    4.7390    1.0000 </r>
       <r>    6.3138    0.0000 </r>
       <r>    7.6800    0.0000 </r>
       <r>   10.2720    0.0000 </r>
       <r>   11.0589    0.0000 </r>
      </set>
      <set comment="kpoint 31">
       <r>    2.2382    1.0000 </r>
       <r>    5.3512    1.0000 </r>
       <r>    5.4202    1.0000 </r>
       <r>    8.2355    0.0000 </r>
       <r>   12.1815    0.0000 </r>
       <r>   13.2004    0.0000 </r>
      </set>
      <set comment="kpoint 32">
       <r>    2.8479    1.0000 </r>
       <r>    4.3241    1.0000 </r>
       <r>    5.9143   -0.0026 </r>
       <r>    8.3003    0.0000 </r>
       <r>   10.9331    0.0000 </r>
       <r>   13.1305    0.0000 </r>
      </set>
      <set comment="kpoint 33">
       <r>    2.8617    1.0000 </r>
       <r>    4.6813    1.0000 </r>
       <r>    5.4623    1.0000 </r>
       <r>    8.3146    0.0000 </r>
       <r>   12.0622    0.0000 </r>
       <r>   14.7809    0.0000 </r>
      </set>
      <set comment="kpoint 34">
       <r>    3.7386    1.0000 </r>
       <r>    3.8453    1.0000 </r>
       <r>    5.1448    1.0000 </r>
       <r>    9.4410    0.0000 </r>
       <r>   10.7905    0.0000 </r>
       <r>   15.4943    0.0000 </r>
      </set>
      <set comment="kpoint 35">
       <r>    4.4940    1.0000 </r>
       <r>    4.4940    1.0000 </r>
       <r>    4.4940    1.0000 </r>
       <r>   10.9338    0.0000 </r>
       <r>   10.9338    0.0000 </r>
       <r>   12.7097    0.0000 </r>
      </set>
      <set comment="kpoint 36">
       <r>    1.9942    1.0000 </r>
       <r>    4.9341    1.0000 </r>
       <r>    7.2072    0.0000 </r>
       <r>    7.2072    0.0000 </r>
       <r>    9.0141    0.0000 </r>
       <r>   10.8584    0.0000 </r>
      </set>
      <set comment="kpoint 37">
       <r>    2.8430    1.0000 </r>
       <r>    4.0481    1.0000 </r>
       <r>    7.2052    0.0000 </r>
       <r>    7.8355    0.0000 </r>
       <r>   10.7303    0.0000 </r>
       <r>   10.9693    0.0000 </r>
      </set>
      <set comment="kpoint 38">
       <r>    2.9480    1.0000 </r>
       <r>    3.8768    1.0000 </r>
       <r>    6.9868    0.0000 </r>
       <r>    7.6518    0.0000 </r>
       <r>   12.9258    0.0000 </r>
       <r>   12.9346    0.0000 </r>
      </set>
      <set comment="kpoint 39">
       <r>    3.1804    1.0000 </r>
       <r>    3.3096    1.0000 </r>
       <r>    6.9203    0.0000 </r>
       <r>    8.9347    0.0000 </r>
       <r>   10.9405    0.0000 </r>
       <r>   13.0547    0.0000 </r>
      </set>
      <set comment="kpoint 40">
       <r>    3.0160    1.0000 </r>
       <r>    3.3346    1.0000 </r>
       <r>    6.6579    0.0000 </r>
       <r>    9.5014    0.0000 </r>
       <r>   11.8428    0.0000 </r>
       <r>   15.3946    0.0000 </r>
      </set>
      <set comment="kpoint 41">
       <r>    2.9696    1.0000 </r>
       <r>    3.1300    1.0000 </r>
       <r>    8.7695    0.0000 </r>
       <r>    8.7695    0.0000 </r>
       <r>   10.9014    0.0000 </r>
       <r>   10.9921    0.0000 </r>
      </set>
      <set comment="kpoint 42">
       <r>    2.6429    1.0000 </r>
       <r>    2.7873    1.0000 </r>
       <r>    9.1770    0.0000 </r>
       <r>    9.2118    0.0000 </r>
       <r>   12.4915    0.0000 </r>
       <r>   13.1159    0.0000 </r>
      </set>
      <set comment="kpoint 43">
       <r>    2.4874    1.0000 </r>
       <r>    2.4874    1.0000 </r>
       <r>    9.0966    0.0000 </r>
       <r>   11.5936    0.0000 </r>
       <r>   11.5936    0.0000 </r>
       <r>   15.6722    0.0000 </r>
      </set>
      <set comment="kpoint 44">
       <r>    2.2076    1.0000 </r>
       <r>    2.2327    1.0000 </r>
       <r>   11.5213    0.0000 </r>
       <r>   11.5213    0.0000 </r>
       <r>   12.4837    0.0000 </r>
       <r>   13.5583    0.0000 </r>
      </set>
     </set>
     <set comment="spin 2">
      <set comment="kpoint 1">
       <r>   -1.5409    1.0000 </r>
       <r>    6.2045    0.0000 </r>
       <r>    6.2045    0.0000 </r>
       <r>    7.2797    0.0000 </r>
       <r>    9.4126    0.0000 </r>
       <r>    9.4126    0.0000 </r>
      </set>
      <set comment="kpoint 2">
       <r>   -0.4166    1.0000 </r>
       <r>    5.5797    1.0000 </r>
       <r>    5.7641    0.9574 </r>
       <r>    8.7209    0.0000 </r>
       <r>    9.2630    0.0000 </r>
       <r>    9.9795    0.0000 </r>
      </set>
      <set comment="kpoint 3">
       <r>    0.9265    1.0000 </r>
       <r>    4.9197    1.0000 </r>
       <r>    5.4606    1.0000 </r>
       <r>    9.5023    0.0000 </r>
       <r>   10.3795    0.0000 </r>
       <r>   10.8228    0.0000 </r>
      </set>
      <set comment="kpoint 4">
       <r>    1.5641    1.0000 </r>
       <r>    4.4404    1.0000 </r>
       <r>    6.1427    0.0000 </r>
       <r>    9.8266    0.0000 </r>
       <r>   10.6281    0.0000 </r>
       <r>   12.8349    0.0000 </r>
      </set>
      <set comment="kpoint 5">
       <r>    1.6179    1.0000 </r>
       <r>    4.2505    1.0000 </r>
       <r>    6.9753    0.0000 </r>
       <r>    9.7439    0.0000 </r>
       <r>   10.7453    0.0000 </r>
       <r>   13.7816    0.0000 </r>
      </set>
      <set comment="kpoint 6">
       <r>   -1.9550    1.0000 </r>
       <r>    6.5245    0.0000 </r>
       <r>    6.5245    0.0000 </r>
       <r>    6.6625    0.0000 </r>
       <r>    9.2647    0.0000 </r>
       <r>    9.7571    0.0000 </r>
      </set>
      <set comment="kpoint 7">
       <r>    0.8565    1.0000 </r>
       <r>    5.0914    1.0000 </r>
       <r>    5.1158    1.0000 </r>
       <r>    9.3952    0.0000 </r>
       <r>   10.4182    0.0000 </r>
       <r>   10.7498    0.0000 </r>
      </set>
      <set comment="kpoint 8">
       <r>    2.0485    1.0000 </r>
       <r>    4.5325    1.0000 </r>
       <r>    5.1050    1.0000 </r>
       <r>    9.6625    0.0000 </r>
       <r>   10.6805    0.0000 </r>
       <r>   12.7756    0.0000 </r>
      </set>
      <set comment="kpoint 9">
       <r>    2.3270    1.0000 </r>
       <r>    4.3266    1.0000 </r>
       <r>    5.9632    0.0000 </r>
       <r>    9.8623    0.0000 </r>
       <r>   10.8328    0.0000 </r>
       <r>   14.6475    0.0000 </r>
      </set>
      <set comment="kpoint 10">
       <r>   -1.1387    1.0000 </r>
       <r>    6.0909    0.0000 </r>
       <r>    6.3404    0.0000 </r>
       <r>    7.4329    0.0000 </r>
       <r>    8.6401    0.0000 </r>
       <r>   10.2478    0.0000 </r>
      </set>
      <set comment="kpoint 11">
       <r>    2.9957    1.0000 </r>
       <r>    4.3929    1.0000 </r>
       <r>    5.0732    1.0000 </r>
       <r>   10.0270    0.0000 </r>
       <r>   10.7097    0.0000 </r>
       <r>   15.0443    0.0000 </r>
      </set>
      <set comment="kpoint 12">
       <r>    3.1763    1.0000 </r>
       <r>    4.4683    1.0000 </r>
       <r>    5.2794    1.0000 </r>
       <r>   10.2648    0.0000 </r>
       <r>   10.7873    0.0000 </r>
       <r>   14.3915    0.0000 </r>
      </set>
      <set comment="kpoint 13">
       <r>    0.1870    1.0000 </r>
       <r>    5.4095    1.0000 </r>
       <r>    5.7637    0.9600 </r>
       <r>    8.7298    0.0000 </r>
       <r>    9.1351    0.0000 </r>
       <r>   10.4660    0.0000 </r>
      </set>
      <set comment="kpoint 14">
       <r>   -0.0568    1.0000 </r>
       <r>    5.7760    0.8443 </r>
       <r>    5.8322    0.0509 </r>
       <r>    8.1087    0.0000 </r>
       <r>    8.6007    0.0000 </r>
       <r>   10.6115    0.0000 </r>
      </set>
      <set comment="kpoint 15">
       <r>    1.2460    1.0000 </r>
       <r>    4.8355    1.0000 </r>
       <r>    5.7496    1.0232 </r>
       <r>    9.3824    0.0000 </r>
       <r>   10.6752    0.0000 </r>
       <r>   11.3586    0.0000 </r>
      </set>
      <set comment="kpoint 16">
       <r>    1.2554    1.0000 </r>
       <r>    5.1106    1.0000 </r>
       <r>    5.4981    1.0000 </r>
       <r>    8.4936    0.0000 </r>
       <r>   10.6062    0.0000 </r>
       <r>   10.9084    0.0000 </r>
      </set>
      <set comment="kpoint 17">
       <r>    1.4978    1.0000 </r>
       <r>    4.4953    1.0000 </r>
       <r>    6.7192    0.0000 </r>
       <r>    9.5873    0.0000 </r>
       <r>   11.0001    0.0000 </r>
       <r>   13.4084    0.0000 </r>
      </set>
      <set comment="kpoint 18">
       <r>    1.9331    1.0000 </r>
       <r>    4.7776    1.0000 </r>
       <r>    5.6625    1.0004 </r>
       <r>    9.0661    0.0000 </r>
       <r>   11.0029    0.0000 </r>
       <r>   12.8932    0.0000 </r>
      </set>
      <set comment="kpoint 19">
       <r>    2.4081    1.0000 </r>
       <r>    4.5116    1.0000 </r>
       <r>    5.4858    1.0000 </r>
       <r>    8.8146    0.0000 </r>
       <r>   10.7004    0.0000 </r>
       <r>   12.9277    0.0000 </r>
      </set>
      <set comment="kpoint 20">
       <r>    1.9966    1.0000 </r>
       <r>    4.6688    1.0000 </r>
       <r>    6.1409    0.0000 </r>
       <r>    9.0346    0.0000 </r>
       <r>   11.3986    0.0000 </r>
       <r>   14.1906    0.0000 </r>
      </set>
      <set comment="kpoint 21">
       <r>    2.8793    1.0000 </r>
       <r>    4.4943    1.0000 </r>
       <r>    5.2842    1.0000 </r>
       <r>    9.2634    0.0000 </r>
       <r>   10.8002    0.0000 </r>
       <r>   15.1863    0.0000 </r>
      </set>
      <set comment="kpoint 22">
       <r>    3.5636    1.0000 </r>
       <r>    4.5403    1.0000 </r>
       <r>    4.5403    1.0000 </r>
       <r>   10.3246    0.0000 </r>
       <r>   10.3247    0.0000 </r>
       <r>   14.7113    0.0000 </r>
      </set>
      <set comment="kpoint 23">
       <r>    2.2287    1.0000 </r>
       <r>    4.5331    1.0000 </r>
       <r>    4.5331    1.0000 </r>
       <r>   10.3374    0.0000 </r>
       <r>   10.3374    0.0000 </r>
       <r>   12.8139    0.0000 </r>
      </set>
      <set comment="kpoint 24">
       <r>    3.2081    1.0000 </r>
       <r>    4.3142    1.0000 </r>
       <r>    4.8928    1.0000 </r>
       <r>   10.4676    0.0000 </r>
       <r>   10.8041    0.0000 </r>
       <r>   15.1213    0.0000 </r>
      </set>
      <set comment="kpoint 25">
       <r>    3.2001    1.0000 </r>
       <r>    4.2343    1.0000 </r>
       <r>    5.6260    1.0000 </r>
       <r>   10.5185    0.0000 </r>
       <r>   10.9144    0.0000 </r>
       <r>   14.3799    0.0000 </r>
      </set>
      <set comment="kpoint 26">
       <r>   -0.3630    1.0000 </r>
       <r>    6.4683    0.0000 </r>
       <r>    6.4683    0.0000 </r>
       <r>    7.1703    0.0000 </r>
       <r>    7.4147    0.0000 </r>
       <r>   10.7819    0.0000 </r>
      </set>
      <set comment="kpoint 27">
       <r>    3.8518    1.0000 </r>
       <r>    4.4763    1.0000 </r>
       <r>    4.8751    1.0000 </r>
       <r>   10.7456    0.0000 </r>
       <r>   10.8805    0.0000 </r>
       <r>   13.6349    0.0000 </r>
      </set>
      <set comment="kpoint 28">
       <r>    0.9026    1.0000 </r>
       <r>    5.6695    1.0008 </r>
       <r>    6.2313    0.0000 </r>
       <r>    7.3770    0.0000 </r>
       <r>    8.8835    0.0000 </r>
       <r>   10.9871    0.0000 </r>
      </set>
      <set comment="kpoint 29">
       <r>    1.9818    1.0000 </r>
       <r>    5.0370    1.0000 </r>
       <r>    5.6878    1.0037 </r>
       <r>    8.1656    0.0000 </r>
       <r>   11.0388    0.0000 </r>
       <r>   11.0562    0.0000 </r>
      </set>
      <set comment="kpoint 30">
       <r>    2.0744    1.0000 </r>
       <r>    4.7262    1.0000 </r>
       <r>    6.2930    0.0000 </r>
       <r>    7.6608    0.0000 </r>
       <r>   10.2514    0.0000 </r>
       <r>   11.0441    0.0000 </r>
      </set>
      <set comment="kpoint 31">
       <r>    2.2225    1.0000 </r>
       <r>    5.3395    1.0000 </r>
       <r>    5.3985    1.0000 </r>
       <r>    8.2196    0.0000 </r>
       <r>   12.1668    0.0000 </r>
       <r>   13.1808    0.0000 </r>
      </set>
      <set comment="kpoint 32">
       <r>    2.8331    1.0000 </r>
       <r>    4.3116    1.0000 </r>
       <r>    5.8947   -0.0103 </r>
       <r>    8.2821    0.0000 </r>
       <r>   10.9156    0.0000 </r>
       <r>   13.1122    0.0000 </r>
      </set>
      <set comment="kpoint 33">
       <r>    2.8471    1.0000 </r>
       <r>    4.6697    1.0000 </r>
       <r>    5.4424    1.0000 </r>
       <r>    8.2967    0.0000 </r>
       <r>   12.0445    0.0000 </r>
       <r>   14.7642    0.0000 </r>
      </set>
      <set comment="kpoint 34">
       <r>    3.7245    1.0000 </r>
       <r>    3.8332    1.0000 </r>
       <r>    5.1262    1.0000 </r>
       <r>    9.4224    0.0000 </r>
       <r>   10.7722    0.0000 </r>
       <r>   15.4764    0.0000 </r>
      </set>
      <set comment="kpoint 35">
       <r>    4.4761    1.0000 </r>
       <r>    4.4761    1.0000 </r>
       <r>    4.4761    1.0000 </r>
       <r>   10.9217    0.0000 </r>
       <r>   10.9217    0.0000 </r>
       <r>   12.6867    0.0000 </r>
      </set>
      <set comment="kpoint 36">
       <r>    1.9803    1.0000 </r>
       <r>    4.9230    1.0000 </r>
       <r>    7.1860    0.0000 </r>
       <r>    7.1860    0.0000 </r>
       <r>    8.9920    0.0000 </r>
       <r>   10.8442    0.0000 </r>
      </set>
      <set comment="kpoint 37">
       <r>    2.8298    1.0000 </r>
       <r>    4.0366    1.0000 </r>
       <r>    7.1841    0.0000 </r>
       <r>    7.8159    0.0000 </r>
       <r>   10.7092    0.0000 </r>
       <r>   10.9531    0.0000 </r>
      </set>
      <set comment="kpoint 38">
       <r>    2.9352    1.0000 </r>
       <r>    3.8655    1.0000 </r>
       <r>    6.9658    0.0000 </r>
       <r>    7.6335    0.0000 </r>
       <r>   12.9061    0.0000 </r>
       <r>   12.9176    0.0000 </r>
      </set>
      <set comment="kpoint 39">
       <r>    3.1684    1.0000 </r>
       <r>    3.2982    1.0000 </r>
       <r>    6.9003    0.0000 </r>
       <r>    8.9148    0.0000 </r>
       <r>   10.9216    0.0000 </r>
       <r>   13.0363    0.0000 </r>
      </set>
      <set comment="kpoint 40">
       <r>    3.0044    1.0000 </r>
       <r>    3.3233    1.0000 </r>
       <r>    6.6377    0.0000 </r>
       <r>    9.4819    0.0000 </r>
       <r>   11.8239    0.0000 </r>
       <r>   15.3770    0.0000 </r>
      </set>
      <set comment="kpoint 41">
       <r>    2.9580    1.0000 </r>
       <r>    3.1188    1.0000 </r>
       <r>    8.7493    0.0000 </r>
       <r>    8.7493    0.0000 </r>
       <r>   10.8807    0.0000 </r>
       <r>   10.9748    0.0000 </r>
      </set>
      <set comment="kpoint 42">
       <r>    2.6316    1.0000 </r>
       <r>    2.7761    1.0000 </r>
       <r>    9.1574    0.0000 </r>
       <r>    9.1916    0.0000 </r>
       <r>   12.4719    0.0000 </r>
       <r>   13.0977    0.0000 </r>
      </set>
      <set comment="kpoint 43">
       <r>    2.4762    1.0000 </r>
       <r>    2.4762    1.0000 </r>
       <r>    9.0767    0.0000 </r>
       <r>   11.5743    0.0000 </r>
       <r>   11.5743    0.0000 </r>
       <r>   15.6536    0.0000 </r>
      </set>
      <set comment="kpoint 44">
       <r>    2.1963    1.0000 </r>
       <r>    2.2215    1.0000 </r>
       <r>   11.5018    0.0000 </r>
       <r>   11.5018    0.0000 </r>
       <r>   12.4643    0.0000 </r>
       <r>   13.5395    0.0000 </r>
      </set>
     </set>
    </set>
   </array>
  </eigenvalues>
  <separator name="orbital magnetization" >
   <v name="MAGDIPOLOUT">      0.00000000      0.00000000      0.00000000</v>
  </separator>
  <dos>
   <i name="efermi">      5.79870731 </i>
   <total>
    <array>
     <dimension dim="1">gridpoints</dimension>
     <dimension dim="2">spin</dimension>
     <field>energy</field>
     <field>total</field>
     <field>integrated</field>
     <set>
      <set comment="spin 1">
       <r>    -2.8364     0.0000     0.0000 </r>
       <r>    -2.7717     0.0000     0.0000 </r>
       <r>    -2.7071     0.0000     0.0000 </r>
       <r>    -2.6425     0.0000     0.0000 </r>
       <r>    -2.5778     0.0000     0.0000 </r>
       <r>    -2.5132     0.0000     0.0000 </r>
       <r>    -2.4486     0.0000     0.0000 </r>
       <r>    -2.3839     0.0000     0.0000 </r>
       <r>    -2.3193     0.0000     0.0000 </r>
       <r>    -2.2547     0.0000     0.0000 </r>
       <r>    -2.1900     0.0000     0.0000 </r>
       <r>    -2.1254     0.0000     0.0000 </r>
       <r>    -2.0608    -0.0001     0.0000 </r>
       <r>    -1.9961    -0.0030    -0.0002 </r>
       <r>    -1.9315     0.0621     0.0038 </r>
       <r>    -1.8669     0.0367     0.0062 </r>
       <r>    -1.8022    -0.0027     0.0060 </r>
       <r>    -1.7376     0.0000     0.0060 </r>
       <r>    -1.6730     0.0000     0.0060 </r>
       <r>    -1.6083    -0.0025     0.0058 </r>
       <r>    -1.5437     0.0290     0.0077 </r>
       <r>    -1.4791     0.0993     0.0141 </r>
       <r>    -1.4144    -0.0015     0.0140 </r>
       <r>    -1.3498    -0.0005     0.0140 </r>
       <r>    -1.2852     0.0000     0.0140 </r>
       <r>    -1.2205    -0.0035     0.0138 </r>
       <r>    -1.1559     0.0251     0.0154 </r>
       <r>    -1.0913     0.3265     0.0365 </r>
       <r>    -1.0266     0.0269     0.0382 </r>
       <r>    -0.9620    -0.0036     0.0380 </r>
       <r>    -0.8974     0.0000     0.0380 </r>
       <r>    -0.8327     0.0000     0.0380 </r>
       <r>    -0.7681     0.0000     0.0380 </r>
       <r>    -0.7035     0.0000     0.0380 </r>
       <r>    -0.6388     0.0000     0.0380 </r>
       <r>    -0.5742     0.0000     0.0380 </r>
       <r>    -0.5096    -0.0017     0.0379 </r>
       <r>    -0.4449    -0.0017     0.0378 </r>
       <r>    -0.3803     0.3141     0.0581 </r>
       <r>    -0.3157     0.1545     0.0681 </r>
       <r>    -0.2510    -0.0001     0.0681 </r>
       <r>    -0.1864    -0.0010     0.0680 </r>
       <r>    -0.1218    -0.0084     0.0675 </r>
       <r>    -0.0571     0.1009     0.0740 </r>
       <r>     0.0075     0.2874     0.0925 </r>
       <r>     0.0721    -0.0076     0.0921 </r>
       <r>     0.1368    -0.0136     0.0912 </r>
       <r>     0.2014     0.1916     0.1036 </r>
       <r>     0.2660     0.2055     0.1168 </r>
       <r>     0.3307    -0.0127     0.1160 </r>
       <r>     0.3953    -0.0003     0.1160 </r>
       <r>     0.4599     0.0000     0.1160 </r>
       <r>     0.5246     0.0000     0.1160 </r>
       <r>     0.5892     0.0000     0.1160 </r>
       <r>     0.6538     0.0000     0.1160 </r>
       <r>     0.7185     0.0000     0.1160 </r>
       <r>     0.7831    -0.0058     0.1156 </r>
       <r>     0.8477     0.0406     0.1182 </r>
       <r>     0.9124     0.5166     0.1516 </r>
       <r>     0.9770     0.5618     0.1880 </r>
       <r>     1.0416     0.0043     0.1882 </r>
       <r>     1.1062    -0.0036     0.1880 </r>
       <r>     1.1709    -0.0108     0.1873 </r>
       <r>     1.2355     0.0795     0.1924 </r>
       <r>     1.3001     0.9720     0.2553 </r>
       <r>     1.3648     0.0846     0.2607 </r>
       <r>     1.4294    -0.0180     0.2596 </r>
       <r>     1.4940     0.0684     0.2640 </r>
       <r>     1.5587     0.3683     0.2878 </r>
       <r>     1.6233     0.3727     0.3119 </r>
       <r>     1.6879     0.1333     0.3205 </r>
       <r>     1.7526    -0.0071     0.3200 </r>
       <r>     1.8172    -0.0008     0.3200 </r>
       <r>     1.8818    -0.0258     0.3183 </r>
       <r>     1.9465     0.3332     0.3398 </r>
       <r>     2.0111     0.9434     0.4008 </r>
       <r>     2.0757     0.9618     0.4630 </r>
       <r>     2.1404     0.5025     0.4955 </r>
       <r>     2.2050     0.0516     0.4988 </r>
       <r>     2.2696     0.5455     0.5340 </r>
       <r>     2.3343     0.3110     0.5542 </r>
       <r>     2.3989     0.5587     0.5903 </r>
       <r>     2.4635     0.3364     0.6120 </r>
       <r>     2.5282     0.2163     0.6260 </r>
       <r>     2.5928    -0.0078     0.6255 </r>
       <r>     2.6574     0.2808     0.6436 </r>
       <r>     2.7221     0.0930     0.6496 </r>
       <r>     2.7867     0.1353     0.6584 </r>
       <r>     2.8513     1.0163     0.7241 </r>
       <r>     2.9160     1.3675     0.8125 </r>
       <r>     2.9806     0.5476     0.8478 </r>
       <r>     3.0452     0.6911     0.8925 </r>
       <r>     3.1099     0.0593     0.8963 </r>
       <r>     3.1745     0.2928     0.9153 </r>
       <r>     3.2391     0.9611     0.9774 </r>
       <r>     3.3038     0.3241     0.9983 </r>
       <r>     3.3684     0.5467     1.0337 </r>
       <r>     3.4330     0.0087     1.0342 </r>
       <r>     3.4977    -0.0059     1.0339 </r>
       <r>     3.5623     0.0226     1.0353 </r>
       <r>     3.6269     0.1023     1.0419 </r>
       <r>     3.6916    -0.0050     1.0416 </r>
       <r>     3.7562     0.2879     1.0602 </r>
       <r>     3.8208     0.1257     1.0683 </r>
       <r>     3.8855     0.8440     1.1229 </r>
       <r>     3.9501     0.2522     1.1392 </r>
       <r>     4.0147     0.0012     1.1393 </r>
       <r>     4.0794     0.3262     1.1604 </r>
       <r>     4.1440     0.0284     1.1622 </r>
       <r>     4.2086    -0.0147     1.1612 </r>
       <r>     4.2733     0.2010     1.1742 </r>
       <r>     4.3379     1.1834     1.2507 </r>
       <r>     4.4025     1.0210     1.3167 </r>
       <r>     4.4672     0.5168     1.3501 </r>
       <r>     4.5318     2.2267     1.4940 </r>
       <r>     4.5964     1.4281     1.5863 </r>
       <r>     4.6611     0.0628     1.5904 </r>
       <r>     4.7257     0.7167     1.6367 </r>
       <r>     4.7903     0.5749     1.6739 </r>
       <r>     4.8550     0.6508     1.7159 </r>
       <r>     4.9196     0.8658     1.7719 </r>
       <r>     4.9842     0.5312     1.8062 </r>
       <r>     5.0489     0.1187     1.8139 </r>
       <r>     5.1135     1.3146     1.8989 </r>
       <r>     5.1781     1.9443     2.0245 </r>
       <r>     5.2428    -0.0671     2.0202 </r>
       <r>     5.3074     0.7640     2.0696 </r>
       <r>     5.3720     0.6855     2.1139 </r>
       <r>     5.4367     0.5887     2.1519 </r>
       <r>     5.5013     1.2570     2.2332 </r>
       <r>     5.5659     0.8583     2.2886 </r>
       <r>     5.6306     0.3264     2.3097 </r>
       <r>     5.6952     1.1158     2.3819 </r>
       <r>     5.7598     0.8800     2.4387 </r>
       <r>     5.8245     1.1649     2.5140 </r>
       <r>     5.8891     0.4478     2.5430 </r>
       <r>     5.9537     0.7651     2.5924 </r>
       <r>     6.0184     0.6389     2.6337 </r>
       <r>     6.0830     0.0135     2.6346 </r>
       <r>     6.1476     0.6179     2.6745 </r>
       <r>     6.2123     0.5791     2.7120 </r>
       <r>     6.2769     0.4833     2.7432 </r>
       <r>     6.3415     0.4517     2.7724 </r>
       <r>     6.4062     0.3386     2.7943 </r>
       <r>     6.4708     0.0286     2.7961 </r>
       <r>     6.5354     0.2102     2.8097 </r>
       <r>     6.6001     0.1198     2.8174 </r>
       <r>     6.6647     0.2408     2.8330 </r>
       <r>     6.7293     0.4164     2.8599 </r>
       <r>     6.7940     0.2002     2.8729 </r>
       <r>     6.8586    -0.0266     2.8711 </r>
       <r>     6.9232     0.1981     2.8839 </r>
       <r>     6.9879     0.4830     2.9152 </r>
       <r>     7.0525     0.2799     2.9333 </r>
       <r>     7.1171    -0.0308     2.9313 </r>
       <r>     7.1818     0.1370     2.9401 </r>
       <r>     7.2464     0.5191     2.9737 </r>
       <r>     7.3110     0.0804     2.9789 </r>
       <r>     7.3757     0.1138     2.9862 </r>
       <r>     7.4403     0.4553     3.0157 </r>
       <r>     7.5049     0.3280     3.0369 </r>
       <r>     7.5696    -0.0213     3.0355 </r>
       <r>     7.6342     0.0849     3.0410 </r>
       <r>     7.6988     0.5959     3.0795 </r>
       <r>     7.7635     0.0674     3.0838 </r>
       <r>     7.8281     0.1421     3.0930 </r>
       <r>     7.8927     0.2444     3.1088 </r>
       <r>     7.9574    -0.0122     3.1080 </r>
       <r>     8.0220    -0.0035     3.1078 </r>
       <r>     8.0866     0.0122     3.1086 </r>
       <r>     8.1513     0.3455     3.1309 </r>
       <r>     8.2159     0.4264     3.1585 </r>
       <r>     8.2805     0.5008     3.1909 </r>
       <r>     8.3452     0.9277     3.2508 </r>
       <r>     8.4098     0.0193     3.2521 </r>
       <r>     8.4744     0.0281     3.2539 </r>
       <r>     8.5391     0.6423     3.2954 </r>
       <r>     8.6037     0.1465     3.3049 </r>
       <r>     8.6683     0.5644     3.3413 </r>
       <r>     8.7330     0.3570     3.3644 </r>
       <r>     8.7976     0.6961     3.4094 </r>
       <r>     8.8622     0.3132     3.4297 </r>
       <r>     8.9269     0.4816     3.4608 </r>
       <r>     8.9915     0.3072     3.4806 </r>
       <r>     9.0561     0.3947     3.5061 </r>
       <r>     9.1208     0.9016     3.5644 </r>
       <r>     9.1854     0.6316     3.6052 </r>
       <r>     9.2500     0.6315     3.6461 </r>
       <r>     9.3147     1.0329     3.7128 </r>
       <r>     9.3793     0.1505     3.7225 </r>
       <r>     9.4439     1.0157     3.7882 </r>
       <r>     9.5086     0.6238     3.8285 </r>
       <r>     9.5732     0.4149     3.8553 </r>
       <r>     9.6378     0.3163     3.8758 </r>
       <r>     9.7025     0.6458     3.9175 </r>
       <r>     9.7671     0.2633     3.9345 </r>
       <r>     9.8317     0.2394     3.9500 </r>
       <r>     9.8964     0.8514     4.0050 </r>
       <r>     9.9610     0.1764     4.0164 </r>
       <r>    10.0256     0.4085     4.0428 </r>
       <r>    10.0903     0.3077     4.0627 </r>
       <r>    10.1549    -0.0136     4.0618 </r>
       <r>    10.2195    -0.0162     4.0608 </r>
       <r>    10.2842     0.8006     4.1125 </r>
       <r>    10.3488     0.6202     4.1526 </r>
       <r>    10.4134     0.5942     4.1910 </r>
       <r>    10.4781     0.7185     4.2375 </r>
       <r>    10.5427     0.5052     4.2701 </r>
       <r>    10.6073     0.3020     4.2896 </r>
       <r>    10.6720     1.4229     4.3816 </r>
       <r>    10.7366     1.8070     4.4984 </r>
       <r>    10.8012     1.9376     4.6236 </r>
       <r>    10.8659     2.1833     4.7647 </r>
       <r>    10.9305     1.7246     4.8762 </r>
       <r>    10.9951     1.8275     4.9943 </r>
       <r>    11.0598     1.7011     5.1043 </r>
       <r>    11.1244     0.6267     5.1448 </r>
       <r>    11.1890    -0.0417     5.1421 </r>
       <r>    11.2537    -0.0017     5.1420 </r>
       <r>    11.3183    -0.0169     5.1409 </r>
       <r>    11.3829     0.2520     5.1572 </r>
       <r>    11.4476     0.4989     5.1894 </r>
       <r>    11.5122     0.0716     5.1941 </r>
       <r>    11.5768     0.1868     5.2061 </r>
       <r>    11.6415     0.1890     5.2183 </r>
       <r>    11.7061    -0.0046     5.2180 </r>
       <r>    11.7707    -0.0119     5.2173 </r>
       <r>    11.8354     0.1505     5.2270 </r>
       <r>    11.9000     0.2448     5.2428 </r>
       <r>    11.9646    -0.0156     5.2418 </r>
       <r>    12.0293     0.0234     5.2433 </r>
       <r>    12.0939     0.3205     5.2640 </r>
       <r>    12.1585     0.0908     5.2699 </r>
       <r>    12.2232     0.3101     5.2900 </r>
       <r>    12.2878     0.0027     5.2901 </r>
       <r>    12.3524    -0.0021     5.2900 </r>
       <r>    12.4171    -0.0134     5.2891 </r>
       <r>    12.4817     0.1824     5.3009 </r>
       <r>    12.5463     0.3108     5.3210 </r>
       <r>    12.6110    -0.0148     5.3200 </r>
       <r>    12.6756    -0.0005     5.3200 </r>
       <r>    12.7402     0.0023     5.3201 </r>
       <r>    12.8049     0.5254     5.3541 </r>
       <r>    12.8695     0.6259     5.3946 </r>
       <r>    12.9341     1.2784     5.4772 </r>
       <r>    12.9988     0.7275     5.5242 </r>
       <r>    13.0634     0.1704     5.5352 </r>
       <r>    13.1280     0.7666     5.5848 </r>
       <r>    13.1927     0.6878     5.6292 </r>
       <r>    13.2573     0.2111     5.6429 </r>
       <r>    13.3219    -0.0149     5.6419 </r>
       <r>    13.3866     0.0024     5.6421 </r>
       <r>    13.4512     0.3139     5.6624 </r>
       <r>    13.5158     0.0622     5.6664 </r>
       <r>    13.5805     0.0624     5.6704 </r>
       <r>    13.6451     0.1373     5.6793 </r>
       <r>    13.7097     0.2669     5.6965 </r>
       <r>    13.7744     0.0168     5.6976 </r>
       <r>    13.8390     0.1585     5.7079 </r>
       <r>    13.9036     0.0033     5.7081 </r>
       <r>    13.9683    -0.0011     5.7080 </r>
       <r>    14.0329     0.0000     5.7080 </r>
       <r>    14.0975    -0.0014     5.7079 </r>
       <r>    14.1622    -0.0039     5.7077 </r>
       <r>    14.2268     0.3002     5.7271 </r>
       <r>    14.2914     0.0826     5.7324 </r>
       <r>    14.3561    -0.0215     5.7310 </r>
       <r>    14.4207     0.3950     5.7565 </r>
       <r>    14.4853     0.1922     5.7690 </r>
       <r>    14.5500    -0.0169     5.7679 </r>
       <r>    14.6146    -0.0162     5.7668 </r>
       <r>    14.6792     0.5639     5.8033 </r>
       <r>    14.7438     0.3098     5.8233 </r>
       <r>    14.8085     0.3474     5.8457 </r>
       <r>    14.8731     0.0396     5.8483 </r>
       <r>    14.9377    -0.0053     5.8480 </r>
       <r>    15.0024    -0.0125     5.8472 </r>
       <r>    15.0670     0.2282     5.8619 </r>
       <r>    15.1316     0.2902     5.8807 </r>
       <r>    15.1963     0.5459     5.9159 </r>
       <r>    15.2609     0.4604     5.9457 </r>
       <r>    15.3255    -0.0373     5.9433 </r>
       <r>    15.3902     0.1667     5.9541 </r>
       <r>    15.4548     0.2335     5.9692 </r>
       <r>    15.5194     0.3063     5.9890 </r>
       <r>    15.5841     0.0506     5.9922 </r>
       <r>    15.6487     0.0147     5.9932 </r>
       <r>    15.7133     0.1050     6.0000 </r>
       <r>    15.7780     0.0012     6.0000 </r>
       <r>    15.8426    -0.0007     6.0000 </r>
       <r>    15.9072     0.0000     6.0000 </r>
       <r>    15.9719     0.0000     6.0000 </r>
       <r>    16.0365     0.0000     6.0000 </r>
       <r>    16.1011     0.0000     6.0000 </r>
       <r>    16.1658     0.0000     6.0000 </r>
       <r>    16.2304     0.0000     6.0000 </r>
       <r>    16.2950     0.0000     6.0000 </r>
       <r>    16.3597     0.0000     6.0000 </r>
       <r>    16.4243     0.0000     6.0000 </r>
       <r>    16.4889     0.0000     6.0000 </r>
       <r>    16.5536     0.0000     6.0000 </r>
      </set>
      <set comment="spin 2">
       <r>    -2.8364     0.0000     0.0000 </r>
       <r>    -2.7717     0.0000     0.0000 </r>
       <r>    -2.7071     0.0000     0.0000 </r>
       <r>    -2.6425     0.0000     0.0000 </r>
       <r>    -2.5778     0.0000     0.0000 </r>
       <r>    -2.5132     0.0000     0.0000 </r>
       <r>    -2.4486     0.0000     0.0000 </r>
       <r>    -2.3839     0.0000     0.0000 </r>
       <r>    -2.3193     0.0000     0.0000 </r>
       <r>    -2.2547     0.0000     0.0000 </r>
       <r>    -2.1900     0.0000     0.0000 </r>
       <r>    -2.1254     0.0000     0.0000 </r>
       <r>    -2.0608    -0.0005     0.0000 </r>
       <r>    -1.9961     0.0009     0.0000 </r>
       <r>    -1.9315     0.0788     0.0051 </r>
       <r>    -1.8669     0.0151     0.0061 </r>
       <r>    -1.8022    -0.0015     0.0060 </r>
       <r>    -1.7376     0.0000     0.0060 </r>
       <r>    -1.6730    -0.0001     0.0060 </r>
       <r>    -1.6083    -0.0041     0.0057 </r>
       <r>    -1.5437     0.0602     0.0096 </r>
       <r>    -1.4791     0.0721     0.0143 </r>
       <r>    -1.4144    -0.0043     0.0140 </r>
       <r>    -1.3498    -0.0001     0.0140 </r>
       <r>    -1.2852    -0.0001     0.0140 </r>
       <r>    -1.2205    -0.0079     0.0135 </r>
       <r>    -1.1559     0.0920     0.0194 </r>
       <r>    -1.0913     0.2942     0.0385 </r>
       <r>    -1.0266    -0.0057     0.0381 </r>
       <r>    -0.9620    -0.0013     0.0380 </r>
       <r>    -0.8974     0.0000     0.0380 </r>
       <r>    -0.8327     0.0000     0.0380 </r>
       <r>    -0.7681     0.0000     0.0380 </r>
       <r>    -0.7035     0.0000     0.0380 </r>
       <r>    -0.6388     0.0000     0.0380 </r>
       <r>    -0.5742     0.0000     0.0380 </r>
       <r>    -0.5096    -0.0046     0.0377 </r>
       <r>    -0.4449     0.0381     0.0402 </r>
       <r>    -0.3803     0.3471     0.0626 </r>
       <r>    -0.3157     0.0880     0.0683 </r>
       <r>    -0.2510    -0.0042     0.0680 </r>
       <r>    -0.1864    -0.0006     0.0680 </r>
       <r>    -0.1218    -0.0126     0.0672 </r>
       <r>    -0.0571     0.1962     0.0798 </r>
       <r>     0.0075     0.2010     0.0928 </r>
       <r>     0.0721    -0.0137     0.0920 </r>
       <r>     0.1368    -0.0088     0.0914 </r>
       <r>     0.2014     0.2816     0.1096 </r>
       <r>     0.2660     0.1081     0.1166 </r>
       <r>     0.3307    -0.0088     0.1160 </r>
       <r>     0.3953    -0.0001     0.1160 </r>
       <r>     0.4599     0.0000     0.1160 </r>
       <r>     0.5246     0.0000     0.1160 </r>
       <r>     0.5892     0.0000     0.1160 </r>
       <r>     0.6538     0.0000     0.1160 </r>
       <r>     0.7185    -0.0001     0.1160 </r>
       <r>     0.7831    -0.0114     0.1153 </r>
       <r>     0.8477     0.1220     0.1231 </r>
       <r>     0.9124     0.6199     0.1632 </r>
       <r>     0.9770     0.4045     0.1893 </r>
       <r>     1.0416    -0.0197     0.1881 </r>
       <r>     1.1062    -0.0013     0.1880 </r>
       <r>     1.1709    -0.0241     0.1864 </r>
       <r>     1.2355     0.2878     0.2050 </r>
       <r>     1.3001     0.8701     0.2613 </r>
       <r>     1.3648    -0.0160     0.2602 </r>
       <r>     1.4294    -0.0160     0.2592 </r>
       <r>     1.4940     0.1623     0.2697 </r>
       <r>     1.5587     0.3800     0.2943 </r>
       <r>     1.6233     0.3359     0.3160 </r>
       <r>     1.6879     0.0688     0.3204 </r>
       <r>     1.7526    -0.0063     0.3200 </r>
       <r>     1.8172    -0.0020     0.3199 </r>
       <r>     1.8818    -0.0234     0.3184 </r>
       <r>     1.9465     0.5617     0.3547 </r>
       <r>     2.0111     0.9280     0.4147 </r>
       <r>     2.0757     0.9862     0.4784 </r>
       <r>     2.1404     0.2490     0.4945 </r>
       <r>     2.2050     0.1740     0.5057 </r>
       <r>     2.2696     0.4842     0.5370 </r>
       <r>     2.3343     0.4678     0.5673 </r>
       <r>     2.3989     0.4352     0.5954 </r>
       <r>     2.4635     0.3113     0.6155 </r>
       <r>     2.5282     0.1677     0.6263 </r>
       <r>     2.5928     0.0014     0.6264 </r>
       <r>     2.6574     0.3191     0.6471 </r>
       <r>     2.7221     0.0340     0.6493 </r>
       <r>     2.7867     0.2265     0.6639 </r>
       <r>     2.8513     1.3370     0.7503 </r>
       <r>     2.9160     1.1193     0.8227 </r>
       <r>     2.9806     0.5370     0.8574 </r>
       <r>     3.0452     0.6042     0.8964 </r>
       <r>     3.1099    -0.0024     0.8963 </r>
       <r>     3.1745     0.5315     0.9306 </r>
       <r>     3.2391     0.8323     0.9844 </r>
       <r>     3.3038     0.3237     1.0053 </r>
       <r>     3.3684     0.4597     1.0350 </r>
       <r>     3.4330    -0.0145     1.0341 </r>
       <r>     3.4977    -0.0058     1.0337 </r>
       <r>     3.5623     0.0634     1.0378 </r>
       <r>     3.6269     0.0655     1.0421 </r>
       <r>     3.6916     0.0198     1.0433 </r>
       <r>     3.7562     0.3114     1.0635 </r>
       <r>     3.8208     0.1766     1.0749 </r>
       <r>     3.8855     0.8986     1.1330 </r>
       <r>     3.9501     0.0828     1.1383 </r>
       <r>     4.0147     0.0571     1.1420 </r>
       <r>     4.0794     0.3106     1.1621 </r>
       <r>     4.1440    -0.0029     1.1619 </r>
       <r>     4.2086     0.0163     1.1629 </r>
       <r>     4.2733     0.3176     1.1835 </r>
       <r>     4.3379     1.5119     1.2812 </r>
       <r>     4.4025     0.6302     1.3219 </r>
       <r>     4.4672     0.8777     1.3786 </r>
       <r>     4.5318     2.4447     1.5367 </r>
       <r>     4.5964     0.7694     1.5864 </r>
       <r>     4.6611     0.2204     1.6006 </r>
       <r>     4.7257     0.6705     1.6440 </r>
       <r>     4.7903     0.7117     1.6900 </r>
       <r>     4.8550     0.5967     1.7285 </r>
       <r>     4.9196     0.9300     1.7886 </r>
       <r>     4.9842     0.2704     1.8061 </r>
       <r>     5.0489     0.2336     1.8212 </r>
       <r>     5.1135     1.9888     1.9498 </r>
       <r>     5.1781     1.1900     2.0267 </r>
       <r>     5.2428    -0.0609     2.0227 </r>
       <r>     5.3074     0.9695     2.0854 </r>
       <r>     5.3720     0.5312     2.1197 </r>
       <r>     5.4367     0.8400     2.1740 </r>
       <r>     5.5013     1.3168     2.2591 </r>
       <r>     5.5659     0.5375     2.2939 </r>
       <r>     5.6306     0.4061     2.3201 </r>
       <r>     5.6952     1.2496     2.4009 </r>
       <r>     5.7598     0.9363     2.4614 </r>
       <r>     5.8245     0.9726     2.5243 </r>
       <r>     5.8891     0.5082     2.5571 </r>
       <r>     5.9537     0.7282     2.6042 </r>
       <r>     6.0184     0.4749     2.6349 </r>
       <r>     6.0830     0.0983     2.6412 </r>
       <r>     6.1476     0.7005     2.6865 </r>
       <r>     6.2123     0.5483     2.7219 </r>
       <r>     6.2769     0.4621     2.7518 </r>
       <r>     6.3415     0.4838     2.7831 </r>
       <r>     6.4062     0.1762     2.7945 </r>
       <r>     6.4708     0.0880     2.8001 </r>
       <r>     6.5354     0.2204     2.8144 </r>
       <r>     6.6001     0.0656     2.8186 </r>
       <r>     6.6647     0.3592     2.8418 </r>
       <r>     6.7293     0.3514     2.8646 </r>
       <r>     6.7940     0.1236     2.8725 </r>
       <r>     6.8586    -0.0099     2.8719 </r>
       <r>     6.9232     0.3098     2.8919 </r>
       <r>     6.9879     0.5107     2.9249 </r>
       <r>     7.0525     0.1199     2.9327 </r>
       <r>     7.1171    -0.0319     2.9306 </r>
       <r>     7.1818     0.3347     2.9523 </r>
       <r>     7.2464     0.3649     2.9758 </r>
       <r>     7.3110     0.0736     2.9806 </r>
       <r>     7.3757     0.1892     2.9928 </r>
       <r>     7.4403     0.5301     3.0271 </r>
       <r>     7.5049     0.1504     3.0368 </r>
       <r>     7.5696    -0.0304     3.0348 </r>
       <r>     7.6342     0.2499     3.0510 </r>
       <r>     7.6988     0.5149     3.0843 </r>
       <r>     7.7635    -0.0124     3.0835 </r>
       <r>     7.8281     0.2679     3.1008 </r>
       <r>     7.8927     0.1213     3.1086 </r>
       <r>     7.9574    -0.0096     3.1080 </r>
       <r>     8.0220    -0.0065     3.1076 </r>
       <r>     8.0866     0.0582     3.1113 </r>
       <r>     8.1513     0.4071     3.1377 </r>
       <r>     8.2159     0.4242     3.1651 </r>
       <r>     8.2805     0.6864     3.2094 </r>
       <r>     8.3452     0.6931     3.2542 </r>
       <r>     8.4098    -0.0473     3.2512 </r>
       <r>     8.4744     0.1613     3.2616 </r>
       <r>     8.5391     0.5878     3.2996 </r>
       <r>     8.6037     0.2240     3.3141 </r>
       <r>     8.6683     0.4731     3.3446 </r>
       <r>     8.7330     0.5578     3.3807 </r>
       <r>     8.7976     0.5264     3.4147 </r>
       <r>     8.8622     0.3287     3.4360 </r>
       <r>     8.9269     0.5668     3.4726 </r>
       <r>     8.9915     0.1469     3.4821 </r>
       <r>     9.0561     0.6313     3.5229 </r>
       <r>     9.1208     0.7970     3.5744 </r>
       <r>     9.1854     0.7043     3.6199 </r>
       <r>     9.2500     0.6387     3.6612 </r>
       <r>     9.3147     0.8567     3.7166 </r>
       <r>     9.3793     0.2598     3.7334 </r>
       <r>     9.4439     1.0289     3.7999 </r>
       <r>     9.5086     0.6196     3.8399 </r>
       <r>     9.5732     0.2931     3.8589 </r>
       <r>     9.6378     0.3733     3.8830 </r>
       <r>     9.7025     0.6252     3.9234 </r>
       <r>     9.7671     0.2122     3.9371 </r>
       <r>     9.8317     0.3544     3.9600 </r>
       <r>     9.8964     0.8045     4.0120 </r>
       <r>     9.9610     0.1026     4.0186 </r>
       <r>    10.0256     0.4824     4.0498 </r>
       <r>    10.0903     0.2029     4.0629 </r>
       <r>    10.1549    -0.0239     4.0614 </r>
       <r>    10.2195     0.0623     4.0654 </r>
       <r>    10.2842     0.9451     4.1265 </r>
       <r>    10.3488     0.5264     4.1605 </r>
       <r>    10.4134     0.5805     4.1980 </r>
       <r>    10.4781     0.7729     4.2480 </r>
       <r>    10.5427     0.3514     4.2707 </r>
       <r>    10.6073     0.6223     4.3109 </r>
       <r>    10.6720     1.4084     4.4020 </r>
       <r>    10.7366     1.9341     4.5270 </r>
       <r>    10.8012     2.0995     4.6627 </r>
       <r>    10.8659     1.8616     4.7830 </r>
       <r>    10.9305     2.0099     4.9129 </r>
       <r>    10.9951     1.6176     5.0174 </r>
       <r>    11.0598     1.6592     5.1247 </r>
       <r>    11.1244     0.2973     5.1439 </r>
       <r>    11.1890    -0.0289     5.1420 </r>
       <r>    11.2537    -0.0025     5.1419 </r>
       <r>    11.3183    -0.0032     5.1417 </r>
       <r>    11.3829     0.4175     5.1686 </r>
       <r>    11.4476     0.3384     5.1905 </r>
       <r>    11.5122     0.1091     5.1976 </r>
       <r>    11.5768     0.2083     5.2110 </r>
       <r>    11.6415     0.1163     5.2185 </r>
       <r>    11.7061    -0.0090     5.2180 </r>
       <r>    11.7707    -0.0107     5.2173 </r>
       <r>    11.8354     0.2672     5.2345 </r>
       <r>    11.9000     0.1253     5.2426 </r>
       <r>    11.9646    -0.0184     5.2414 </r>
       <r>    12.0293     0.1032     5.2481 </r>
       <r>    12.0939     0.2745     5.2659 </r>
       <r>    12.1585     0.1378     5.2748 </r>
       <r>    12.2232     0.2482     5.2908 </r>
       <r>    12.2878    -0.0119     5.2900 </r>
       <r>    12.3524    -0.0016     5.2899 </r>
       <r>    12.4171    -0.0128     5.2891 </r>
       <r>    12.4817     0.3316     5.3105 </r>
       <r>    12.5463     0.1588     5.3208 </r>
       <r>    12.6110    -0.0131     5.3200 </r>
       <r>    12.6756     0.0046     5.3202 </r>
       <r>    12.7402     0.0480     5.3234 </r>
       <r>    12.8049     0.7137     5.3695 </r>
       <r>    12.8695     0.5974     5.4081 </r>
       <r>    12.9341     1.4890     5.5043 </r>
       <r>    12.9988     0.3052     5.5241 </r>
       <r>    13.0634     0.2990     5.5434 </r>
       <r>    13.1280     0.9363     5.6039 </r>
       <r>    13.1927     0.4972     5.6360 </r>
       <r>    13.2573     0.1022     5.6426 </r>
       <r>    13.3219    -0.0162     5.6416 </r>
       <r>    13.3866     0.0681     5.6460 </r>
       <r>    13.4512     0.3092     5.6660 </r>
       <r>    13.5158     0.0148     5.6669 </r>
       <r>    13.5805     0.0660     5.6712 </r>
       <r>    13.6451     0.2612     5.6881 </r>
       <r>    13.7097     0.1272     5.6963 </r>
       <r>    13.7744     0.0657     5.7005 </r>
       <r>    13.8390     0.1217     5.7084 </r>
       <r>    13.9036    -0.0061     5.7080 </r>
       <r>    13.9683    -0.0003     5.7080 </r>
       <r>    14.0329     0.0000     5.7080 </r>
       <r>    14.0975    -0.0045     5.7077 </r>
       <r>    14.1622     0.0397     5.7103 </r>
       <r>    14.2268     0.3243     5.7312 </r>
       <r>    14.2914     0.0088     5.7318 </r>
       <r>    14.3561     0.0432     5.7346 </r>
       <r>    14.4207     0.4831     5.7658 </r>
       <r>    14.4853     0.0390     5.7683 </r>
       <r>    14.5500    -0.0123     5.7676 </r>
       <r>    14.6146     0.0468     5.7706 </r>
       <r>    14.6792     0.6551     5.8129 </r>
       <r>    14.7438     0.2404     5.8285 </r>
       <r>    14.8085     0.3068     5.8483 </r>
       <r>    14.8731    -0.0029     5.8481 </r>
       <r>    14.9377    -0.0035     5.8479 </r>
       <r>    15.0024     0.0014     5.8480 </r>
       <r>    15.0670     0.3005     5.8674 </r>
       <r>    15.1316     0.3026     5.8870 </r>
       <r>    15.1963     0.6448     5.9286 </r>
       <r>    15.2609     0.2578     5.9453 </r>
       <r>    15.3255    -0.0301     5.9433 </r>
       <r>    15.3902     0.2692     5.9607 </r>
       <r>    15.4548     0.1847     5.9727 </r>
       <r>    15.5194     0.3004     5.9921 </r>
       <r>    15.5841    -0.0038     5.9919 </r>
       <r>    15.6487     0.0539     5.9953 </r>
       <r>    15.7133     0.0764     6.0003 </r>
       <r>    15.7780    -0.0042     6.0000 </r>
       <r>    15.8426    -0.0002     6.0000 </r>
       <r>    15.9072     0.0000     6.0000 </r>
       <r>    15.9719     0.0000     6.0000 </r>
       <r>    16.0365     0.0000     6.0000 </r>
       <r>    16.1011     0.0000     6.0000 </r>
       <r>    16.1658     0.0000     6.0000 </r>
       <r>    16.2304     0.0000     6.0000 </r>
       <r>    16.2950     0.0000     6.0000 </r>
       <r>    16.3597     0.0000     6.0000 </r>
       <r>    16.4243     0.0000     6.0000 </r>
       <r>    16.4889     0.0000     6.0000 </r>
       <r>    16.5536     0.0000     6.0000 </r>
      </set>
     </set>
    </array>
   </total>
   <partial>
    <array>
     <dimension dim="1">gridpoints</dimension>
     <dimension dim="2">spin</dimension>
     <dimension dim="3">ion</dimension>
     <field>energy</field>
     <field>  s</field>
     <field> py</field>
     <field> pz</field>
     <field> px</field>
     <field>dxy</field>
     <field>dyz</field>
     <field>dz2</field>
     <field>dxz</field>
     <field>dx2</field>
     <set>
      <set comment="ion 1">
       <set comment="spin 1">
        <r>    -2.8364     0.0000     0.0000     0.0000     0.0000     0.0000     0.0000     0.0000     0.0000     0.0000 </r>
        <r>    -2.7717     0.0000     0.0000     0.0000     0.0000     0.0000     0.0000     0.0000     0.0000     0.0000 </r>
        <r>    -2.7071     0.0000     0.0000     0.0000     0.0000     0.0000     0.0000     0.0000     0.0000     0.0000 </r>
        <r>    -2.6425     0.0000     0.0000     0.0000     0.0000     0.0000     0.0000     0.0000     0.0000     0.0000 </r>
        <r>    -2.5778     0.0000     0.0000     0.0000     0.0000     0.0000     0.0000     0.0000     0.0000     0.0000 </r>
        <r>    -2.5132     0.0000     0.0000     0.0000     0.0000     0.0000     0.0000     0.0000     0.0000     0.0000 </r>
        <r>    -2.4486     0.0000     0.0000     0.0000     0.0000     0.0000     0.0000     0.0000     0.0000     0.0000 </r>
        <r>    -2.3839     0.0000     0.0000     0.0000     0.0000     0.0000     0.0000     0.0000     0.0000     0.0000 </r>
        <r>    -2.3193     0.0000     0.0000     0.0000     0.0000     0.0000     0.0000     0.0000     0.0000     0.0000 </r>
        <r>    -2.2547     0.0000     0.0000     0.0000     0.0000     0.0000     0.0000     0.0000     0.0000     0.0000 </r>
        <r>    -2.1900     0.0000     0.0000     0.0000     0.0000     0.0000     0.0000     0.0000     0.0000     0.0000 </r>
        <r>    -2.1254     0.0000     0.0000     0.0000     0.0000     0.0000     0.0000     0.0000     0.0000     0.0000 </r>
        <r>    -2.0608    -0.0001     0.0000     0.0000     0.0000     0.0000     0.0000     0.0000     0.0000     0.0000 </r>
        <r>    -1.9961    -0.0026     0.0000     0.0000     0.0000     0.0000     0.0000     0.0000     0.0000     0.0000 </r>
[...]
       <set comment="band 1">
        <r>  0.6004 </r>
       </set>
       <set comment="band 2">
        <r>  0.0000 </r>
       </set>
       <set comment="band 3">
        <r>  0.0275 </r>
       </set>
       <set comment="band 4">
        <r>  0.0036 </r>
       </set>
       <set comment="band 5">
        <r>  0.0000 </r>
       </set>
       <set comment="band 6">
        <r>  0.0037 </r>
       </set>
      </set>
      <set comment="kpoint 4">
       <set comment="band 1">
        <r>  0.3632 </r>
       </set>
       <set comment="band 2">
        <r>  0.0000 </r>
       </set>
       <set comment="band 3">
        <r>  0.0716 </r>
       </set>
       <set comment="band 4">
        <r>  0.0304 </r>
       </set>
       <set comment="band 5">
        <r>  0.0000 </r>
       </set>
       <set comment="band 6">
        <r>  0.0004 </r>
       </set>
      </set>
      <set comment="kpoint 5">
       <set comment="band 1">
        <r>  0.2826 </r>
       </set>
       <set comment="band 2">
        <r>  0.0000 </r>
       </set>
       <set comment="band 3">
        <r>  0.0000 </r>
       </set>
       <set comment="band 4">
        <r>  0.0743 </r>
       </set>
       <set comment="band 5">
        <r>  0.0000 </r>
       </set>
       <set comment="band 6">
        <r>  0.0000 </r>
       </set>
      </set>
      <set comment="kpoint 6">
       <set comment="band 1">
        <r>  0.8553 </r>
       </set>
       <set comment="band 2">
        <r>  0.0000 </r>
       </set>
       <set comment="band 3">
        <r>  0.0000 </r>
       </set>
       <set comment="band 4">
        <r>  0.0000 </r>
       </set>
       <set comment="band 5">
        <r>  0.0000 </r>
       </set>
       <set comment="band 6">
        <r>  0.0002 </r>
       </set>
      </set>
      <set comment="kpoint 7">
       <set comment="band 1">
        <r>  0.6493 </r>
       </set>
       <set comment="band 2">
        <r>  0.0000 </r>
       </set>
       <set comment="band 3">
        <r>  0.0032 </r>
       </set>
       <set comment="band 4">
        <r>  0.0000 </r>
       </set>
       <set comment="band 5">
        <r>  0.0055 </r>
       </set>
       <set comment="band 6">
        <r>  0.0018 </r>
       </set>
      </set>
      <set comment="kpoint 8">
       <set comment="band 1">
        <r>  0.4456 </r>
       </set>
       <set comment="band 2">
        <r>  0.0000 </r>
       </set>
       <set comment="band 3">
        <r>  0.0377 </r>
       </set>
       <set comment="band 4">
        <r>  0.0027 </r>
       </set>
       <set comment="band 5">
        <r>  0.0163 </r>
       </set>
       <set comment="band 6">
        <r>  0.0026 </r>
       </set>
      </set>
      <set comment="kpoint 9">
       <set comment="band 1">
        <r>  0.2565 </r>
       </set>
       <set comment="band 2">
        <r>  0.0004 </r>
       </set>
       <set comment="band 3">
        <r>  0.0261 </r>
       </set>
       <set comment="band 4">
        <r>  0.0399 </r>
       </set>
       <set comment="band 5">
        <r>  0.0070 </r>
       </set>
       <set comment="band 6">
        <r>  0.0005 </r>
       </set>
      </set>
      <set comment="kpoint 10">
       <set comment="band 1">
        <r>  0.8062 </r>
       </set>
       <set comment="band 2">
        <r>  0.0000 </r>
       </set>
       <set comment="band 3">
        <r>  0.0006 </r>
       </set>
       <set comment="band 4">
        <r>  0.0000 </r>
       </set>
       <set comment="band 5">
        <r>  0.0003 </r>
       </set>
       <set comment="band 6">
        <r>  0.0036 </r>
       </set>
      </set>
      <set comment="kpoint 11">
       <set comment="band 1">
        <r>  0.2541 </r>
       </set>
       <set comment="band 2">
        <r>  0.0000 </r>
       </set>
       <set comment="band 3">
        <r>  0.0366 </r>
       </set>
       <set comment="band 4">
        <r>  0.0000 </r>
       </set>
       <set comment="band 5">
        <r>  0.0505 </r>
       </set>
       <set comment="band 6">
        <r>  0.0029 </r>
       </set>
      </set>
      <set comment="kpoint 12">
       <set comment="band 1">
        <r>  0.1651 </r>
       </set>
       <set comment="band 2">
        <r>  0.0002 </r>
       </set>
       <set comment="band 3">
        <r>  0.0000 </r>
       </set>
       <set comment="band 4">
        <r>  0.0328 </r>
       </set>
       <set comment="band 5">
        <r>  0.0000 </r>
       </set>
       <set comment="band 6">
        <r>  0.7473 </r>
       </set>
      </set>
      <set comment="kpoint 13">
       <set comment="band 1">
        <r>  0.6892 </r>
       </set>
       <set comment="band 2">
        <r>  0.0000 </r>
       </set>
       <set comment="band 3">
        <r>  0.0100 </r>
       </set>
       <set comment="band 4">
        <r>  0.0001 </r>
       </set>
       <set comment="band 5">
        <r>  0.0000 </r>
       </set>
       <set comment="band 6">
        <r>  0.0050 </r>
       </set>
      </set>
      <set comment="kpoint 14">
       <set comment="band 1">
        <r>  0.7210 </r>
       </set>
       <set comment="band 2">
        <r>  0.0000 </r>
       </set>
       <set comment="band 3">
        <r>  0.0019 </r>
       </set>
       <set comment="band 4">
        <r>  0.0000 </r>
       </set>
       <set comment="band 5">
        <r>  0.0007 </r>
       </set>
       <set comment="band 6">
        <r>  0.0067 </r>
       </set>
      </set>
      <set comment="kpoint 15">
       <set comment="band 1">
        <r>  0.4722 </r>
       </set>
       <set comment="band 2">
        <r>  0.0000 </r>
       </set>
       <set comment="band 3">
        <r>  0.0650 </r>
       </set>
       <set comment="band 4">
        <r>  0.0071 </r>
       </set>
       <set comment="band 5">
        <r>  0.0219 </r>
       </set>
       <set comment="band 6">
        <r>  0.0000 </r>
       </set>
      </set>
      <set comment="kpoint 16">
       <set comment="band 1">
        <r>  0.5606 </r>
       </set>
       <set comment="band 2">
        <r>  0.0041 </r>
       </set>
       <set comment="band 3">
        <r>  0.0140 </r>
       </set>
       <set comment="band 4">
        <r>  0.0001 </r>
       </set>
       <set comment="band 5">
        <r>  0.0080 </r>
       </set>
       <set comment="band 6">
        <r>  0.0410 </r>
       </set>
      </set>
      <set comment="kpoint 17">
       <set comment="band 1">
        <r>  0.3033 </r>
       </set>
       <set comment="band 2">
        <r>  0.0000 </r>
       </set>
       <set comment="band 3">
        <r>  0.0285 </r>
       </set>
       <set comment="band 4">
        <r>  0.0855 </r>
       </set>
       <set comment="band 5">
        <r>  0.0203 </r>
       </set>
       <set comment="band 6">
        <r>  0.0000 </r>
       </set>
      </set>
      <set comment="kpoint 18">
       <set comment="band 1">
        <r>  0.3329 </r>
       </set>
       <set comment="band 2">
        <r>  0.0042 </r>
       </set>
       <set comment="band 3">
        <r>  0.0427 </r>
       </set>
       <set comment="band 4">
        <r>  0.0234 </r>
       </set>
       <set comment="band 5">
        <r>  0.0809 </r>
       </set>
       <set comment="band 6">
        <r>  0.0022 </r>
       </set>
      </set>
      <set comment="kpoint 19">
       <set comment="band 1">
        <r>  0.3933 </r>
       </set>
       <set comment="band 2">
        <r>  0.0000 </r>
       </set>
       <set comment="band 3">
        <r>  0.0112 </r>
       </set>
       <set comment="band 4">
        <r>  0.0000 </r>
       </set>
       <set comment="band 5">
        <r>  0.0969 </r>
       </set>
       <set comment="band 6">
        <r>  0.0135 </r>
       </set>
      </set>
      <set comment="kpoint 20">
       <set comment="band 1">
        <r>  0.2484 </r>
       </set>
       <set comment="band 2">
        <r>  0.0028 </r>
       </set>
       <set comment="band 3">
        <r>  0.0000 </r>
       </set>
       <set comment="band 4">
        <r>  0.0962 </r>
       </set>
       <set comment="band 5">
        <r>  0.0000 </r>
       </set>
       <set comment="band 6">
        <r>  0.0000 </r>
       </set>
      </set>
      <set comment="kpoint 21">
       <set comment="band 1">
        <r>  0.2200 </r>
       </set>
       <set comment="band 2">
        <r>  0.0125 </r>
       </set>
       <set comment="band 3">
        <r>  0.0019 </r>
       </set>
       <set comment="band 4">
        <r>  0.0386 </r>
       </set>
       <set comment="band 5">
        <r>  0.0423 </r>
       </set>
       <set comment="band 6">
        <r>  0.0513 </r>
       </set>
      </set>
      <set comment="kpoint 22">
       <set comment="band 1">
        <r>  0.1793 </r>
       </set>
       <set comment="band 2">
        <r>  0.0000 </r>
       </set>
       <set comment="band 3">
        <r>  0.0000 </r>
       </set>
       <set comment="band 4">
        <r>  0.0000 </r>
       </set>
       <set comment="band 5">
        <r>  0.0000 </r>
       </set>
       <set comment="band 6">
        <r>  0.6940 </r>
       </set>
      </set>
      <set comment="kpoint 23">
       <set comment="band 1">
        <r>  0.5070 </r>
       </set>
       <set comment="band 2">
        <r>  0.0000 </r>
       </set>
       <set comment="band 3">
        <r>  0.0000 </r>
       </set>
       <set comment="band 4">
        <r>  0.0000 </r>
       </set>
       <set comment="band 5">
        <r>  0.0000 </r>
       </set>
       <set comment="band 6">
        <r>  0.0194 </r>
       </set>
      </set>
      <set comment="kpoint 24">
       <set comment="band 1">
        <r>  0.2710 </r>
       </set>
       <set comment="band 2">
        <r>  0.0000 </r>
       </set>
       <set comment="band 3">
        <r>  0.0526 </r>
       </set>
       <set comment="band 4">
        <r>  0.0109 </r>
       </set>
       <set comment="band 5">
        <r>  0.0000 </r>
       </set>
       <set comment="band 6">
        <r>  0.0040 </r>
       </set>
      </set>
      <set comment="kpoint 25">
       <set comment="band 1">
        <r>  0.1591 </r>
       </set>
       <set comment="band 2">
        <r>  0.0000 </r>
       </set>
       <set comment="band 3">
        <r>  0.0000 </r>
       </set>
       <set comment="band 4">
        <r>  0.0451 </r>
       </set>
       <set comment="band 5">
        <r>  0.0000 </r>
       </set>
       <set comment="band 6">
        <r>  0.8089 </r>
       </set>
      </set>
      <set comment="kpoint 26">
       <set comment="band 1">
        <r>  0.7451 </r>
       </set>
       <set comment="band 2">
        <r>  0.0000 </r>
       </set>
       <set comment="band 3">
        <r>  0.0000 </r>
       </set>
       <set comment="band 4">
        <r>  0.0000 </r>
       </set>
       <set comment="band 5">
        <r>  0.0000 </r>
       </set>
       <set comment="band 6">
        <r>  0.0086 </r>
       </set>
      </set>
      <set comment="kpoint 27">
       <set comment="band 1">
        <r>  0.0848 </r>
       </set>
       <set comment="band 2">
        <r>  0.0000 </r>
       </set>
       <set comment="band 3">
        <r>  0.0309 </r>
       </set>
       <set comment="band 4">
        <r>  0.0000 </r>
       </set>
       <set comment="band 5">
        <r>  0.0116 </r>
       </set>
       <set comment="band 6">
        <r>  0.8739 </r>
       </set>
      </set>
      <set comment="kpoint 28">
       <set comment="band 1">
        <r>  0.6172 </r>
       </set>
       <set comment="band 2">
        <r>  0.0033 </r>
       </set>
       <set comment="band 3">
        <r>  0.0000 </r>
       </set>
       <set comment="band 4">
        <r>  0.0003 </r>
       </set>
       <set comment="band 5">
        <r>  0.0000 </r>
       </set>
       <set comment="band 6">
        <r>  0.0519 </r>
       </set>
      </set>
      <set comment="kpoint 29">
       <set comment="band 1">
        <r>  0.4090 </r>
       </set>
       <set comment="band 2">
        <r>  0.0231 </r>
       </set>
       <set comment="band 3">
        <r>  0.0000 </r>
       </set>
       <set comment="band 4">
        <r>  0.0061 </r>
       </set>
       <set comment="band 5">
        <r>  0.0000 </r>
       </set>
       <set comment="band 6">
        <r>  0.1549 </r>
       </set>
      </set>
      <set comment="kpoint 30">
       <set comment="band 1">
        <r>  0.4432 </r>
       </set>
       <set comment="band 2">
        <r>  0.0000 </r>
       </set>
       <set comment="band 3">
        <r>  0.0012 </r>
       </set>
       <set comment="band 4">
        <r>  0.0000 </r>
       </set>
       <set comment="band 5">
        <r>  0.0290 </r>
       </set>
       <set comment="band 6">
        <r>  0.1433 </r>
       </set>
      </set>
      <set comment="kpoint 31">
       <set comment="band 1">
        <r>  0.2247 </r>
       </set>
       <set comment="band 2">
        <r>  0.0157 </r>
       </set>
       <set comment="band 3">
        <r>  0.0000 </r>
       </set>
       <set comment="band 4">
        <r>  0.1093 </r>
       </set>
       <set comment="band 5">
        <r>  0.0778 </r>
       </set>
       <set comment="band 6">
        <r>  0.0000 </r>
       </set>
      </set>
      <set comment="kpoint 32">
       <set comment="band 1">
        <r>  0.2350 </r>
       </set>
       <set comment="band 2">
        <r>  0.0221 </r>
       </set>
       <set comment="band 3">
        <r>  0.0065 </r>
       </set>
       <set comment="band 4">
        <r>  0.0396 </r>
       </set>
       <set comment="band 5">
        <r>  0.1567 </r>
       </set>
       <set comment="band 6">
        <r>  0.0460 </r>
       </set>
      </set>
      <set comment="kpoint 33">
       <set comment="band 1">
        <r>  0.1386 </r>
       </set>
       <set comment="band 2">
        <r>  0.0000 </r>
       </set>
       <set comment="band 3">
        <r>  0.0416 </r>
       </set>
       <set comment="band 4">
        <r>  0.1030 </r>
       </set>
       <set comment="band 5">
        <r>  0.0000 </r>
       </set>
       <set comment="band 6">
        <r>  0.0000 </r>
       </set>
      </set>
      <set comment="kpoint 34">
       <set comment="band 1">
        <r>  0.1031 </r>
       </set>
       <set comment="band 2">
        <r>  0.0000 </r>
       </set>
       <set comment="band 3">
        <r>  0.0923 </r>
       </set>
       <set comment="band 4">
        <r>  0.0000 </r>
       </set>
       <set comment="band 5">
        <r>  0.0735 </r>
       </set>
       <set comment="band 6">
        <r>  0.3025 </r>
       </set>
      </set>
      <set comment="kpoint 35">
       <set comment="band 1">
        <r>  0.0000 </r>
       </set>
       <set comment="band 2">
        <r>  0.0000 </r>
       </set>
       <set comment="band 3">
        <r>  0.0000 </r>
       </set>
       <set comment="band 4">
        <r>  0.0000 </r>
       </set>
       <set comment="band 5">
        <r>  0.0000 </r>
       </set>
       <set comment="band 6">
        <r>  0.9928 </r>
       </set>
      </set>
      <set comment="kpoint 36">
       <set comment="band 1">
        <r>  0.4649 </r>
       </set>
       <set comment="band 2">
        <r>  0.0000 </r>
       </set>
       <set comment="band 3">
        <r>  0.0000 </r>
       </set>
       <set comment="band 4">
        <r>  0.0000 </r>
       </set>
       <set comment="band 5">
        <r>  0.0000 </r>
       </set>
       <set comment="band 6">
        <r>  0.1621 </r>
       </set>
      </set>
      <set comment="kpoint 37">
       <set comment="band 1">
        <r>  0.2466 </r>
       </set>
       <set comment="band 2">
        <r>  0.0028 </r>
       </set>
       <set comment="band 3">
        <r>  0.0000 </r>
       </set>
       <set comment="band 4">
        <r>  0.0251 </r>
       </set>
       <set comment="band 5">
        <r>  0.0000 </r>
       </set>
       <set comment="band 6">
        <r>  0.3023 </r>
       </set>
      </set>
      <set comment="kpoint 38">
       <set comment="band 1">
        <r>  0.0790 </r>
       </set>
       <set comment="band 2">
        <r>  0.0141 </r>
       </set>
       <set comment="band 3">
        <r>  0.0000 </r>
       </set>
       <set comment="band 4">
        <r>  0.1729 </r>
       </set>
       <set comment="band 5">
        <r>  0.0000 </r>
       </set>
       <set comment="band 6">
        <r>  0.1186 </r>
       </set>
      </set>
      <set comment="kpoint 39">
       <set comment="band 1">
        <r>  0.0759 </r>
       </set>
       <set comment="band 2">
        <r>  0.0000 </r>
       </set>
       <set comment="band 3">
        <r>  0.0930 </r>
       </set>
       <set comment="band 4">
        <r>  0.0000 </r>
       </set>
       <set comment="band 5">
        <r>  0.1823 </r>
       </set>
       <set comment="band 6">
        <r>  0.1131 </r>
       </set>
      </set>
      <set comment="kpoint 40">
       <set comment="band 1">
        <r>  0.0144 </r>
       </set>
       <set comment="band 2">
        <r>  0.0000 </r>
       </set>
       <set comment="band 3">
        <r>  0.1300 </r>
       </set>
       <set comment="band 4">
        <r>  0.0401 </r>
       </set>
       <set comment="band 5">
        <r>  0.0000 </r>
       </set>
       <set comment="band 6">
        <r>  0.0000 </r>
       </set>
      </set>
      <set comment="kpoint 41">
       <set comment="band 1">
        <r>  0.0788 </r>
       </set>
       <set comment="band 2">
        <r>  0.0000 </r>
       </set>
       <set comment="band 3">
        <r>  0.0000 </r>
       </set>
       <set comment="band 4">
        <r>  0.0000 </r>
       </set>
       <set comment="band 5">
        <r>  0.0000 </r>
       </set>
       <set comment="band 6">
        <r>  0.4092 </r>
       </set>
      </set>
      <set comment="kpoint 42">
       <set comment="band 1">
        <r>  0.0054 </r>
       </set>
       <set comment="band 2">
        <r>  0.0060 </r>
       </set>
       <set comment="band 3">
        <r>  0.1140 </r>
       </set>
       <set comment="band 4">
        <r>  0.0000 </r>
       </set>
       <set comment="band 5">
        <r>  0.0000 </r>
       </set>
       <set comment="band 6">
        <r>  0.1823 </r>
       </set>
      </set>
      <set comment="kpoint 43">
       <set comment="band 1">
        <r>  0.0000 </r>
       </set>
       <set comment="band 2">
        <r>  0.0000 </r>
       </set>
       <set comment="band 3">
        <r>  0.0804 </r>
       </set>
       <set comment="band 4">
        <r>  0.0000 </r>
       </set>
       <set comment="band 5">
        <r>  0.0000 </r>
       </set>
       <set comment="band 6">
        <r>  0.0000 </r>
       </set>
      </set>
      <set comment="kpoint 44">
       <set comment="band 1">
        <r>  0.0000 </r>
       </set>
       <set comment="band 2">
        <r>  0.0005 </r>
       </set>
       <set comment="band 3">
        <r>  0.0000 </r>
       </set>
       <set comment="band 4">
        <r>  0.0000 </r>
       </set>
       <set comment="band 5">
        <r>  0.0000 </r>
       </set>
       <set comment="band 6">
        <r>  0.1386 </r>
       </set>
      </set>
     </set>
    </set>
   </array>
  </projected>
 </calculation>
 <structure name="finalpos" >
  <crystal>
   <varray name="basis" >
    <v>       2.86654409       0.00000000       0.00000000 </v>
    <v>      -0.95551470       2.70260368       0.00000000 </v>
    <v>      -0.95551470      -1.35130184       2.34052345 </v>
   </varray>
   <i name="volume">     18.13234550 </i>
   <varray name="rec_basis" >
    <v>       0.34885213       0.12333785       0.21362743 </v>
    <v>       0.00000000       0.37001356       0.21362743 </v>
    <v>       0.00000000       0.00000000       0.42725485 </v>
   </varray>
  </crystal>
  <varray name="positions" >
   <v>       0.00000000       0.00000000       0.00000000 </v>
  </varray>
 </structure>
</modeling>
