    4    4    1    2
  0.8797333E+01  0.2461200E-09  0.2461200E-09  0.6707900E-09  0.5000000E-15
  1.000000000000000E-004
  CAR 
 unknown system                          
   16   28   14
 
  0.0000000E+00  0.0000000E+00  0.0000000E+00  0.4629630E-02
   1      -15.001427    -14.971335
   2      -14.702027    -14.672741
   3       -3.855216     -3.788499
   4       -1.902374     -1.826828
   5        1.717203      1.729661
   6        1.717292      1.729751
   7        1.721800      1.734532
   8        1.721891      1.734624
   9        8.967071      9.003578
  10       13.137420     13.149412
  11       13.137483     13.149477
  12       13.200954     13.211935
  13       13.201015     13.211998
  14       15.297678     15.344842
 
  0.1666667E+00 -0.1387779E-16  0.0000000E+00  0.2777778E-01
   1      -14.338462    -14.308695
   2      -14.050667    -14.021624
   3       -3.051809     -2.984442
   4       -1.156340     -1.079554
   5       -0.625196     -0.608221
   6       -0.562426     -0.545483
   7        0.549393      0.561798
   8        0.593404      0.605691
   9        9.772919      9.809200
  10       13.061550     13.084176
  11       13.234970     13.252577
  12       13.957534     14.042761
  13       14.356080     14.468518
  14       15.708942     15.728070
 
  0.3333333E+00  0.0000000E+00  0.0000000E+00  0.2777778E-01
   1      -12.382229    -12.353355
   2      -12.129297    -12.100831
   3       -4.986954     -4.965099
   4       -4.853679     -4.832089
   5       -1.077097     -1.064914
   6       -1.021508     -1.009465
   7       -0.740913     -0.672390
   8        0.945313      1.028127
   9        9.237832      9.307323
  10       10.135093     10.238702
  11       12.084051     12.110548
  12       12.362026     12.411588
  13       12.756651     12.783246
  14       17.481831     17.556312
 
  0.5000000E+00 -0.2775558E-16  0.0000000E+00  0.1388889E-01
   1       -9.643090     -9.618115
   2       -9.540630     -9.500739
   3       -8.574193     -8.561492
   4       -8.498223     -8.472499
   5       -1.718530     -1.706397
   6       -1.661137     -1.649257
   7        1.923313      1.963879
   8        2.566749      2.700923
   9        6.252900      6.256037
  10        6.848514      6.986995
  11       11.952243     11.989596
  12       12.351162     12.387802
  13       16.030156     16.019327
  14       16.110792     16.196496
 
  0.1666667E+00  0.1666667E+00  0.0000000E+00  0.2777778E-01
   1      -13.028555    -12.999415
   2      -12.764371    -12.735784
   3       -3.070059     -3.049405
   4       -3.014553     -2.992063
   5       -1.708145     -1.695981
   6       -1.668621     -1.655423
   7       -1.485551     -1.417125
   8        0.285030      0.365020
   9       10.884265     10.969394
  10       11.374986     11.429226
  11       11.393289     11.472931
  12       14.714395     14.740387
  13       14.958506     14.968494
  14       16.318082     16.356654
 
  0.3333333E+00  0.1666667E+00  0.0000000E+00  0.5555556E-01
   1      -10.507682    -10.479541
   2      -10.293135    -10.264581
   3       -6.774676     -6.751221
   4       -6.626448     -6.602767
   5       -3.373939     -3.359543
   6       -3.284305     -3.270048
   7        1.379007      1.444074
   8        2.704177      2.801862
   9        6.906165      6.972538
  10        7.639604      7.733372
  11       14.450629     14.465717
  12       14.616119     14.676744
  13       15.125518     15.150327
  14       17.168669     17.244452
 
  0.3333333E+00  0.3333333E+00  0.0000000E+00  0.9259259E-02
   1       -7.964691     -7.992651
   2       -7.923963     -7.838030
   3       -7.923961     -7.838028
   4       -7.773150     -7.800056
   5       -5.854217     -5.844372
   6       -5.854214     -5.844369
   7        4.136626      4.029888
   8        4.569724      4.843107
   9        4.569725      4.843107
  10        5.513038      5.398280
  11       15.846538     15.896333
  12       15.846539     15.896334
  13       17.022619     16.973909
  14       17.264892     17.352558
 
  0.0000000E+00  0.0000000E+00  0.1666667E+00  0.9259259E-02
   1      -14.982745    -14.952704
   2      -14.723413    -14.694068
   3       -3.743974     -3.676886
   4       -2.064906     -1.990375
   5        1.705616      1.718021
   6        1.705707      1.718113
   7        1.716201      1.728916
   8        1.716293      1.729008
   9        9.305548      9.343537
  10       13.131708     13.143502
  11       13.131772     13.143567
  12       13.172456     13.183555
  13       13.172521     13.183621
  14       14.634939     14.687822
 
  0.1666667E+00 -0.1387779E-16  0.1666667E+00  0.5555556E-01
   1      -14.320277    -14.290553
   2      -14.071085    -14.041979
   3       -2.945843     -2.878096
   4       -1.311780     -1.236075
   5       -0.620802     -0.603838
   6       -0.566882     -0.549926
   7        0.556051      0.568462
   8        0.591028      0.603324
   9       10.100477     10.138491
  10       13.065153     13.088501
  11       13.221857     13.239746
  12       13.987861     14.069483
  13       14.315131     14.429006
  14       15.302131     15.369072
 
  0.3333333E+00  0.0000000E+00  0.1666667E+00  0.5555556E-01
   1      -12.365923    -12.337072
   2      -12.147247    -12.118759
   3       -4.977983     -4.956115
   4       -4.859910     -4.838286
   5       -1.068562     -1.056338
   6       -1.027204     -1.015206
   7       -0.640322     -0.571207
   8        0.806968      0.888200
   9        9.283207      9.355612
  10       10.060821     10.161634
  11       12.261049     12.283543
  12       12.426019     12.478925
  13       12.830399     12.859451
  14       17.020424     17.089295
 
  0.5000000E+00 -0.2775558E-16  0.1666667E+00  0.2777778E-01
   1       -9.635886     -9.610069
   2       -9.546024     -9.507292
   3       -8.571548     -8.557799
   4       -8.505614     -8.480604
   5       -1.709356     -1.697208
   6       -1.665429     -1.653535
   7        1.981534      2.026171
   8        2.548670      2.675336
   9        6.237715      6.250910
  10        6.768368      6.899283
  11       11.977103     12.014735
  12       12.322751     12.359610
  13       16.289600     16.277893
  14       16.297252     16.385929
 
  0.1666667E+00  0.1666667E+00  0.1666667E+00  0.5555556E-01
   1      -13.011746    -12.982641
   2      -12.783092    -12.754454
   3       -3.066669     -3.045907
   4       -3.018787     -2.996423
   5       -1.704875     -1.692655
   6       -1.671152     -1.657972
   7       -1.386614     -1.317689
   8        0.143670      0.222377
   9       10.917985     11.004297
  10       11.327572     11.430481
  11       11.704312     11.735925
  12       14.716972     14.742636
  13       14.955017     14.966640
  14       16.302111     16.344267
 
  0.3333333E+00  0.1666667E+00  0.1666667E+00  0.1111111E+00
   1      -10.494126    -10.465958
   2      -10.308158    -10.279647
   3       -6.765073     -6.741604
   4       -6.637305     -6.613618
   5       -3.367770     -3.353381
   6       -3.288822     -3.274536
   7        1.464121      1.530423
   8        2.611038      2.705455
   9        6.937075      7.006173
  10        7.584016      7.677096
  11       14.553501     14.571520
  12       14.679258     14.742672
  13       15.129444     15.152667
  14       16.879141     16.945477
 
  0.3333333E+00  0.3333333E+00  0.1666667E+00  0.1851852E-01
   1       -7.952202     -7.980082
   2       -7.923249     -7.837319
   3       -7.923246     -7.837317
   4       -7.786293     -7.813269
   5       -5.856029     -5.846189
   6       -5.856027     -5.846186
   7        4.224439      4.117372
   8        4.580625      4.854521
   9        4.580625      4.854521
  10        5.405334      5.291269
  11       15.488485     15.542914
  12       15.488488     15.542916
  13       17.230765     17.182500
  14       17.788612     17.869213
 
  0.0000000E+00  0.0000000E+00  0.3333333E+00  0.9259259E-02
   1      -14.930383    -14.900471
   2      -14.780779    -14.751272
   3       -3.430153     -3.362014
   4       -2.472837     -2.400610
   5        1.705627      1.718079
   6        1.705718      1.718171
   7        1.712458      1.725085
   8        1.712549      1.725177
   9       10.246517     10.288175
  10       13.140823     13.152474
  11       13.140887     13.152540
  12       13.161039     13.172282
  13       13.161104     13.172347
  14       13.188206     13.239540
 
  0.1666667E+00 -0.1387779E-16  0.3333333E+00  0.5555556E-01
   1      -14.269851    -14.240245
   2      -14.126043    -14.096788
   3       -2.638888     -2.570029
   4       -1.705769     -1.632480
   5       -0.606955     -0.589972
   6       -0.577044     -0.560071
   7        0.561059      0.573413
   8        0.583349      0.595684
   9       11.006781     11.049227
  10       13.052682     13.080963
  11       13.203283     13.221345
  12       13.883204     13.906219
  13       14.075620     14.213154
  14       14.329738     14.418478
 
  0.3333333E+00  0.0000000E+00  0.3333333E+00  0.5555556E-01
   1      -12.321463    -12.292677
   2      -12.195272    -12.166699
   3       -4.953329     -4.931517
   4       -4.884399     -4.862711
   5       -1.059347     -1.047156
   6       -1.036604     -1.024572
   7       -0.363981     -0.293120
   8        0.465733      0.543444
   9        9.415157      9.494260
  10        9.866963      9.961377
  11       12.391151     12.422223
  12       12.521128     12.558929
  13       13.460943     13.501164
  14       15.916667     15.974410
 
  0.5000000E+00 -0.2775558E-16  0.3333333E+00  0.2777778E-01
   1       -9.613944     -9.585731
   2       -9.561796     -9.526119
   3       -8.561847     -8.545363
   4       -8.523946     -8.500970
   5       -1.697570     -1.685438
   6       -1.669662     -1.657681
   7        2.132867      2.190474
   8        2.469379      2.574953
   9        6.246708      6.287762
  10        6.567421      6.676395
  11       12.047458     12.085421
  12       12.248365     12.285836
  13       16.785033     16.879201
  14       16.963993     16.957014
 
  0.1666667E+00  0.1666667E+00  0.3333333E+00  0.5555556E-01
   1      -12.964977    -12.935957
   2      -12.833302    -12.804553
   3       -3.056571     -3.035474
   4       -3.029065     -3.007084
   5       -1.697137     -1.684661
   6       -1.678993     -1.666037
   7       -1.097451     -1.027133
   8       -0.217272     -0.141450
   9       10.997980     11.087545
  10       11.234667     11.334349
  11       12.532140     12.568908
  12       14.626923     14.658125
  13       14.951930     14.967661
  14       15.265216     15.316001
 
  0.3333333E+00  0.1666667E+00  0.3333333E+00  0.1111111E+00
   1      -10.456142    -10.427904
   2      -10.348674    -10.320246
   3       -6.738414     -6.714888
   4       -6.666039     -6.642382
   5       -3.352970     -3.338613
   6       -3.309027     -3.294728
   7        1.690710      1.761091
   8        2.357716      2.443940
   9        7.041701      7.117786
  10        7.421292      7.511485
  11       14.645725     14.681148
  12       14.800921     14.850775
  13       15.352896     15.384035
  14       16.395092     16.454009
 
  0.3333333E+00  0.3333333E+00  0.3333333E+00  0.1851852E-01
   1       -7.922227     -7.946171
   2       -7.922225     -7.849324
   3       -7.918475     -7.836254
   4       -7.822131     -7.836252
   5       -5.859013     -5.849164
   6       -5.859010     -5.849161
   7        4.452995      4.344841
   8        4.597908      4.872638
   9        4.597908      4.872638
  10        5.129982      5.017857
  11       15.045751     15.101058
  12       15.045752     15.101060
  13       17.780745     17.734813
  14       18.693743     18.774476
 
  0.0000000E+00  0.0000000E+00  0.5000000E+00  0.4629630E-02
   1      -14.856832    -14.827113
   2      -14.856830    -14.827111
   3       -2.978616     -2.908683
   4       -2.978616     -2.908682
   5        1.708607      1.721144
   6        1.708609      1.721146
   7        1.708698      1.721236
   8        1.708700      1.721238
   9       11.608424     11.654784
  10       11.608424     11.654785
  11       13.147200     13.158607
  12       13.147202     13.158610
  13       13.147265     13.158673
  14       13.147267     13.158675
 
  0.1666667E+00 -0.1387779E-16  0.5000000E+00  0.2777778E-01
   1      -14.199004    -14.169565
   2      -14.199002    -14.169563
   3       -2.194373     -2.123616
   4       -2.194373     -2.123615
   5       -0.592783     -0.575811
   6       -0.592781     -0.575809
   7        0.574923      0.587280
   8        0.574925      0.587282
   9       12.289779     12.338240
  10       12.289780     12.338241
  11       13.207686     13.225868
  12       13.207688     13.225870
  13       14.178260     14.279866
  14       14.178265     14.279867
 
  0.3333333E+00  0.0000000E+00  0.5000000E+00  0.2777778E-01
   1      -12.259250    -12.230569
   2      -12.259248    -12.230567
   3       -4.921054     -4.899304
   4       -4.921052     -4.899302
   5       -1.050548     -1.038455
   6       -1.050546     -1.038453
   7        0.031293      0.105167
   8        0.031294      0.105168
   9        9.623221      9.710128
  10        9.623221      9.710129
  11       12.470368     12.504598
  12       12.470370     12.504600
  13       14.614745     14.662506
  14       14.614746     14.662506
 
  0.5000000E+00 -0.2775558E-16  0.5000000E+00  0.1388889E-01
   1       -9.586804     -9.555035
   2       -9.586802     -9.555034
   3       -8.547364     -8.527485
   4       -8.547362     -8.527483
   5       -1.685163     -1.673116
   6       -1.685161     -1.673114
   7        2.313585      2.392968
   8        2.313586      2.392969
   9        6.353905      6.430695
  10        6.353906      6.430696
  11       12.144103     12.182066
  12       12.144105     12.182068
  13       17.308188     17.382074
  14       17.308188     17.382075
 
  0.1666667E+00  0.1666667E+00  0.5000000E+00  0.2777778E-01
   1      -12.899906    -12.871011
   2      -12.899904    -12.871009
   3       -3.039123     -3.017582
   4       -3.039121     -3.017580
   5       -1.685697     -1.672960
   6       -1.685695     -1.672958
   7       -0.675349     -0.602647
   8       -0.675348     -0.602646
   9       11.119379     11.213754
  10       11.119380     11.213754
  11       13.686977     13.731391
  12       13.686978     13.731392
  13       14.953977     14.975904
  14       14.953979     14.975907
 
  0.3333333E+00  0.1666667E+00  0.5000000E+00  0.5555556E-01
   1      -10.403029    -10.374705
   2      -10.403027    -10.374703
   3       -6.702475     -6.678878
   4       -6.702473     -6.678876
   5       -3.329737     -3.315389
   6       -3.329735     -3.315387
   7        2.016073      2.093358
   8        2.016074      2.093359
   9        7.218656      7.302738
  10        7.218657      7.302738
  11       14.738693     14.780726
  12       14.738695     14.780728
  13       15.869660     15.917163
  14       15.869660     15.917163
 
  0.3333333E+00  0.3333333E+00  0.5000000E+00  0.9259259E-02
   1       -7.922403     -7.899014
   2       -7.922401     -7.899013
   3       -7.871604     -7.836463
   4       -7.871603     -7.836461
   5       -5.859607     -5.849744
   6       -5.859605     -5.849742
   7        4.605333      4.668821
   8        4.605334      4.668823
   9        4.778730      4.880446
  10        4.778731      4.880446
  11       14.877045     14.932042
  12       14.877045     14.932043
  13       18.498757     18.459323
  14       18.498760     18.459326
