       N       E                     dE             d eps       ncg     rms          rms(c)
DAV:   1     0.233139015716E+02    0.23314E+02   -0.65383E+03  1568   0.754E+02
DAV:   2    -0.352836515829E+02   -0.58598E+02   -0.54092E+02  2112   0.176E+02
DAV:   3    -0.376163625616E+02   -0.23327E+01   -0.23250E+01  2072   0.343E+01
DAV:   4    -0.376376011090E+02   -0.21239E-01   -0.21233E-01  1940   0.368E+00
DAV:   5    -0.376380294629E+02   -0.42835E-03   -0.42829E-03  2048   0.503E-01    0.119E+01
DAV:   6    -0.369966933551E+02    0.64134E+00   -0.20085E+00  1736   0.900E+00    0.473E+00
DAV:   7    -0.368818132994E+02    0.11488E+00   -0.11302E+00  1790   0.711E+00    0.186E+00
DAV:   8    -0.368293739333E+02    0.52439E-01   -0.22396E-01  1844   0.344E+00    0.639E-01
DAV:   9    -0.368407532191E+02   -0.11379E-01   -0.17470E-02  1778   0.116E+00    0.315E-01
DAV:  10    -0.368415623803E+02   -0.80916E-03   -0.15725E-03  1922   0.411E-01    0.120E-01
DAV:  11    -0.368418594881E+02   -0.29711E-03   -0.40201E-04  1790   0.175E-01    0.467E-02
DAV:  12    -0.368419518510E+02   -0.92363E-04   -0.12083E-04  1474   0.932E-02
   1 F= -.36841952E+02 E0= -.36841996E+02  d E =0.131026E-03  mag=     0.0909
