 vasp.5.2.12 11Nov11 complex                                                    
  
 executed on             LinuxIFC date 2012.10.17  09:53:37
 running on    1 nodes
 distr:  one band on    1 nodes,    1 groups


--------------------------------------------------------------------------------------------------------


 INCAR:
 POTCAR:   PAW_PBE C 08Apr2002                    
 POTCAR:   PAW_PBE C 08Apr2002                    
   VRHFIN =C: s2p2                                                              
   LEXCH  = PE                                                                  
   EATOM  =   147.1560 eV,   10.8157 Ry                                         
                                                                                
   TITEL  = PAW_PBE C 08Apr2002                                                 
   LULTRA =        F    use ultrasoft PP ?                                      
   IUNSCR =        0    unscreen: 0-lin 1-nonlin 2-no                           
   RPACOR =     .000    partial core radius                                     
   POMASS =   12.011; ZVAL   =    4.000    mass and valenz                      
   RCORE  =    1.500    outmost cutoff radius                                   
   RWIGS  =    1.630; RWIGS  =     .863    wigner-seitz radius (au A)           
   ENMAX  =  400.000; ENMIN  =  300.000 eV                                      
   ICORE  =        2    local potential                                         
   LCOR   =        T    correct aug charges                                     
   LPAW   =        T    paw PP                                                  
   EAUG   =  644.873                                                            
   DEXC   =     .000                                                            
   RMAX   =    2.266    core radius for proj-oper                               
   RAUG   =    1.300    factor for augmentation sphere                          
   RDEP   =    1.501    radius for radial grids                                 
   RDEPT  =    1.300    core radius for aug-charge                              
   QCUT   =   -5.516; QGAM   =   11.032    optimization parameters              
                                                                                
   Description                                                                  
     l     E      TYP  RCUT    TYP  RCUT                                        
     0   .000     23  1.200                                                     
     0   .000     23  1.200                                                     
     1   .000     23  1.500                                                     
     1  2.500     23  1.500                                                     
     2   .000      7  1.500                                                     
  local pseudopotential read in
  atomic valenz-charges read in
  non local Contribution for L=           0  read in
    real space projection operators read in
  non local Contribution for L=           0  read in
    real space projection operators read in
  non local Contribution for L=           1  read in
    real space projection operators read in
  non local Contribution for L=           1  read in
    real space projection operators read in
    PAW grid and wavefunctions read in
 
   number of l-projection  operators is LMAX  =           4
   number of lm-projection operators is LMMAX =           8
 
 PAW_PBE C 08Apr2002                    :
 energy of atom  1       EATOM= -147.1560
 kinetic energy error for atom=    0.0854 (will be added to EATOM!!)
 
 
 POSCAR:  C                                      
  positions in cartesian coordinates
  No initial velocities read in
 exchange correlation table for  LEXCH =        8
   RHO(1)=    0.500       N(1)  =     2000
   RHO(2)=  100.500       N(2)  =     4000
 


--------------------------------------------------------------------------------------------------------


 ion  position               nearest neighbor table
   1  0.000  0.000  0.000-   2 1.42   2 1.42   2 1.42
   2  0.333  0.667  0.000-   1 1.42   1 1.42   1 1.42
   3  0.333  0.667  0.500-   4 1.42   4 1.42   4 1.42
   4  0.667  0.333  0.500-   3 1.42   3 1.42   3 1.42
 
  LATTYP: Found a hexagonal cell.
 ALAT       =     2.4612000000
 C/A-ratio  =     2.7254591256
  
  Lattice vectors:
  
 A1 = (   2.4612000000,   0.0000000000,   0.0000000000)
 A2 = (  -1.2306000000,   2.1314617238,   0.0000000000)
 A3 = (   0.0000000000,   0.0000000000,   6.7079000000)
 Subroutine PRICEL returns:
 Original cell was already a primitive cell.
 

Analysis of symmetry for initial positions (statically):

 Routine SETGRP: Setting up the symmetry group for a 
 hexagonal supercell.


 Subroutine GETGRP returns: Found 24 space group operations
 (whereof 12 operations were pure point group operations)
 out of a pool of 24 trial point group operations.


The static configuration has the point symmetry D_3h.
 The point group associated with its full space group is D_6h.

Analysis of symmetry for dynamics (positions and initial velocities):

 Subroutine DYNSYM returns: Found 24 space group operations
 (whereof 12 operations were pure point group operations)
 out of a pool of 24 trial space group operations
 (whereof 12 operations were pure point group operations)
 and found also     1 'primitive' translations


The dynamic configuration has the point symmetry D_3h.
 The point group associated with its full space group is D_6h.

Analysis of magnetic symmetry:

 Subroutine MAGSYM returns: Found 24 space group operations
 (whereof 12 operations were pure point group operations)
 out of a pool of 24 trial space group operations
 (whereof 12 operations were pure point group operations)
 and found also     1 'primitive' translations


The magnetic configuration has the point symmetry D_3h.
 The point group associated with its full space group is D_6h.
 
 
 KPOINTS: KPOINTS created by Atomic Simulation Env

Automatic generation of k-mesh.
 
 Subroutine IBZKPT returns following result:
 ===========================================
 
 Found     28 irreducible k-points:
 
 Following reciprocal coordinates:
            Coordinates               Weight
  0.000000  0.000000  0.000000      1.000000
  0.166667  0.000000  0.000000      6.000000
  0.333333  0.000000  0.000000      6.000000
  0.500000  0.000000  0.000000      3.000000
  0.166667  0.166667  0.000000      6.000000
  0.333333  0.166667  0.000000     12.000000
  0.333333  0.333333  0.000000      2.000000
  0.000000  0.000000  0.166667      2.000000
  0.166667  0.000000  0.166667     12.000000
  0.333333  0.000000  0.166667     12.000000
  0.500000  0.000000  0.166667      6.000000
  0.166667  0.166667  0.166667     12.000000
  0.333333  0.166667  0.166667     24.000000
  0.333333  0.333333  0.166667      4.000000
  0.000000  0.000000  0.333333      2.000000
  0.166667  0.000000  0.333333     12.000000
  0.333333  0.000000  0.333333     12.000000
  0.500000  0.000000  0.333333      6.000000
  0.166667  0.166667  0.333333     12.000000
  0.333333  0.166667  0.333333     24.000000
  0.333333  0.333333  0.333333      4.000000
  0.000000  0.000000  0.500000      1.000000
  0.166667  0.000000  0.500000      6.000000
  0.333333  0.000000  0.500000      6.000000
  0.500000  0.000000  0.500000      3.000000
  0.166667  0.166667  0.500000      6.000000
  0.333333  0.166667  0.500000     12.000000
  0.333333  0.333333  0.500000      2.000000
 
 Following cartesian coordinates:
            Coordinates               Weight
  0.000000  0.000000  0.000000      1.000000
  0.067718  0.039097  0.000000      6.000000
  0.135435  0.078194  0.000000      6.000000
  0.203153  0.117290  0.000000      3.000000
  0.067718  0.117290  0.000000      6.000000
  0.135435  0.156387  0.000000     12.000000
  0.135435  0.234581  0.000000      2.000000
  0.000000  0.000000  0.024846      2.000000
  0.067718  0.039097  0.024846     12.000000
  0.135435  0.078194  0.024846     12.000000
  0.203153  0.117290  0.024846      6.000000
  0.067718  0.117290  0.024846     12.000000
  0.135435  0.156387  0.024846     24.000000
  0.135435  0.234581  0.024846      4.000000
  0.000000  0.000000  0.049693      2.000000
  0.067718  0.039097  0.049693     12.000000
  0.135435  0.078194  0.049693     12.000000
  0.203153  0.117290  0.049693      6.000000
  0.067718  0.117290  0.049693     12.000000
  0.135435  0.156387  0.049693     24.000000
  0.135435  0.234581  0.049693      4.000000
  0.000000  0.000000  0.074539      1.000000
  0.067718  0.039097  0.074539      6.000000
  0.135435  0.078194  0.074539      6.000000
  0.203153  0.117290  0.074539      3.000000
  0.067718  0.117290  0.074539      6.000000
  0.135435  0.156387  0.074539     12.000000
  0.135435  0.234581  0.074539      2.000000
 


--------------------------------------------------------------------------------------------------------




 Dimension of arrays:
   k-points           NKPTS =     28   k-points in BZ     NKDIM =     28   number of bands    NBANDS=     14
   number of dos      NEDOS =    301   number of ions     NIONS =      4
   non local maximal  LDIM  =      4   non local SUM 2l+1 LMDIM =      8
   total plane-waves  NPLWV =  10752
   max r-space proj   IRMAX =      1   max aug-charges    IRDMAX=   3805
   dimension x,y,z NGX =    16 NGY =   16 NGZ =   42
   dimension x,y,z NGXF=    32 NGYF=   32 NGZF=   84
   support grid    NGXF=    32 NGYF=   32 NGZF=   84
   ions per type =               4
 NGX,Y,Z   is equivalent  to a cutoff of  10.81, 10.81, 10.41 a.u.
 NGXF,Y,Z  is equivalent  to a cutoff of  21.61, 21.61, 20.82 a.u.


 I would recommend the setting:
   dimension x,y,z NGX =    15 NGY =   15 NGZ =   41
 SYSTEM =  unknown system                          
 POSCAR =   C                                      

 Startparameter for this run:
   NWRITE =      2    write-flag & timer
   PREC   = accura    normal or accurate (medium, high low for compatibility)
   ISTART =      0    job   : 0-new  1-cont  2-samecut
   ICHARG =      2    charge: 1-file 2-atom 10-const
   ISPIN  =      2    spin polarized calculation?
   LNONCOLLINEAR =      F non collinear calculations
   LSORBIT =      F    spin-orbit coupling
   INIWAV =      1    electr: 0-lowe 1-rand  2-diag
   LASPH  =      F    aspherical Exc in radial PAW
   METAGGA=      F    non-selfconsistent MetaGGA calc.

 Electronic Relaxation 1
   ENCUT  =  350.0 eV  25.72 Ry    5.07 a.u.   3.75  3.75 10.23*2*pi/ulx,y,z
   ENINI  =  350.0     initial cutoff
   ENAUG  =  644.9 eV  augmentation charge cutoff
   NELM   =     60;   NELMIN=  2; NELMDL= -5     # of ELM steps 
   EDIFF  = 0.1E-03   stopping-criterion for ELM
   LREAL  =      F    real-space projection
   NLSPLINE    = F    spline interpolate recip. space projectors
   LCOMPAT=      F    compatible to vasp.4.4
   GGA_COMPAT  = T    GGA compatible to vasp.4.4-vasp.4.6
   LMAXPAW     = -100 max onsite density
   LMAXMIX     =    2 max onsite mixed and CHGCAR
   VOSKOWN=      0    Vosko Wilk Nusair interpolation
   ROPT   =    0.00000
 Ionic relaxation
   EDIFFG = 0.1E-02   stopping-criterion for IOM
   NSW    =      0    number of steps for IOM
   NBLOCK =      1;   KBLOCK =      1    inner block; outer block 
   IBRION =     -1    ionic relax: 0-MD 1-quasi-New 2-CG
   NFREE  =      0    steps in history (QN), initial steepest desc. (CG)
   ISIF   =      2    stress and relaxation
   IWAVPR =     10    prediction:  0-non 1-charg 2-wave 3-comb
   ISYM   =      2    0-nonsym 1-usesym 2-fastsym
   LCORR  =      T    Harris-Foulkes like correction to forces

   POTIM  = 0.5000    time-step for ionic-motion
   TEIN   =    0.0    initial temperature
   TEBEG  =    0.0;   TEEND  =   0.0 temperature during run
   SMASS  =  -3.00    Nose mass-parameter (am)
   estimated Nose-frequenzy (Omega)   =  0.10E-29 period in steps =****** mass=  -0.138E-27a.u.
   SCALEE = 1.0000    scale energy and forces
   NPACO  =    256;   APACO  = 16.0  distance and # of slots for P.C.
   PSTRESS=    0.0 pullay stress

  Mass of Ions in am
   POMASS =  12.01
  Ionic Valenz
   ZVAL   =   4.00
  Atomic Wigner-Seitz radii
   RWIGS  =  -1.00
  virtual crystal weights 
   VCA    =   1.00
   NELECT =      16.0000    total number of electrons
   NUPDOWN=      -1.0000    fix difference up-down

 DOS related values:
   EMIN   =  10.00;   EMAX   =-10.00  energy-range for DOS
   EFERMI =   0.00
   ISMEAR =     1;   SIGMA  =   0.05  broadening in eV -4-tet -1-fermi 0-gaus

 Electronic relaxation 2 (details)
   IALGO  =     38    algorithm
   LDIAG  =      T    sub-space diagonalisation (order eigenvalues)
   LSUBROT=      T    optimize rotation matrix (better conditioning)
   TURBO    =      0    0=normal 1=particle mesh
   IRESTART =      0    0=no restart 2=restart with 2 vectors
   NREBOOT  =      0    no. of reboots
   NMIN     =      0    reboot dimension
   EREF     =   0.00    reference energy to select bands
   IMIX   =      4    mixing-type and parameters
     AMIX     =   0.40;   BMIX     =  1.00
     AMIX_MAG =   1.60;   BMIX_MAG =  1.00
     AMIN     =   0.10
     WC   =   100.;   INIMIX=   1;  MIXPRE=   1

 Intra band minimization:
   WEIMIN = 0.0000     energy-eigenvalue tresh-hold
   EBREAK =  0.18E-05  absolut break condition
   DEPER  =   0.30     relativ break condition  

   TIME   =   0.40     timestep for ELM

  volume/ion in A,a.u.               =       8.80        59.37
  Fermi-wavevector in a.u.,A,eV,Ry     =   1.258861  2.378903 21.561578  1.584731
  Thomas-Fermi vector in A             =   2.392450
 
 Write flags
   LWAVE  =      T    write WAVECAR
   LCHARG =      T    write CHGCAR
   LVTOT  =      F    write LOCPOT, total local potential
   LVHAR  =      F    write LOCPOT, Hartree potential only
   LELF   =      F    write electronic localiz. function (ELF)
   LORBIT =     11    0 simple, 1 ext, 2 COOP (PROOUT)


 Dipole corrections
   LMONO  =      F    monopole corrections only (constant potential shift)
   LDIPOL =      F    correct potential (dipole corrections)
   IDIPOL =      0    1-x, 2-y, 3-z, 4-all directions 
   EPSILON=  1.0000000 bulk dielectric constant

 Exchange correlation treatment:
   GGA     =    --    GGA type
   LEXCH   =     8    internal setting for exchange type
   VOSKOWN=      0    Vosko Wilk Nusair interpolation
   LHFCALC =     F    Hartree Fock is set to
   LHFONE  =     F    Hartree Fock one center treatment
   AEXX    =    0.0000 exact exchange contribution

 Linear response parameters
   LEPSILON=     F    determine dielectric tensor
   LRPA    =     F    only Hartree local field effects (RPA)
   LNABLA  =     F    use nabla operator in PAW spheres
   LVEL    =     F    velocity operator in full k-point grid
   LINTERFAST=   F  fast interpolation
   KINTER  =     0    interpolate to denser k-point grid
   CSHIFT  =0.1000    complex shift for real part using Kramers Kronig
   OMEGAMAX=  -1.0    maximum frequency
   RTIME   =    0.100 relaxation time in fs

 Orbital magnetization related:
   ORBITALMAG=     F  switch on orbital magnetization
   LCHIMAG   =     F  perturbation theory with respect to B field
   DQ        =  0.001000  dq finite difference perturbation B field



--------------------------------------------------------------------------------------------------------


 Static calculation
 charge density and potential will be updated during run
 spin polarized calculation
 Variant of blocked Davidson
 Davidson routine will perform the subspace rotation
 perform sub-space diagonalisation
    after iterative eigenvector-optimisation
 modified Broyden-mixing scheme, WC =      100.0
 initial mixing is a Kerker type mixing with AMIX =  0.4000 and BMIX =      1.0000
 Hartree-type preconditioning will be used
 using additional bands            6
 reciprocal scheme for non local part
 calculate Harris-corrections to forces 
   (improved forces if not selfconsistent)
 use gradient corrections 
 use of overlap-Matrix (Vanderbilt PP)
 Methfessel and Paxton  Order N= 1 SIGMA  =   0.05


--------------------------------------------------------------------------------------------------------


  energy-cutoff  :      350.00
  volume of cell :       35.19
      direct lattice vectors                 reciprocal lattice vectors
     2.461200000  0.000000000  0.000000000     0.406305867  0.234580802  0.000000000
    -1.230600000  2.131461724  0.000000000     0.000000000  0.469161603  0.000000000
     0.000000000  0.000000000  6.707900000     0.000000000  0.000000000  0.149077953

  length of vectors
     2.461200000  2.461200000  6.707900000     0.469161603  0.469161603  0.149077953


 
 k-points in units of 2pi/SCALE and weight: KPOINTS created by Atomic Simulation Env
   0.00000000  0.00000000  0.00000000       0.005
   0.06771764  0.03909680  0.00000000       0.028
   0.13543529  0.07819360  0.00000000       0.028
   0.20315293  0.11729040  0.00000000       0.014
   0.06771764  0.11729040  0.00000000       0.028
   0.13543529  0.15638720  0.00000000       0.056
   0.13543529  0.23458080  0.00000000       0.009
   0.00000000  0.00000000  0.02484633       0.009
   0.06771764  0.03909680  0.02484633       0.056
   0.13543529  0.07819360  0.02484633       0.056
   0.20315293  0.11729040  0.02484633       0.028
   0.06771764  0.11729040  0.02484633       0.056
   0.13543529  0.15638720  0.02484633       0.111
   0.13543529  0.23458080  0.02484633       0.019
   0.00000000  0.00000000  0.04969265       0.009
   0.06771764  0.03909680  0.04969265       0.056
   0.13543529  0.07819360  0.04969265       0.056
   0.20315293  0.11729040  0.04969265       0.028
   0.06771764  0.11729040  0.04969265       0.056
   0.13543529  0.15638720  0.04969265       0.111
   0.13543529  0.23458080  0.04969265       0.019
   0.00000000  0.00000000  0.07453898       0.005
   0.06771764  0.03909680  0.07453898       0.028
   0.13543529  0.07819360  0.07453898       0.028
   0.20315293  0.11729040  0.07453898       0.014
   0.06771764  0.11729040  0.07453898       0.028
   0.13543529  0.15638720  0.07453898       0.056
   0.13543529  0.23458080  0.07453898       0.009
 
 k-points in reciprocal lattice and weights: KPOINTS created by Atomic Simulation Env
   0.00000000  0.00000000  0.00000000       0.005
   0.16666667  0.00000000  0.00000000       0.028
   0.33333333  0.00000000  0.00000000       0.028
   0.50000000  0.00000000  0.00000000       0.014
   0.16666667  0.16666667  0.00000000       0.028
   0.33333333  0.16666667  0.00000000       0.056
   0.33333333  0.33333333  0.00000000       0.009
   0.00000000  0.00000000  0.16666667       0.009
   0.16666667  0.00000000  0.16666667       0.056
   0.33333333  0.00000000  0.16666667       0.056
   0.50000000  0.00000000  0.16666667       0.028
   0.16666667  0.16666667  0.16666667       0.056
   0.33333333  0.16666667  0.16666667       0.111
   0.33333333  0.33333333  0.16666667       0.019
   0.00000000  0.00000000  0.33333333       0.009
   0.16666667  0.00000000  0.33333333       0.056
   0.33333333  0.00000000  0.33333333       0.056
   0.50000000  0.00000000  0.33333333       0.028
   0.16666667  0.16666667  0.33333333       0.056
   0.33333333  0.16666667  0.33333333       0.111
   0.33333333  0.33333333  0.33333333       0.019
   0.00000000  0.00000000  0.50000000       0.005
   0.16666667  0.00000000  0.50000000       0.028
   0.33333333  0.00000000  0.50000000       0.028
   0.50000000  0.00000000  0.50000000       0.014
   0.16666667  0.16666667  0.50000000       0.028
   0.33333333  0.16666667  0.50000000       0.056
   0.33333333  0.33333333  0.50000000       0.009
 
 position of ions in fractional coordinates (direct lattice) 
   0.00000000  0.00000000  0.00000000
   0.33333333  0.66666667  0.00000000
   0.33333333  0.66666667  0.50000000
   0.66666667  0.33333333  0.50000000
 
 position of ions in cartesian coordinates  (Angst):
   0.00000000  0.00000000  0.00000000
   0.00000000  1.42097448  0.00000000
   0.00000000  1.42097448  3.35395000
   1.23060000  0.71048724  3.35395000
 


--------------------------------------------------------------------------------------------------------


 k-point  1 :  0.00000.00000.0000  plane waves:     513
 k-point  2 :  0.16670.00000.0000  plane waves:     525
 k-point  3 :  0.33330.00000.0000  plane waves:     524
 k-point  4 :  0.50000.00000.0000  plane waves:     526
 k-point  5 :  0.16670.16670.0000  plane waves:     518
 k-point  6 :  0.33330.16670.0000  plane waves:     524
 k-point  7 :  0.33330.33330.0000  plane waves:     534
 k-point  8 :  0.00000.00000.1667  plane waves:     525
 k-point  9 :  0.16670.00000.1667  plane waves:     527
 k-point 10 :  0.33330.00000.1667  plane waves:     521
 k-point 11 :  0.50000.00000.1667  plane waves:     526
 k-point 12 :  0.16670.16670.1667  plane waves:     521
 k-point 13 :  0.33330.16670.1667  plane waves:     524
 k-point 14 :  0.33330.33330.1667  plane waves:     531
 k-point 15 :  0.00000.00000.3333  plane waves:     530
 k-point 16 :  0.16670.00000.3333  plane waves:     523
 k-point 17 :  0.33330.00000.3333  plane waves:     518
 k-point 18 :  0.50000.00000.3333  plane waves:     518
 k-point 19 :  0.16670.16670.3333  plane waves:     518
 k-point 20 :  0.33330.16670.3333  plane waves:     527
 k-point 21 :  0.33330.33330.3333  plane waves:     531
 k-point 22 :  0.00000.00000.5000  plane waves:     536
 k-point 23 :  0.16670.00000.5000  plane waves:     522
 k-point 24 :  0.33330.00000.5000  plane waves:     526
 k-point 25 :  0.50000.00000.5000  plane waves:     528
 k-point 26 :  0.16670.16670.5000  plane waves:     510
 k-point 27 :  0.33330.16670.5000  plane waves:     526
 k-point 28 :  0.33330.33330.5000  plane waves:     540

 maximum and minimum number of plane-waves per node :       540      510

 maximum number of plane-waves:       540
 maximum index in each direction: 
   IXMAX=    3   IYMAX=    3   IZMAX=   10
   IXMIN=   -4   IYMIN=   -4   IZMIN=  -10

 NGX is ok and might be reduce to  16
 NGY is ok and might be reduce to  16
 NGZ is ok and might be reduce to  42

 serial   3D FFT for wavefunctions
 parallel 3D FFT for charge:
    minimum data exchange during FFTs selected (reduces bandwidth)


 total amount of memory used by VASP on root node    48373. kBytes
========================================================================

   base      :      30000. kBytes
   nonl-proj :       1002. kBytes
   fftplans  :       2996. kBytes
   grid      :       7176. kBytes
   one-center:         24. kBytes
   wavefun   :       7175. kBytes
 
 Broyden mixing: mesh for mixing (old mesh)
   NGX =  7   NGY =  7   NGZ = 21
  (NGX  = 32   NGY  = 32   NGZ  = 84)
  gives a total of   1029 points

 initial charge density was supplied:
 charge density of overlapping atoms calculated
 number of electron      16.0000000 magnetization       4.0000000
 keeping initial charge density in first step


--------------------------------------------------------------------------------------------------------


 Maximum index for augmentation-charges         3509 (set IRDMAX)


--------------------------------------------------------------------------------------------------------


 First call to EWALD:  gamma=   0.541
 Maximum number of real-space cells 4x 4x 2
 Maximum number of reciprocal cells 2x 2x 5

    FEWALD:  cpu time    0.00: real time    0.00


----------------------------------------- Iteration    1(   1)  ---------------------------------------


    POTLOK:  cpu time    0.29: real time    0.29
    SETDIJ:  cpu time    0.04: real time    0.04
     EDDAV:  cpu time    2.92: real time    2.92
       DOS:  cpu time    0.01: real time    0.01
    --------------------------------------------
      LOOP:  cpu time    3.26: real time    3.26

 eigenvalue-minimisations  :  1568
 total energy-change (2. order) : 0.2331390E+02  (-0.6538287E+03)
 number of electron      16.0000000 magnetization       4.0000000
 augmentation part       16.0000000 magnetization       4.0000000

 Free energy of the ion-electron system (eV)
  ---------------------------------------------------
  alpha Z        PSCENC =        37.04766603
  Ewald energy   TEWEN  =      -460.60042082
  -1/2 Hartree   DENC   =      -148.78490797
  -exchange  EXHF       =         0.00000000
  -V(xc)+E(xc)   XCENC  =        56.10990993
  PAW double counting   =       150.95130483     -155.51722924
  entropy T*S    EENTRO =        -0.00054296
  eigenvalues    EBANDS =       -44.17434211
  atomic energy  EATOM  =       588.28246388
  ---------------------------------------------------
  free energy    TOTEN  =        23.31390157 eV

  energy without entropy =       23.31444453  energy(sigma->0) =       23.31408256


--------------------------------------------------------------------------------------------------------




----------------------------------------- Iteration    1(   2)  ---------------------------------------


     EDDAV:  cpu time    3.64: real time    3.64
       DOS:  cpu time    0.00: real time    0.01
    --------------------------------------------
      LOOP:  cpu time    3.65: real time    3.65

 eigenvalue-minimisations  :  2112
 total energy-change (2. order) :-0.5859755E+02  (-0.5409215E+02)
 number of electron      16.0000000 magnetization       4.0000000
 augmentation part       16.0000000 magnetization       4.0000000

 Free energy of the ion-electron system (eV)
  ---------------------------------------------------
  alpha Z        PSCENC =        37.04766603
  Ewald energy   TEWEN  =      -460.60042082
  -1/2 Hartree   DENC   =      -148.78490797
  -exchange  EXHF       =         0.00000000
  -V(xc)+E(xc)   XCENC  =        56.10990993
  PAW double counting   =       150.95130483     -155.51722924
  entropy T*S    EENTRO =         0.00002269
  eigenvalues    EBANDS =      -102.77246091
  atomic energy  EATOM  =       588.28246388
  ---------------------------------------------------
  free energy    TOTEN  =       -35.28365158 eV

  energy without entropy =      -35.28367427  energy(sigma->0) =      -35.28365915


--------------------------------------------------------------------------------------------------------




----------------------------------------- Iteration    1(   3)  ---------------------------------------


     EDDAV:  cpu time    3.60: real time    3.60
       DOS:  cpu time    0.00: real time    0.00
    --------------------------------------------
      LOOP:  cpu time    3.60: real time    3.61

 eigenvalue-minimisations  :  2072
 total energy-change (2. order) :-0.2332711E+01  (-0.2325011E+01)
 number of electron      16.0000000 magnetization       4.0000000
 augmentation part       16.0000000 magnetization       4.0000000

 Free energy of the ion-electron system (eV)
  ---------------------------------------------------
  alpha Z        PSCENC =        37.04766603
  Ewald energy   TEWEN  =      -460.60042082
  -1/2 Hartree   DENC   =      -148.78490797
  -exchange  EXHF       =         0.00000000
  -V(xc)+E(xc)   XCENC  =        56.10990993
  PAW double counting   =       150.95130483     -155.51722924
  entropy T*S    EENTRO =         0.00001674
  eigenvalues    EBANDS =      -105.10516594
  atomic energy  EATOM  =       588.28246388
  ---------------------------------------------------
  free energy    TOTEN  =       -37.61636256 eV

  energy without entropy =      -37.61637930  energy(sigma->0) =      -37.61636814


--------------------------------------------------------------------------------------------------------




----------------------------------------- Iteration    1(   4)  ---------------------------------------


     EDDAV:  cpu time    3.41: real time    3.41
       DOS:  cpu time    0.00: real time    0.01
    --------------------------------------------
      LOOP:  cpu time    3.41: real time    3.43

 eigenvalue-minimisations  :  1940
 total energy-change (2. order) :-0.2123855E-01  (-0.2123264E-01)
 number of electron      16.0000000 magnetization       4.0000000
 augmentation part       16.0000000 magnetization       4.0000000

 Free energy of the ion-electron system (eV)
  ---------------------------------------------------
  alpha Z        PSCENC =        37.04766603
  Ewald energy   TEWEN  =      -460.60042082
  -1/2 Hartree   DENC   =      -148.78490797
  -exchange  EXHF       =         0.00000000
  -V(xc)+E(xc)   XCENC  =        56.10990993
  PAW double counting   =       150.95130483     -155.51722924
  entropy T*S    EENTRO =         0.00001690
  eigenvalues    EBANDS =      -105.12640465
  atomic energy  EATOM  =       588.28246388
  ---------------------------------------------------
  free energy    TOTEN  =       -37.63760111 eV

  energy without entropy =      -37.63761801  energy(sigma->0) =      -37.63760674


--------------------------------------------------------------------------------------------------------




----------------------------------------- Iteration    1(   5)  ---------------------------------------


     EDDAV:  cpu time    3.56: real time    3.56
       DOS:  cpu time    0.00: real time    0.01
    CHARGE:  cpu time    0.26: real time    0.26
    MIXING:  cpu time    0.01: real time    0.01
    --------------------------------------------
      LOOP:  cpu time    3.83: real time    3.85

 eigenvalue-minimisations  :  2048
 total energy-change (2. order) :-0.4283539E-03  (-0.4282874E-03)
 number of electron      15.9999998 magnetization       1.1751764
 augmentation part        0.4146566 magnetization       0.9689381

 Broyden mixing:
  rms(total) = 0.11903E+01    rms(broyden)= 0.11898E+01
  rms(prec ) = 0.15411E+01
  weight for this iteration     100.00

 Free energy of the ion-electron system (eV)
  ---------------------------------------------------
  alpha Z        PSCENC =        37.04766603
  Ewald energy   TEWEN  =      -460.60042082
  -1/2 Hartree   DENC   =      -148.78490797
  -exchange  EXHF       =         0.00000000
  -V(xc)+E(xc)   XCENC  =        56.10990993
  PAW double counting   =       150.95130483     -155.51722924
  entropy T*S    EENTRO =         0.00001690
  eigenvalues    EBANDS =      -105.12683301
  atomic energy  EATOM  =       588.28246388
  ---------------------------------------------------
  free energy    TOTEN  =       -37.63802946 eV

  energy without entropy =      -37.63804637  energy(sigma->0) =      -37.63803510


--------------------------------------------------------------------------------------------------------




----------------------------------------- Iteration    1(   6)  ---------------------------------------


    POTLOK:  cpu time    0.29: real time    0.29
    SETDIJ:  cpu time    0.04: real time    0.04
     EDDAV:  cpu time    3.13: real time    3.14
       DOS:  cpu time    0.00: real time    0.00
    CHARGE:  cpu time    0.26: real time    0.26
    MIXING:  cpu time    0.01: real time    0.01
    --------------------------------------------
      LOOP:  cpu time    3.74: real time    3.76

 eigenvalue-minimisations  :  1736
 total energy-change (2. order) : 0.6413361E+00  (-0.2008549E+00)
 number of electron      15.9999999 magnetization       0.1569555
 augmentation part        0.3965785 magnetization       0.0307711

 Broyden mixing:
  rms(total) = 0.47266E+00    rms(broyden)= 0.47257E+00
  rms(prec ) = 0.68884E+00
  weight for this iteration     100.00

 eigenvalues of (default mixing * dielectric matrix)
  average eigenvalue GAMMA=   0.9654
  0.9654

 Free energy of the ion-electron system (eV)
  ---------------------------------------------------
  alpha Z        PSCENC =        37.04766603
  Ewald energy   TEWEN  =      -460.60042082
  -1/2 Hartree   DENC   =      -165.11757388
  -exchange  EXHF       =         0.00000000
  -V(xc)+E(xc)   XCENC  =        56.77140485
  PAW double counting   =       206.18972162     -211.10435877
  entropy T*S    EENTRO =         0.00011596
  eigenvalues    EBANDS =       -88.46571224
  atomic energy  EATOM  =       588.28246388
  ---------------------------------------------------
  free energy    TOTEN  =       -36.99669336 eV

  energy without entropy =      -36.99680931  energy(sigma->0) =      -36.99673201


--------------------------------------------------------------------------------------------------------




----------------------------------------- Iteration    1(   7)  ---------------------------------------


    POTLOK:  cpu time    0.29: real time    0.29
    SETDIJ:  cpu time    0.04: real time    0.04
     EDDAV:  cpu time    3.21: real time    3.21
       DOS:  cpu time    0.00: real time    0.01
    CHARGE:  cpu time    0.26: real time    0.26
    MIXING:  cpu time    0.00: real time    0.01
    --------------------------------------------
      LOOP:  cpu time    3.81: real time    3.82

 eigenvalue-minimisations  :  1790
 total energy-change (2. order) : 0.1148801E+00  (-0.1130183E+00)
 number of electron      15.9999999 magnetization      -0.0582115
 augmentation part        0.3841726 magnetization      -0.1498471

 Broyden mixing:
  rms(total) = 0.18610E+00    rms(broyden)= 0.18602E+00
  rms(prec ) = 0.26499E+00
  weight for this iteration     100.00

 eigenvalues of (default mixing * dielectric matrix)
  average eigenvalue GAMMA=   1.2048
  0.8307  1.5788

 Free energy of the ion-electron system (eV)
  ---------------------------------------------------
  alpha Z        PSCENC =        37.04766603
  Ewald energy   TEWEN  =      -460.60042082
  -1/2 Hartree   DENC   =      -176.50479730
  -exchange  EXHF       =         0.00000000
  -V(xc)+E(xc)   XCENC  =        57.23268035
  PAW double counting   =       249.40139308     -254.48191934
  entropy T*S    EENTRO =         0.00032187
  eigenvalues    EBANDS =       -77.25920105
  atomic energy  EATOM  =       588.28246388
  ---------------------------------------------------
  free energy    TOTEN  =       -36.88181330 eV

  energy without entropy =      -36.88213517  energy(sigma->0) =      -36.88192059


--------------------------------------------------------------------------------------------------------




----------------------------------------- Iteration    1(   8)  ---------------------------------------


    POTLOK:  cpu time    0.29: real time    0.29
    SETDIJ:  cpu time    0.04: real time    0.04
     EDDAV:  cpu time    3.28: real time    3.28
       DOS:  cpu time    0.00: real time    0.01
    CHARGE:  cpu time    0.26: real time    0.26
    MIXING:  cpu time    0.01: real time    0.01
    --------------------------------------------
      LOOP:  cpu time    3.88: real time    3.90

 eigenvalue-minimisations  :  1844
 total energy-change (2. order) : 0.5243937E-01  (-0.2239632E-01)
 number of electron      15.9999999 magnetization       0.0637161
 augmentation part        0.3773973 magnetization      -0.0242698

 Broyden mixing:
  rms(total) = 0.63944E-01    rms(broyden)= 0.63878E-01
  rms(prec ) = 0.76195E-01
  weight for this iteration     100.00

 eigenvalues of (default mixing * dielectric matrix)
  average eigenvalue GAMMA=   1.1921
  1.8209  0.9849  0.7706

 Free energy of the ion-electron system (eV)
  ---------------------------------------------------
  alpha Z        PSCENC =        37.04766603
  Ewald energy   TEWEN  =      -460.60042082
  -1/2 Hartree   DENC   =      -182.44247623
  -exchange  EXHF       =         0.00000000
  -V(xc)+E(xc)   XCENC  =        57.62722948
  PAW double counting   =       274.18537653     -279.32285412
  entropy T*S    EENTRO =         0.00012500
  eigenvalues    EBANDS =       -71.60648368
  atomic energy  EATOM  =       588.28246388
  ---------------------------------------------------
  free energy    TOTEN  =       -36.82937393 eV

  energy without entropy =      -36.82949893  energy(sigma->0) =      -36.82941560


--------------------------------------------------------------------------------------------------------




----------------------------------------- Iteration    1(   9)  ---------------------------------------


    POTLOK:  cpu time    0.29: real time    0.29
    SETDIJ:  cpu time    0.04: real time    0.04
     EDDAV:  cpu time    3.19: real time    3.19
       DOS:  cpu time    0.01: real time    0.01
    CHARGE:  cpu time    0.26: real time    0.26
    MIXING:  cpu time    0.01: real time    0.01
    --------------------------------------------
      LOOP:  cpu time    3.79: real time    3.80

 eigenvalue-minimisations  :  1778
 total energy-change (2. order) :-0.1137929E-01  (-0.1747047E-02)
 number of electron      15.9999999 magnetization       0.1172165
 augmentation part        0.3761283 magnetization       0.0243495

 Broyden mixing:
  rms(total) = 0.31466E-01    rms(broyden)= 0.31457E-01
  rms(prec ) = 0.37686E-01
  weight for this iteration     100.00

 eigenvalues of (default mixing * dielectric matrix)
  average eigenvalue GAMMA=   1.2804
  2.1512  1.4064  0.8813  0.6825

 Free energy of the ion-electron system (eV)
  ---------------------------------------------------
  alpha Z        PSCENC =        37.04766603
  Ewald energy   TEWEN  =      -460.60042082
  -1/2 Hartree   DENC   =      -183.16677187
  -exchange  EXHF       =         0.00000000
  -V(xc)+E(xc)   XCENC  =        57.66987862
  PAW double counting   =       278.66632316     -283.78329763
  entropy T*S    EENTRO =         0.00021888
  eigenvalues    EBANDS =       -70.95681347
  atomic energy  EATOM  =       588.28246388
  ---------------------------------------------------
  free energy    TOTEN  =       -36.84075322 eV

  energy without entropy =      -36.84097210  energy(sigma->0) =      -36.84082618


--------------------------------------------------------------------------------------------------------




----------------------------------------- Iteration    1(  10)  ---------------------------------------


    POTLOK:  cpu time    0.29: real time    0.29
    SETDIJ:  cpu time    0.04: real time    0.04
     EDDAV:  cpu time    3.38: real time    3.38
       DOS:  cpu time    0.00: real time    0.01
    CHARGE:  cpu time    0.26: real time    0.26
    MIXING:  cpu time    0.01: real time    0.01
    --------------------------------------------
      LOOP:  cpu time    3.99: real time    4.00

 eigenvalue-minimisations  :  1922
 total energy-change (2. order) :-0.8091611E-03  (-0.1572479E-03)
 number of electron      15.9999999 magnetization       0.1002543
 augmentation part        0.3760391 magnetization       0.0128417

 Broyden mixing:
  rms(total) = 0.12045E-01    rms(broyden)= 0.12041E-01
  rms(prec ) = 0.14892E-01
  weight for this iteration     100.00

 eigenvalues of (default mixing * dielectric matrix)
  average eigenvalue GAMMA=   1.2553
  2.3129  1.4983  0.9963  0.8164  0.6524

 Free energy of the ion-electron system (eV)
  ---------------------------------------------------
  alpha Z        PSCENC =        37.04766603
  Ewald energy   TEWEN  =      -460.60042082
  -1/2 Hartree   DENC   =      -183.39569156
  -exchange  EXHF       =         0.00000000
  -V(xc)+E(xc)   XCENC  =        57.68724418
  PAW double counting   =       280.62782079     -285.72577240
  entropy T*S    EENTRO =         0.00006689
  eigenvalues    EBANDS =       -70.76493937
  atomic energy  EATOM  =       588.28246388
  ---------------------------------------------------
  free energy    TOTEN  =       -36.84156238 eV

  energy without entropy =      -36.84162927  energy(sigma->0) =      -36.84158468


--------------------------------------------------------------------------------------------------------




----------------------------------------- Iteration    1(  11)  ---------------------------------------


    POTLOK:  cpu time    0.29: real time    0.29
    SETDIJ:  cpu time    0.04: real time    0.04
     EDDAV:  cpu time    3.21: real time    3.21
       DOS:  cpu time    0.00: real time    0.01
    CHARGE:  cpu time    0.26: real time    0.26
    MIXING:  cpu time    0.01: real time    0.01
    --------------------------------------------
      LOOP:  cpu time    3.81: real time    3.82

 eigenvalue-minimisations  :  1790
 total energy-change (2. order) :-0.2971078E-03  (-0.4020055E-04)
 number of electron      15.9999999 magnetization       0.0891862
 augmentation part        0.3760652 magnetization       0.0025178

 Broyden mixing:
  rms(total) = 0.46705E-02    rms(broyden)= 0.46696E-02
  rms(prec ) = 0.58603E-02
  weight for this iteration     100.00

 eigenvalues of (default mixing * dielectric matrix)
  average eigenvalue GAMMA=   1.3514
  2.5049  1.9045  1.4050  0.9037  0.7595  0.6308

 Free energy of the ion-electron system (eV)
  ---------------------------------------------------
  alpha Z        PSCENC =        37.04766603
  Ewald energy   TEWEN  =      -460.60042082
  -1/2 Hartree   DENC   =      -183.44433415
  -exchange  EXHF       =         0.00000000
  -V(xc)+E(xc)   XCENC  =        57.69131623
  PAW double counting   =       281.06671784     -286.15576877
  entropy T*S    EENTRO =         0.00012282
  eigenvalues    EBANDS =       -70.72962255
  atomic energy  EATOM  =       588.28246388
  ---------------------------------------------------
  free energy    TOTEN  =       -36.84185949 eV

  energy without entropy =      -36.84198231  energy(sigma->0) =      -36.84190043


--------------------------------------------------------------------------------------------------------




----------------------------------------- Iteration    1(  12)  ---------------------------------------


    POTLOK:  cpu time    0.29: real time    0.29
    SETDIJ:  cpu time    0.04: real time    0.04
     EDDAV:  cpu time    2.82: real time    2.82
       DOS:  cpu time    0.00: real time    0.00
    --------------------------------------------
      LOOP:  cpu time    3.16: real time    3.23

 eigenvalue-minimisations  :  1474
 total energy-change (2. order) :-0.9236294E-04  (-0.1208259E-04)
 number of electron      15.9999999 magnetization       0.0891862
 augmentation part        0.3760652 magnetization       0.0025178

 Free energy of the ion-electron system (eV)
  ---------------------------------------------------
  alpha Z        PSCENC =        37.04766603
  Ewald energy   TEWEN  =      -460.60042082
  -1/2 Hartree   DENC   =      -183.45628997
  -exchange  EXHF       =         0.00000000
  -V(xc)+E(xc)   XCENC  =        57.69265465
  PAW double counting   =       281.11514786     -286.19973200
  entropy T*S    EENTRO =         0.00013103
  eigenvalues    EBANDS =       -70.72357250
  atomic energy  EATOM  =       588.28246388
  ---------------------------------------------------
  free energy    TOTEN  =       -36.84195185 eV

  energy without entropy =      -36.84208288  energy(sigma->0) =      -36.84199553


--------------------------------------------------------------------------------------------------------




 average (electrostatic) potential at core
  the test charge radii are     0.6991
  (the norm of the test charge is              1.0000)
       1 -50.7241       2 -50.7495       3 -50.7495       4 -50.7241
 
 
 
 E-fermi :   4.7229     XC(G=0): -10.3263     alpha+bet :-11.4114


 spin component 1

 k-point   1 :       0.0000    0.0000    0.0000
  band No.  band energies     occupation 
      1     -15.0014      1.00000
      2     -14.7020      1.00000
      3      -3.8552      1.00000
      4      -1.9024      1.00000
      5       1.7172      1.00000
      6       1.7173      1.00000
      7       1.7218      1.00000
      8       1.7219      1.00000
      9       8.9671      0.00000
     10      13.1374      0.00000
     11      13.1375      0.00000
     12      13.2010      0.00000
     13      13.2010      0.00000
     14      15.2977      0.00000

 k-point   2 :       0.1667    0.0000    0.0000
  band No.  band energies     occupation 
      1     -14.3385      1.00000
      2     -14.0507      1.00000
      3      -3.0518      1.00000
      4      -1.1563      1.00000
      5      -0.6252      1.00000
      6      -0.5624      1.00000
      7       0.5494      1.00000
      8       0.5934      1.00000
      9       9.7729      0.00000
     10      13.0615      0.00000
     11      13.2350      0.00000
     12      13.9575      0.00000
     13      14.3561      0.00000
     14      15.7089      0.00000

 k-point   3 :       0.3333    0.0000    0.0000
  band No.  band energies     occupation 
      1     -12.3822      1.00000
      2     -12.1293      1.00000
      3      -4.9870      1.00000
      4      -4.8537      1.00000
      5      -1.0771      1.00000
      6      -1.0215      1.00000
      7      -0.7409      1.00000
      8       0.9453      1.00000
      9       9.2378      0.00000
     10      10.1351      0.00000
     11      12.0841      0.00000
     12      12.3620      0.00000
     13      12.7567      0.00000
     14      17.4818      0.00000

 k-point   4 :       0.5000    0.0000    0.0000
  band No.  band energies     occupation 
      1      -9.6431      1.00000
      2      -9.5406      1.00000
      3      -8.5742      1.00000
      4      -8.4982      1.00000
      5      -1.7185      1.00000
      6      -1.6611      1.00000
      7       1.9233      1.00000
      8       2.5667      1.00000
      9       6.2529      0.00000
     10       6.8485      0.00000
     11      11.9522      0.00000
     12      12.3512      0.00000
     13      16.0302      0.00000
     14      16.1108      0.00000

 k-point   5 :       0.1667    0.1667    0.0000
  band No.  band energies     occupation 
      1     -13.0286      1.00000
      2     -12.7644      1.00000
      3      -3.0701      1.00000
      4      -3.0146      1.00000
      5      -1.7081      1.00000
      6      -1.6686      1.00000
      7      -1.4856      1.00000
      8       0.2850      1.00000
      9      10.8843      0.00000
     10      11.3750      0.00000
     11      11.3933      0.00000
     12      14.7144      0.00000
     13      14.9585      0.00000
     14      16.3181      0.00000

 k-point   6 :       0.3333    0.1667    0.0000
  band No.  band energies     occupation 
      1     -10.5077      1.00000
      2     -10.2931      1.00000
      3      -6.7747      1.00000
      4      -6.6264      1.00000
      5      -3.3739      1.00000
      6      -3.2843      1.00000
      7       1.3790      1.00000
      8       2.7042      1.00000
      9       6.9062      0.00000
     10       7.6396      0.00000
     11      14.4506      0.00000
     12      14.6161      0.00000
     13      15.1255      0.00000
     14      17.1687      0.00000

 k-point   7 :       0.3333    0.3333    0.0000
  band No.  band energies     occupation 
      1      -7.9647      1.00000
      2      -7.9240      1.00000
      3      -7.9240      1.00000
      4      -7.7732      1.00000
      5      -5.8542      1.00000
      6      -5.8542      1.00000
      7       4.1366      1.00000
      8       4.5697      1.00007
      9       4.5697      1.00007
     10       5.5130      0.00000
     11      15.8465      0.00000
     12      15.8465      0.00000
     13      17.0226      0.00000
     14      17.2649      0.00000

 k-point   8 :       0.0000    0.0000    0.1667
  band No.  band energies     occupation 
      1     -14.9827      1.00000
      2     -14.7234      1.00000
      3      -3.7440      1.00000
      4      -2.0649      1.00000
      5       1.7056      1.00000
      6       1.7057      1.00000
      7       1.7162      1.00000
      8       1.7163      1.00000
      9       9.3055      0.00000
     10      13.1317      0.00000
     11      13.1318      0.00000
     12      13.1725      0.00000
     13      13.1725      0.00000
     14      14.6349      0.00000

 k-point   9 :       0.1667    0.0000    0.1667
  band No.  band energies     occupation 
      1     -14.3203      1.00000
      2     -14.0711      1.00000
      3      -2.9458      1.00000
      4      -1.3118      1.00000
      5      -0.6208      1.00000
      6      -0.5669      1.00000
      7       0.5561      1.00000
      8       0.5910      1.00000
      9      10.1005      0.00000
     10      13.0652      0.00000
     11      13.2219      0.00000
     12      13.9879      0.00000
     13      14.3151      0.00000
     14      15.3021      0.00000

 k-point  10 :       0.3333    0.0000    0.1667
  band No.  band energies     occupation 
      1     -12.3659      1.00000
      2     -12.1472      1.00000
      3      -4.9780      1.00000
      4      -4.8599      1.00000
      5      -1.0686      1.00000
      6      -1.0272      1.00000
      7      -0.6403      1.00000
      8       0.8070      1.00000
      9       9.2832      0.00000
     10      10.0608      0.00000
     11      12.2610      0.00000
     12      12.4260      0.00000
     13      12.8304      0.00000
     14      17.0204      0.00000

 k-point  11 :       0.5000    0.0000    0.1667
  band No.  band energies     occupation 
      1      -9.6359      1.00000
      2      -9.5460      1.00000
      3      -8.5715      1.00000
      4      -8.5056      1.00000
      5      -1.7094      1.00000
      6      -1.6654      1.00000
      7       1.9815      1.00000
      8       2.5487      1.00000
      9       6.2377      0.00000
     10       6.7684      0.00000
     11      11.9771      0.00000
     12      12.3228      0.00000
     13      16.2896      0.00000
     14      16.2973      0.00000

 k-point  12 :       0.1667    0.1667    0.1667
  band No.  band energies     occupation 
      1     -13.0117      1.00000
      2     -12.7831      1.00000
      3      -3.0667      1.00000
      4      -3.0188      1.00000
      5      -1.7049      1.00000
      6      -1.6712      1.00000
      7      -1.3866      1.00000
      8       0.1437      1.00000
      9      10.9180      0.00000
     10      11.3276      0.00000
     11      11.7043      0.00000
     12      14.7170      0.00000
     13      14.9550      0.00000
     14      16.3021      0.00000

 k-point  13 :       0.3333    0.1667    0.1667
  band No.  band energies     occupation 
      1     -10.4941      1.00000
      2     -10.3082      1.00000
      3      -6.7651      1.00000
      4      -6.6373      1.00000
      5      -3.3678      1.00000
      6      -3.2888      1.00000
      7       1.4641      1.00000
      8       2.6110      1.00000
      9       6.9371      0.00000
     10       7.5840      0.00000
     11      14.5535      0.00000
     12      14.6793      0.00000
     13      15.1294      0.00000
     14      16.8791      0.00000

 k-point  14 :       0.3333    0.3333    0.1667
  band No.  band energies     occupation 
      1      -7.9522      1.00000
      2      -7.9232      1.00000
      3      -7.9232      1.00000
      4      -7.7863      1.00000
      5      -5.8560      1.00000
      6      -5.8560      1.00000
      7       4.2244      1.00000
      8       4.5806      1.00022
      9       4.5806      1.00022
     10       5.4053      0.00000
     11      15.4885      0.00000
     12      15.4885      0.00000
     13      17.2308      0.00000
     14      17.7886      0.00000

 k-point  15 :       0.0000    0.0000    0.3333
  band No.  band energies     occupation 
      1     -14.9304      1.00000
      2     -14.7808      1.00000
      3      -3.4302      1.00000
      4      -2.4728      1.00000
      5       1.7056      1.00000
      6       1.7057      1.00000
      7       1.7125      1.00000
      8       1.7125      1.00000
      9      10.2465      0.00000
     10      13.1408      0.00000
     11      13.1409      0.00000
     12      13.1610      0.00000
     13      13.1611      0.00000
     14      13.1882      0.00000

 k-point  16 :       0.1667    0.0000    0.3333
  band No.  band energies     occupation 
      1     -14.2699      1.00000
      2     -14.1260      1.00000
      3      -2.6389      1.00000
      4      -1.7058      1.00000
      5      -0.6070      1.00000
      6      -0.5770      1.00000
      7       0.5611      1.00000
      8       0.5833      1.00000
      9      11.0068      0.00000
     10      13.0527      0.00000
     11      13.2033      0.00000
     12      13.8832      0.00000
     13      14.0756      0.00000
     14      14.3297      0.00000

 k-point  17 :       0.3333    0.0000    0.3333
  band No.  band energies     occupation 
      1     -12.3215      1.00000
      2     -12.1953      1.00000
      3      -4.9533      1.00000
      4      -4.8844      1.00000
      5      -1.0593      1.00000
      6      -1.0366      1.00000
      7      -0.3640      1.00000
      8       0.4657      1.00000
      9       9.4152      0.00000
     10       9.8670      0.00000
     11      12.3912      0.00000
     12      12.5211      0.00000
     13      13.4609      0.00000
     14      15.9167      0.00000

 k-point  18 :       0.5000    0.0000    0.3333
  band No.  band energies     occupation 
      1      -9.6139      1.00000
      2      -9.5618      1.00000
      3      -8.5618      1.00000
      4      -8.5239      1.00000
      5      -1.6976      1.00000
      6      -1.6697      1.00000
      7       2.1329      1.00000
      8       2.4694      1.00000
      9       6.2467      0.00000
     10       6.5674      0.00000
     11      12.0475      0.00000
     12      12.2484      0.00000
     13      16.7850      0.00000
     14      16.9640      0.00000

 k-point  19 :       0.1667    0.1667    0.3333
  band No.  band energies     occupation 
      1     -12.9650      1.00000
      2     -12.8333      1.00000
      3      -3.0566      1.00000
      4      -3.0291      1.00000
      5      -1.6971      1.00000
      6      -1.6790      1.00000
      7      -1.0975      1.00000
      8      -0.2173      1.00000
      9      10.9980      0.00000
     10      11.2347      0.00000
     11      12.5321      0.00000
     12      14.6269      0.00000
     13      14.9519      0.00000
     14      15.2652      0.00000

 k-point  20 :       0.3333    0.1667    0.3333
  band No.  band energies     occupation 
      1     -10.4561      1.00000
      2     -10.3487      1.00000
      3      -6.7384      1.00000
      4      -6.6660      1.00000
      5      -3.3530      1.00000
      6      -3.3090      1.00000
      7       1.6907      1.00000
      8       2.3577      1.00000
      9       7.0417      0.00000
     10       7.4213      0.00000
     11      14.6457      0.00000
     12      14.8009      0.00000
     13      15.3529      0.00000
     14      16.3951      0.00000

 k-point  21 :       0.3333    0.3333    0.3333
  band No.  band energies     occupation 
      1      -7.9222      1.00000
      2      -7.9222      1.00000
      3      -7.9185      1.00000
      4      -7.8221      1.00000
      5      -5.8590      1.00000
      6      -5.8590      1.00000
      7       4.4530      1.00000
      8       4.5979      1.00116
      9       4.5979      1.00116
     10       5.1300      0.00000
     11      15.0458      0.00000
     12      15.0458      0.00000
     13      17.7807      0.00000
     14      18.6937      0.00000

 k-point  22 :       0.0000    0.0000    0.5000
  band No.  band energies     occupation 
      1     -14.8568      1.00000
      2     -14.8568      1.00000
      3      -2.9786      1.00000
      4      -2.9786      1.00000
      5       1.7086      1.00000
      6       1.7086      1.00000
      7       1.7087      1.00000
      8       1.7087      1.00000
      9      11.6084      0.00000
     10      11.6084      0.00000
     11      13.1472      0.00000
     12      13.1472      0.00000
     13      13.1473      0.00000
     14      13.1473      0.00000

 k-point  23 :       0.1667    0.0000    0.5000
  band No.  band energies     occupation 
      1     -14.1990      1.00000
      2     -14.1990      1.00000
      3      -2.1944      1.00000
      4      -2.1944      1.00000
      5      -0.5928      1.00000
      6      -0.5928      1.00000
      7       0.5749      1.00000
      8       0.5749      1.00000
      9      12.2898      0.00000
     10      12.2898      0.00000
     11      13.2077      0.00000
     12      13.2077      0.00000
     13      14.1783      0.00000
     14      14.1783      0.00000

 k-point  24 :       0.3333    0.0000    0.5000
  band No.  band energies     occupation 
      1     -12.2593      1.00000
      2     -12.2592      1.00000
      3      -4.9211      1.00000
      4      -4.9211      1.00000
      5      -1.0505      1.00000
      6      -1.0505      1.00000
      7       0.0313      1.00000
      8       0.0313      1.00000
      9       9.6232      0.00000
     10       9.6232      0.00000
     11      12.4704      0.00000
     12      12.4704      0.00000
     13      14.6147      0.00000
     14      14.6147      0.00000

 k-point  25 :       0.5000    0.0000    0.5000
  band No.  band energies     occupation 
      1      -9.5868      1.00000
      2      -9.5868      1.00000
      3      -8.5474      1.00000
      4      -8.5474      1.00000
      5      -1.6852      1.00000
      6      -1.6852      1.00000
      7       2.3136      1.00000
      8       2.3136      1.00000
      9       6.3539      0.00000
     10       6.3539      0.00000
     11      12.1441      0.00000
     12      12.1441      0.00000
     13      17.3082      0.00000
     14      17.3082      0.00000

 k-point  26 :       0.1667    0.1667    0.5000
  band No.  band energies     occupation 
      1     -12.8999      1.00000
      2     -12.8999      1.00000
      3      -3.0391      1.00000
      4      -3.0391      1.00000
      5      -1.6857      1.00000
      6      -1.6857      1.00000
      7      -0.6753      1.00000
      8      -0.6753      1.00000
      9      11.1194      0.00000
     10      11.1194      0.00000
     11      13.6870      0.00000
     12      13.6870      0.00000
     13      14.9540      0.00000
     14      14.9540      0.00000

 k-point  27 :       0.3333    0.1667    0.5000
  band No.  band energies     occupation 
      1     -10.4030      1.00000
      2     -10.4030      1.00000
      3      -6.7025      1.00000
      4      -6.7025      1.00000
      5      -3.3297      1.00000
      6      -3.3297      1.00000
      7       2.0161      1.00000
      8       2.0161      1.00000
      9       7.2187      0.00000
     10       7.2187      0.00000
     11      14.7387      0.00000
     12      14.7387      0.00000
     13      15.8697      0.00000
     14      15.8697      0.00000

 k-point  28 :       0.3333    0.3333    0.5000
  band No.  band energies     occupation 
      1      -7.9224      1.00000
      2      -7.9224      1.00000
      3      -7.8716      1.00000
      4      -7.8716      1.00000
      5      -5.8596      1.00000
      6      -5.8596      1.00000
      7       4.6053      1.00220
      8       4.6053      1.00220
      9       4.7787     -0.03340
     10       4.7787     -0.03340
     11      14.8770      0.00000
     12      14.8770      0.00000
     13      18.4988      0.00000
     14      18.4988      0.00000

 spin component 2

 k-point   1 :       0.0000    0.0000    0.0000
  band No.  band energies     occupation 
      1     -14.9713      1.00000
      2     -14.6727      1.00000
      3      -3.7885      1.00000
      4      -1.8268      1.00000
      5       1.7297      1.00000
      6       1.7298      1.00000
      7       1.7345      1.00000
      8       1.7346      1.00000
      9       9.0036      0.00000
     10      13.1494      0.00000
     11      13.1495      0.00000
     12      13.2119      0.00000
     13      13.2120      0.00000
     14      15.3448      0.00000

 k-point   2 :       0.1667    0.0000    0.0000
  band No.  band energies     occupation 
      1     -14.3087      1.00000
      2     -14.0216      1.00000
      3      -2.9844      1.00000
      4      -1.0796      1.00000
      5      -0.6082      1.00000
      6      -0.5455      1.00000
      7       0.5618      1.00000
      8       0.6057      1.00000
      9       9.8092      0.00000
     10      13.0842      0.00000
     11      13.2526      0.00000
     12      14.0428      0.00000
     13      14.4685      0.00000
     14      15.7281      0.00000

 k-point   3 :       0.3333    0.0000    0.0000
  band No.  band energies     occupation 
      1     -12.3534      1.00000
      2     -12.1008      1.00000
      3      -4.9651      1.00000
      4      -4.8321      1.00000
      5      -1.0649      1.00000
      6      -1.0095      1.00000
      7      -0.6724      1.00000
      8       1.0281      1.00000
      9       9.3073      0.00000
     10      10.2387      0.00000
     11      12.1105      0.00000
     12      12.4116      0.00000
     13      12.7832      0.00000
     14      17.5563      0.00000

 k-point   4 :       0.5000    0.0000    0.0000
  band No.  band energies     occupation 
      1      -9.6181      1.00000
      2      -9.5007      1.00000
      3      -8.5615      1.00000
      4      -8.4725      1.00000
      5      -1.7064      1.00000
      6      -1.6493      1.00000
      7       1.9639      1.00000
      8       2.7009      1.00000
      9       6.2560      0.00000
     10       6.9870      0.00000
     11      11.9896      0.00000
     12      12.3878      0.00000
     13      16.0193      0.00000
     14      16.1965      0.00000

 k-point   5 :       0.1667    0.1667    0.0000
  band No.  band energies     occupation 
      1     -12.9994      1.00000
      2     -12.7358      1.00000
      3      -3.0494      1.00000
      4      -2.9921      1.00000
      5      -1.6960      1.00000
      6      -1.6554      1.00000
      7      -1.4171      1.00000
      8       0.3650      1.00000
      9      10.9694      0.00000
     10      11.4292      0.00000
     11      11.4729      0.00000
     12      14.7404      0.00000
     13      14.9685      0.00000
     14      16.3567      0.00000

 k-point   6 :       0.3333    0.1667    0.0000
  band No.  band energies     occupation 
      1     -10.4795      1.00000
      2     -10.2646      1.00000
      3      -6.7512      1.00000
      4      -6.6028      1.00000
      5      -3.3595      1.00000
      6      -3.2700      1.00000
      7       1.4441      1.00000
      8       2.8019      1.00000
      9       6.9725      0.00000
     10       7.7334      0.00000
     11      14.4657      0.00000
     12      14.6767      0.00000
     13      15.1503      0.00000
     14      17.2445      0.00000

 k-point   7 :       0.3333    0.3333    0.0000
  band No.  band energies     occupation 
      1      -7.9927      1.00000
      2      -7.8380      1.00000
      3      -7.8380      1.00000
      4      -7.8001      1.00000
      5      -5.8444      1.00000
      6      -5.8444      1.00000
      7       4.0299      1.00000
      8       4.8431     -0.00175
      9       4.8431     -0.00175
     10       5.3983      0.00000
     11      15.8963      0.00000
     12      15.8963      0.00000
     13      16.9739      0.00000
     14      17.3526      0.00000

 k-point   8 :       0.0000    0.0000    0.1667
  band No.  band energies     occupation 
      1     -14.9527      1.00000
      2     -14.6941      1.00000
      3      -3.6769      1.00000
      4      -1.9904      1.00000
      5       1.7180      1.00000
      6       1.7181      1.00000
      7       1.7289      1.00000
      8       1.7290      1.00000
      9       9.3435      0.00000
     10      13.1435      0.00000
     11      13.1436      0.00000
     12      13.1836      0.00000
     13      13.1836      0.00000
     14      14.6878      0.00000

 k-point   9 :       0.1667    0.0000    0.1667
  band No.  band energies     occupation 
      1     -14.2906      1.00000
      2     -14.0420      1.00000
      3      -2.8781      1.00000
      4      -1.2361      1.00000
      5      -0.6038      1.00000
      6      -0.5499      1.00000
      7       0.5685      1.00000
      8       0.6033      1.00000
      9      10.1385      0.00000
     10      13.0885      0.00000
     11      13.2397      0.00000
     12      14.0695      0.00000
     13      14.4290      0.00000
     14      15.3691      0.00000

 k-point  10 :       0.3333    0.0000    0.1667
  band No.  band energies     occupation 
      1     -12.3371      1.00000
      2     -12.1188      1.00000
      3      -4.9561      1.00000
      4      -4.8383      1.00000
      5      -1.0563      1.00000
      6      -1.0152      1.00000
      7      -0.5712      1.00000
      8       0.8882      1.00000
      9       9.3556      0.00000
     10      10.1616      0.00000
     11      12.2835      0.00000
     12      12.4789      0.00000
     13      12.8595      0.00000
     14      17.0893      0.00000

 k-point  11 :       0.5000    0.0000    0.1667
  band No.  band energies     occupation 
      1      -9.6101      1.00000
      2      -9.5073      1.00000
      3      -8.5578      1.00000
      4      -8.4806      1.00000
      5      -1.6972      1.00000
      6      -1.6535      1.00000
      7       2.0262      1.00000
      8       2.6753      1.00000
      9       6.2509      0.00000
     10       6.8993      0.00000
     11      12.0147      0.00000
     12      12.3596      0.00000
     13      16.2779      0.00000
     14      16.3859      0.00000

 k-point  12 :       0.1667    0.1667    0.1667
  band No.  band energies     occupation 
      1     -12.9826      1.00000
      2     -12.7545      1.00000
      3      -3.0459      1.00000
      4      -2.9964      1.00000
      5      -1.6927      1.00000
      6      -1.6580      1.00000
      7      -1.3177      1.00000
      8       0.2224      1.00000
      9      11.0043      0.00000
     10      11.4305      0.00000
     11      11.7359      0.00000
     12      14.7426      0.00000
     13      14.9666      0.00000
     14      16.3443      0.00000

 k-point  13 :       0.3333    0.1667    0.1667
  band No.  band energies     occupation 
      1     -10.4660      1.00000
      2     -10.2796      1.00000
      3      -6.7416      1.00000
      4      -6.6136      1.00000
      5      -3.3534      1.00000
      6      -3.2745      1.00000
      7       1.5304      1.00000
      8       2.7055      1.00000
      9       7.0062      0.00000
     10       7.6771      0.00000
     11      14.5715      0.00000
     12      14.7427      0.00000
     13      15.1527      0.00000
     14      16.9455      0.00000

 k-point  14 :       0.3333    0.3333    0.1667
  band No.  band energies     occupation 
      1      -7.9801      1.00000
      2      -7.8373      1.00000
      3      -7.8373      1.00000
      4      -7.8133      1.00000
      5      -5.8462      1.00000
      6      -5.8462      1.00000
      7       4.1174      1.00000
      8       4.8545     -0.00063
      9       4.8545     -0.00063
     10       5.2913      0.00000
     11      15.5429      0.00000
     12      15.5429      0.00000
     13      17.1825      0.00000
     14      17.8692      0.00000

 k-point  15 :       0.0000    0.0000    0.3333
  band No.  band energies     occupation 
      1     -14.9005      1.00000
      2     -14.7513      1.00000
      3      -3.3620      1.00000
      4      -2.4006      1.00000
      5       1.7181      1.00000
      6       1.7182      1.00000
      7       1.7251      1.00000
      8       1.7252      1.00000
      9      10.2882      0.00000
     10      13.1525      0.00000
     11      13.1525      0.00000
     12      13.1723      0.00000
     13      13.1723      0.00000
     14      13.2395      0.00000

 k-point  16 :       0.1667    0.0000    0.3333
  band No.  band energies     occupation 
      1     -14.2402      1.00000
      2     -14.0968      1.00000
      3      -2.5700      1.00000
      4      -1.6325      1.00000
      5      -0.5900      1.00000
      6      -0.5601      1.00000
      7       0.5734      1.00000
      8       0.5957      1.00000
      9      11.0492      0.00000
     10      13.0810      0.00000
     11      13.2213      0.00000
     12      13.9062      0.00000
     13      14.2132      0.00000
     14      14.4185      0.00000

 k-point  17 :       0.3333    0.0000    0.3333
  band No.  band energies     occupation 
      1     -12.2927      1.00000
      2     -12.1667      1.00000
      3      -4.9315      1.00000
      4      -4.8627      1.00000
      5      -1.0472      1.00000
      6      -1.0246      1.00000
      7      -0.2931      1.00000
      8       0.5434      1.00000
      9       9.4943      0.00000
     10       9.9614      0.00000
     11      12.4222      0.00000
     12      12.5589      0.00000
     13      13.5012      0.00000
     14      15.9744      0.00000

 k-point  18 :       0.5000    0.0000    0.3333
  band No.  band energies     occupation 
      1      -9.5857      1.00000
      2      -9.5261      1.00000
      3      -8.5454      1.00000
      4      -8.5010      1.00000
      5      -1.6854      1.00000
      6      -1.6577      1.00000
      7       2.1905      1.00000
      8       2.5750      1.00000
      9       6.2878      0.00000
     10       6.6764      0.00000
     11      12.0854      0.00000
     12      12.2858      0.00000
     13      16.8792      0.00000
     14      16.9570      0.00000

 k-point  19 :       0.1667    0.1667    0.3333
  band No.  band energies     occupation 
      1     -12.9360      1.00000
      2     -12.8046      1.00000
      3      -3.0355      1.00000
      4      -3.0071      1.00000
      5      -1.6847      1.00000
      6      -1.6660      1.00000
      7      -1.0271      1.00000
      8      -0.1415      1.00000
      9      11.0875      0.00000
     10      11.3343      0.00000
     11      12.5689      0.00000
     12      14.6581      0.00000
     13      14.9677      0.00000
     14      15.3160      0.00000

 k-point  20 :       0.3333    0.1667    0.3333
  band No.  band energies     occupation 
      1     -10.4279      1.00000
      2     -10.3202      1.00000
      3      -6.7149      1.00000
      4      -6.6424      1.00000
      5      -3.3386      1.00000
      6      -3.2947      1.00000
      7       1.7611      1.00000
      8       2.4439      1.00000
      9       7.1178      0.00000
     10       7.5115      0.00000
     11      14.6811      0.00000
     12      14.8508      0.00000
     13      15.3840      0.00000
     14      16.4540      0.00000

 k-point  21 :       0.3333    0.3333    0.3333
  band No.  band energies     occupation 
      1      -7.9462      1.00000
      2      -7.8493      1.00000
      3      -7.8363      1.00000
      4      -7.8363      1.00000
      5      -5.8492      1.00000
      6      -5.8492      1.00000
      7       4.3448      1.00000
      8       4.8726     -0.00010
      9       4.8726     -0.00010
     10       5.0179      0.00000
     11      15.1011      0.00000
     12      15.1011      0.00000
     13      17.7348      0.00000
     14      18.7745      0.00000

 k-point  22 :       0.0000    0.0000    0.5000
  band No.  band energies     occupation 
      1     -14.8271      1.00000
      2     -14.8271      1.00000
      3      -2.9087      1.00000
      4      -2.9087      1.00000
      5       1.7211      1.00000
      6       1.7211      1.00000
      7       1.7212      1.00000
      8       1.7212      1.00000
      9      11.6548      0.00000
     10      11.6548      0.00000
     11      13.1586      0.00000
     12      13.1586      0.00000
     13      13.1587      0.00000
     14      13.1587      0.00000

 k-point  23 :       0.1667    0.0000    0.5000
  band No.  band energies     occupation 
      1     -14.1696      1.00000
      2     -14.1696      1.00000
      3      -2.1236      1.00000
      4      -2.1236      1.00000
      5      -0.5758      1.00000
      6      -0.5758      1.00000
      7       0.5873      1.00000
      8       0.5873      1.00000
      9      12.3382      0.00000
     10      12.3382      0.00000
     11      13.2259      0.00000
     12      13.2259      0.00000
     13      14.2799      0.00000
     14      14.2799      0.00000

 k-point  24 :       0.3333    0.0000    0.5000
  band No.  band energies     occupation 
      1     -12.2306      1.00000
      2     -12.2306      1.00000
      3      -4.8993      1.00000
      4      -4.8993      1.00000
      5      -1.0385      1.00000
      6      -1.0385      1.00000
      7       0.1052      1.00000
      8       0.1052      1.00000
      9       9.7101      0.00000
     10       9.7101      0.00000
     11      12.5046      0.00000
     12      12.5046      0.00000
     13      14.6625      0.00000
     14      14.6625      0.00000

 k-point  25 :       0.5000    0.0000    0.5000
  band No.  band energies     occupation 
      1      -9.5550      1.00000
      2      -9.5550      1.00000
      3      -8.5275      1.00000
      4      -8.5275      1.00000
      5      -1.6731      1.00000
      6      -1.6731      1.00000
      7       2.3930      1.00000
      8       2.3930      1.00000
      9       6.4307      0.00000
     10       6.4307      0.00000
     11      12.1821      0.00000
     12      12.1821      0.00000
     13      17.3821      0.00000
     14      17.3821      0.00000

 k-point  26 :       0.1667    0.1667    0.5000
  band No.  band energies     occupation 
      1     -12.8710      1.00000
      2     -12.8710      1.00000
      3      -3.0176      1.00000
      4      -3.0176      1.00000
      5      -1.6730      1.00000
      6      -1.6730      1.00000
      7      -0.6026      1.00000
      8      -0.6026      1.00000
      9      11.2138      0.00000
     10      11.2138      0.00000
     11      13.7314      0.00000
     12      13.7314      0.00000
     13      14.9759      0.00000
     14      14.9759      0.00000

 k-point  27 :       0.3333    0.1667    0.5000
  band No.  band energies     occupation 
      1     -10.3747      1.00000
      2     -10.3747      1.00000
      3      -6.6789      1.00000
      4      -6.6789      1.00000
      5      -3.3154      1.00000
      6      -3.3154      1.00000
      7       2.0934      1.00000
      8       2.0934      1.00000
      9       7.3027      0.00000
     10       7.3027      0.00000
     11      14.7807      0.00000
     12      14.7807      0.00000
     13      15.9172      0.00000
     14      15.9172      0.00000

 k-point  28 :       0.3333    0.3333    0.5000
  band No.  band energies     occupation 
      1      -7.8990      1.00000
      2      -7.8990      1.00000
      3      -7.8365      1.00000
      4      -7.8365      1.00000
      5      -5.8497      1.00000
      6      -5.8497      1.00000
      7       4.6688      1.03162
      8       4.6688      1.03162
      9       4.8804     -0.00004
     10       4.8804     -0.00004
     11      14.9320      0.00000
     12      14.9320      0.00000
     13      18.4593      0.00000
     14      18.4593      0.00000


--------------------------------------------------------------------------------------------------------


 soft charge-density along one line, spin component           1
         0         1         2         3         4         5         6         7         8         9
 total charge-density along one line
 
 soft charge-density along one line, spin component           2
         0         1         2         3         4         5         6         7         8         9
 total charge-density along one line
 
 pseudopotential strength for first ion, spin component:           1
  9.776   0.006   0.000   0.000   0.000   0.000   0.000   0.000
  0.006  -0.002   0.000   0.000   0.000   0.000   0.000   0.000
  0.000   0.000  -3.947   0.000   0.000  -0.016   0.000   0.000
  0.000   0.000   0.000  -3.948   0.000   0.000  -0.014   0.000
  0.000   0.000   0.000   0.000  -3.947   0.000   0.000  -0.016
  0.000   0.000  -0.016   0.000   0.000  -0.764   0.000   0.000
  0.000   0.000   0.000  -0.014   0.000   0.000  -0.764   0.000
  0.000   0.000   0.000   0.000  -0.016   0.000   0.000  -0.764
 pseudopotential strength for first ion, spin component:           2
  9.758   0.005   0.000   0.000   0.000   0.000   0.000   0.000
  0.005  -0.002   0.000   0.000   0.000   0.000   0.000   0.000
  0.000   0.000  -3.947   0.000   0.000  -0.014   0.000   0.000
  0.000   0.000   0.000  -3.933   0.000   0.000  -0.009   0.000
  0.000   0.000   0.000   0.000  -3.947   0.000   0.000  -0.014
  0.000   0.000  -0.014   0.000   0.000  -0.764   0.000   0.000
  0.000   0.000   0.000  -0.009   0.000   0.000  -0.763   0.000
  0.000   0.000   0.000   0.000  -0.014   0.000   0.000  -0.764
 total augmentation occupancy for first ion, spin component:           1
  1.473  -1.121   0.000   0.000   0.000   0.000   0.000   0.000
 -1.121   1.058   0.000   0.000   0.000   0.000   0.000   0.000
  0.000   0.000   1.215   0.000   0.000   0.244   0.000   0.000
  0.000   0.000   0.000   0.922   0.000   0.000   0.127   0.000
  0.000   0.000   0.000   0.000   1.215   0.000   0.000   0.244
  0.000   0.000   0.244   0.000   0.000   0.055   0.000   0.000
  0.000   0.000   0.000   0.127   0.000   0.000   0.019   0.000
  0.000   0.000   0.000   0.000   0.244   0.000   0.000   0.055
 total augmentation occupancy for first ion, spin component:           2
  0.005  -0.001   0.000   0.000   0.000   0.000   0.000   0.000
 -0.001  -0.002   0.000   0.000   0.000   0.000   0.000   0.000
  0.000   0.000   0.003   0.000   0.000   0.000   0.000   0.000
  0.000   0.000   0.000   0.088   0.000   0.000   0.005   0.000
  0.000   0.000   0.000   0.000   0.003   0.000   0.000   0.000
  0.000   0.000   0.000   0.000   0.000   0.000   0.000   0.000
  0.000   0.000   0.000   0.005   0.000   0.000   0.000   0.000
  0.000   0.000   0.000   0.000   0.000   0.000   0.000   0.000


------------------------ aborting loop because EDIFF is reached ----------------------------------------


 


 total charge     
 
# of ion     s       p       d       tot
----------------------------------------
  1        0.866   1.804   0.000   2.670
  2        0.867   1.800   0.000   2.667
  3        0.867   1.800   0.000   2.667
  4        0.866   1.804   0.000   2.670
------------------------------------------------
tot        3.465   7.208   0.000  10.673
 


 magnetization (x)
 
# of ion     s       p       d       tot
----------------------------------------
  1        0.003   0.046   0.000   0.049
  2       -0.002  -0.022   0.000  -0.024
  3       -0.002  -0.022   0.000  -0.024
  4        0.003   0.046   0.000   0.049
------------------------------------------------
tot        0.002   0.048   0.000   0.049
 
    CHARGE:  cpu time    0.26: real time    0.26
    FORLOC:  cpu time    0.01: real time    0.01
    FORNL :  cpu time    0.34: real time    0.34
    STRESS:  cpu time    0.39: real time    0.39
    FORHAR:  cpu time    0.03: real time    0.04
    MIXING:  cpu time    0.01: real time    0.01

  FORCE on cell =-STRESS in cart. coord.  units (eV):
  Direction    XX          YY          ZZ          XY          YZ          ZX
  --------------------------------------------------------------------------------------
  Alpha Z    37.04767    37.04767    37.04767
  Ewald      78.34827    78.34827  -617.29730     0.00000     0.00000     0.00000
  Hartree   161.09633   161.09633  -138.70509     0.00000     0.00000     0.00000
  E(xc)     -58.51205   -58.51205   -60.65263     0.00000     0.00000     0.00000
  Local    -443.61902  -443.61907   517.49362    -0.00004     0.00000     0.00000
  n-local   -13.64397   -14.36461   -12.81792    -0.65064     0.02435     0.02528
  augment    -1.51816    -1.51812    -1.39407     0.00004     0.00000     0.00000
  Kinetic   237.39880   244.04109   275.24818     5.21058    -0.30933    -0.34107
  Fock        0.00000     0.00000     0.00000     0.00000     0.00000     0.00000
  -------------------------------------------------------------------------------------
  Total      -0.44131    -0.44131    -1.07755     0.00000     0.00000     0.00000
  in kB     -20.09284   -20.09284   -49.06100     0.00000     0.00000     0.00000
  external pressure =      -29.75 kB  Pullay stress =        0.00 kB


 VOLUME and BASIS-vectors are now :
 -----------------------------------------------------------------------------
  energy-cutoff  :      350.00
  volume of cell :       35.19
      direct lattice vectors                 reciprocal lattice vectors
     2.461200000  0.000000000  0.000000000     0.406305867  0.234580802  0.000000000
    -1.230600000  2.131461724  0.000000000     0.000000000  0.469161603  0.000000000
     0.000000000  0.000000000  6.707900000     0.000000000  0.000000000  0.149077953

  length of vectors
     2.461200000  2.461200000  6.707900000     0.469161603  0.469161603  0.149077953


 FORCES acting on ions
    electron-ion (+dipol)            ewald-force                    non-local-force                 convergence-correction
 -----------------------------------------------------------------------------------------------
   0.136E-06 -.787E-07 0.177E-14   0.624E-11 -.358E-11 -.182E-13   -.278E-16 0.555E-16 0.000E+00   0.204E-06 -.118E-06 -.647E-13
   -.173E-05 0.100E-05 -.277E-12   -.624E-11 0.358E-11 -.182E-13   -.416E-16 0.000E+00 0.000E+00   -.223E-06 0.129E-06 -.633E-13
   -.165E-05 0.955E-06 -.962E-13   -.126E-10 0.731E-11 0.182E-13   0.278E-16 0.000E+00 0.000E+00   0.223E-06 -.129E-06 0.117E-12
   0.166E-05 -.957E-06 -.909E-12   0.126E-10 -.731E-11 0.182E-13   0.555E-16 -.555E-16 0.000E+00   -.204E-06 0.118E-06 0.117E-12
 -----------------------------------------------------------------------------------------------
   -.159E-05 0.919E-06 -.128E-11   0.658E-14 -.737E-15 0.316E-29   0.139E-16 0.000E+00 0.000E+00   -.886E-10 0.511E-10 0.106E-12
 
 
 POSITION                                       TOTAL-FORCE (eV/Angst)
 -----------------------------------------------------------------------------------
      0.00000      0.00000      0.00000         0.000000      0.000000      0.000000
      0.00000      1.42097      0.00000         0.000000      0.000000      0.000000
      0.00000      1.42097      3.35395         0.000000      0.000000      0.000000
      1.23060      0.71049      3.35395         0.000000      0.000000      0.000000
 -----------------------------------------------------------------------------------
    total drift:                               -0.000002      0.000001      0.000000


--------------------------------------------------------------------------------------------------------



  FREE ENERGIE OF THE ION-ELECTRON SYSTEM (eV)
  ---------------------------------------------------
  free  energy   TOTEN  =       -36.841952 eV

  energy  without entropy=      -36.842083  energy(sigma->0) =      -36.841996
 


--------------------------------------------------------------------------------------------------------


    POTLOK:  cpu time    0.33: real time    0.33


--------------------------------------------------------------------------------------------------------


 writing wavefunctions
     LOOP+:  cpu time   45.72: real time   46.01
    4ORBIT:  cpu time    0.00: real time    0.00
 


 total charge     
 
# of ion     s       p       d       tot
----------------------------------------
  1        0.866   1.804   0.000   2.670
  2        0.867   1.800   0.000   2.667
  3        0.867   1.800   0.000   2.667
  4        0.866   1.804   0.000   2.670
------------------------------------------------
tot        3.465   7.208   0.000  10.673
 


 magnetization (x)
 
# of ion     s       p       d       tot
----------------------------------------
  1        0.003   0.046   0.000   0.049
  2       -0.002  -0.022   0.000  -0.024
  3       -0.002  -0.022   0.000  -0.024
  4        0.003   0.046   0.000   0.049
------------------------------------------------
tot        0.002   0.048   0.000   0.049
 

 total amount of memory used by VASP on root node    48373. kBytes
========================================================================

   base      :      30000. kBytes
   nonl-proj :       1002. kBytes
   fftplans  :       2996. kBytes
   grid      :       7176. kBytes
   one-center:         24. kBytes
   wavefun   :       7175. kBytes
 
  
  
 General timing and accounting informations for this job:
 ========================================================
  
                  Total CPU time used (sec):       46.604
                            User time (sec):       46.376
                          System time (sec):        0.228
                         Elapsed time (sec):       46.978
  
                   Maximum memory used (kb):           0.
                   Average memory used (kb):           0.
  
                          Minor page faults:        27546
                          Major page faults:            0
                 Voluntary context switches:         2862
