<?xml version="1.0" encoding="ISO-8859-1"?>
<modeling>
 <generator>
  <i name="program" type="string">vasp </i>
  <i name="version" type="string">5.2.12  </i>
  <i name="subversion" type="string">11Nov11 complex                                                      parallel </i>
  <i name="platform" type="string">LinuxIFC </i>
  <i name="date" type="string">2012 10 17 </i>
  <i name="time" type="string">09:53:37 </i>
 </generator>
 <incar>
  <i type="int" name="ISTART">     0</i>
  <i type="string" name="PREC">accurate</i>
  <i type="int" name="ISPIN">     2</i>
  <i name="ENCUT">    350.00000000</i>
  <i type="int" name="NBANDS">    14</i>
  <i type="logical" name="LREAL"> F  </i>
  <i type="int" name="ISMEAR">     1</i>
  <i name="SIGMA">      0.05000000</i>
  <i type="logical" name="LORBIT"> F  </i>
 </incar>
 <kpoints>
  <generation param="Gamma">
   <v type="int" name="divisions">       6        6        6 </v>
   <v name="usershift">      0.00000000       0.00000000       0.00000000 </v>
   <v name="genvec1">      0.16666667       0.00000000       0.00000000 </v>
   <v name="genvec2">      0.00000000       0.16666667       0.00000000 </v>
   <v name="genvec3">      0.00000000       0.00000000       0.16666667 </v>
   <v name="shift">      0.00000000       0.00000000       0.00000000 </v>
  </generation>
  <varray name="kpointlist" >
   <v>       0.00000000       0.00000000       0.00000000 </v>
   <v>       0.16666667       0.00000000       0.00000000 </v>
   <v>       0.33333333       0.00000000       0.00000000 </v>
   <v>       0.50000000       0.00000000       0.00000000 </v>
   <v>       0.16666667       0.16666667       0.00000000 </v>
   <v>       0.33333333       0.16666667       0.00000000 </v>
   <v>       0.33333333       0.33333333       0.00000000 </v>
   <v>       0.00000000       0.00000000       0.16666667 </v>
   <v>       0.16666667       0.00000000       0.16666667 </v>
   <v>       0.33333333       0.00000000       0.16666667 </v>
   <v>       0.50000000       0.00000000       0.16666667 </v>
   <v>       0.16666667       0.16666667       0.16666667 </v>
   <v>       0.33333333       0.16666667       0.16666667 </v>
   <v>       0.33333333       0.33333333       0.16666667 </v>
   <v>       0.00000000       0.00000000       0.33333333 </v>
   <v>       0.16666667       0.00000000       0.33333333 </v>
   <v>       0.33333333       0.00000000       0.33333333 </v>
   <v>       0.50000000       0.00000000       0.33333333 </v>
   <v>       0.16666667       0.16666667       0.33333333 </v>
   <v>       0.33333333       0.16666667       0.33333333 </v>
   <v>       0.33333333       0.33333333       0.33333333 </v>
   <v>       0.00000000       0.00000000       0.50000000 </v>
   <v>       0.16666667       0.00000000       0.50000000 </v>
   <v>       0.33333333       0.00000000       0.50000000 </v>
   <v>       0.50000000       0.00000000       0.50000000 </v>
   <v>       0.16666667       0.16666667       0.50000000 </v>
   <v>       0.33333333       0.16666667       0.50000000 </v>
   <v>       0.33333333       0.33333333       0.50000000 </v>
  </varray>
  <varray name="weights" >
   <v>       0.00462963 </v>
   <v>       0.02777778 </v>
   <v>       0.02777778 </v>
   <v>       0.01388889 </v>
   <v>       0.02777778 </v>
   <v>       0.05555556 </v>
   <v>       0.00925926 </v>
   <v>       0.00925926 </v>
   <v>       0.05555556 </v>
   <v>       0.05555556 </v>
   <v>       0.02777778 </v>
   <v>       0.05555556 </v>
   <v>       0.11111111 </v>
   <v>       0.01851852 </v>
   <v>       0.00925926 </v>
   <v>       0.05555556 </v>
   <v>       0.05555556 </v>
   <v>       0.02777778 </v>
   <v>       0.05555556 </v>
   <v>       0.11111111 </v>
   <v>       0.01851852 </v>
   <v>       0.00462963 </v>
   <v>       0.02777778 </v>
   <v>       0.02777778 </v>
   <v>       0.01388889 </v>
   <v>       0.02777778 </v>
   <v>       0.05555556 </v>
   <v>       0.00925926 </v>
  </varray>
 </kpoints>
 <parameters>
  <separator name="general" >
   <i type="string" name="SYSTEM">unknown system</i>
   <i type="logical" name="LCOMPAT"> F  </i>
  </separator>
  <separator name="electronic" >
   <i type="string" name="PREC">accura</i>
   <i name="ENMAX">    350.00000000</i>
   <i name="ENAUG">    644.87300000</i>
   <i name="EDIFF">      0.00010000</i>
   <i type="int" name="IALGO">    38</i>
   <i type="int" name="IWAVPR">    10</i>
   <i type="int" name="NBANDS">    14</i>
   <i name="NELECT">     16.00000000</i>
   <i type="int" name="TURBO">     0</i>
   <i type="int" name="IRESTART">     0</i>
   <i type="int" name="NREBOOT">     0</i>
   <i type="int" name="NMIN">     0</i>
   <i name="EREF">      0.00000000</i>
   <separator name="electronic smearing" >
    <i type="int" name="ISMEAR">     1</i>
    <i name="SIGMA">      0.05000000</i>
    <i name="KSPACING">      0.50000000</i>
    <i type="logical" name="KGAMMA"> T  </i>
   </separator>
   <separator name="electronic projectors" >
    <i type="logical" name="LREAL"> F  </i>
    <v name="ROPT">      0.00000000</v>
    <i type="int" name="LMAXPAW">  -100</i>
    <i type="int" name="LMAXMIX">     2</i>
    <i type="logical" name="NLSPLINE"> F  </i>
   </separator>
   <separator name="electronic startup" >
    <i type="int" name="ISTART">     0</i>
    <i type="int" name="ICHARG">     2</i>
    <i type="int" name="INIWAV">     1</i>
   </separator>
   <separator name="electronic spin" >
    <i type="int" name="ISPIN">     2</i>
    <i type="logical" name="LNONCOLLINEAR"> F  </i>
    <v name="MAGMOM">      1.00000000      1.00000000      1.00000000      1.00000000</v>
    <i name="NUPDOWN">     -1.00000000</i>
    <i type="logical" name="LSORBIT"> F  </i>
    <v name="SAXIS">      0.00000000      0.00000000      1.00000000</v>
    <i type="logical" name="LSPIRAL"> F  </i>
    <v name="QSPIRAL">      0.00000000      0.00000000      0.00000000</v>
    <i type="logical" name="LZEROZ"> F  </i>
   </separator>
   <separator name="electronic exchange-correlation" >
    <i type="logical" name="LASPH"> F  </i>
    <i type="logical" name="LMETAGGA"> F  </i>
   </separator>
   <separator name="electronic convergence" >
    <i type="int" name="NELM">    60</i>
    <i type="int" name="NELMDL">    -5</i>
    <i type="int" name="NELMIN">     2</i>
    <i name="ENINI">    350.00000000</i>
    <separator name="electronic convergence detail" >
     <i type="logical" name="LDIAG"> T  </i>
     <i type="logical" name="LSUBROT"> T  </i>
     <i name="WEIMIN">      0.00000000</i>
     <i name="EBREAK">      0.00000179</i>
     <i name="DEPER">      0.30000000</i>
     <i type="int" name="NRMM">     4</i>
     <i name="TIME">      0.40000000</i>
    </separator>
   </separator>
   <separator name="electronic mixer" >
    <i name="AMIX">      0.40000000</i>
    <i name="BMIX">      1.00000000</i>
    <i name="AMIN">      0.10000000</i>
    <i name="AMIX_MAG">      1.60000000</i>
    <i name="BMIX_MAG">      1.00000000</i>
    <separator name="electronic mixer details" >
     <i type="int" name="IMIX">     4</i>
     <i type="int" name="MAXMIX">   -45</i>
     <i name="WC">    100.00000000</i>
     <i type="int" name="INIMIX">     1</i>
     <i type="int" name="MIXPRE">     1</i>
     <i type="int" name="MREMOVE">     5</i>
    </separator>
   </separator>
   <separator name="electronic dipolcorrection" >
    <i type="logical" name="LDIPOL"> F  </i>
    <i type="logical" name="LMONO"> F  </i>
    <i type="int" name="IDIPOL">     0</i>
    <i name="EPSILON">      1.00000000</i>
    <v name="DIPOL">   -100.00000000   -100.00000000   -100.00000000</v>
    <i name="EFIELD">      0.00000000</i>
   </separator>
  </separator>
  <separator name="grids" >
   <i type="int" name="NGX">    16</i>
   <i type="int" name="NGY">    16</i>
   <i type="int" name="NGZ">    42</i>
   <i type="int" name="NGXF">    32</i>
   <i type="int" name="NGYF">    32</i>
   <i type="int" name="NGZF">    84</i>
   <i type="logical" name="ADDGRID"> F  </i>
  </separator>
  <separator name="ionic" >
   <i type="int" name="NSW">     0</i>
   <i type="int" name="IBRION">    -1</i>
   <i type="int" name="ISIF">     2</i>
   <i name="PSTRESS">      0.00000000</i>
   <i name="EDIFFG">      0.00100000</i>
   <i type="int" name="NFREE">     0</i>
   <i name="POTIM">      0.50000000</i>
   <i name="SMASS">     -3.00000000</i>
   <i name="SCALEE">      1.00000000</i>
  </separator>
  <separator name="ionic md" >
   <i name="TEBEG">      0.00010000</i>
   <i name="TEEND">      0.00010000</i>
   <i type="int" name="NBLOCK">     1</i>
   <i type="int" name="KBLOCK">     1</i>
   <i type="int" name="NPACO">   256</i>
   <i name="APACO">     16.00000000</i>
  </separator>
  <separator name="symmetry" >
   <i type="int" name="ISYM">     2</i>
   <i name="SYMPREC">      0.00001000</i>
  </separator>
  <separator name="dos" >
   <i type="logical" name="LORBIT"> F  </i>
   <v name="RWIGS">     -1.00000000</v>
   <i type="int" name="NEDOS">   301</i>
   <i name="EMIN">     10.00000000</i>
   <i name="EMAX">    -10.00000000</i>
   <i name="EFERMI">      0.00000000</i>
  </separator>
  <separator name="writing" >
   <i type="int" name="NWRITE">     2</i>
   <i type="logical" name="LWAVE"> T  </i>
   <i type="logical" name="LCHARG"> T  </i>
   <i type="logical" name="LPARD"> F  </i>
   <i type="logical" name="LVTOT"> F  </i>
   <i type="logical" name="LVHAR"> F  </i>
   <i type="logical" name="LELF"> F  </i>
   <i type="logical" name="LOPTICS"> F  </i>
   <v name="STM">      0.00000000      0.00000000      0.00000000      0.00000000      0.00000000      0.00000000      0.00000000</v>
  </separator>
  <separator name="performance" >
   <i type="int" name="NPAR">     1</i>
   <i type="int" name="NSIM">     4</i>
   <i type="int" name="NBLK">    -1</i>
   <i type="logical" name="LPLANE"> T  </i>
   <i type="logical" name="LSCALAPACK"> F  </i>
   <i type="logical" name="LSCAAWARE"> F  </i>
   <i type="logical" name="LSCALU"> F  </i>
   <i type="logical" name="LASYNC"> F  </i>
   <i type="logical" name="LORBITALREAL"> F  </i>
  </separator>
  <separator name="miscellaneous" >
   <i type="int" name="IDIOT">     3</i>
   <i type="logical" name="LMUSIC"> F  </i>
   <v name="POMASS">     12.01100000</v>
   <v name="DARWINR">      0.00000000</v>
   <v name="DARWINV">      1.00000000</v>
   <i type="logical" name="LCORR"> T  </i>
  </separator>
  <i type="logical" name="GGA_COMPAT"> T  </i>
  <i type="logical" name="LBERRY"> F  </i>
  <i type="int" name="ICORELEVEL">     0</i>
  <i type="logical" name="LDAU"> F  </i>
  <i type="int" name="I_CONSTRAINED_M">     0</i>
  <separator name="electronic exchange-correlation" >
   <i type="string" name="GGA">--</i>
   <i type="int" name="VOSKOWN">     0</i>
   <i type="logical" name="LHFCALC"> F  </i>
   <i type="string" name="PRECFOCK"></i>
   <i type="logical" name="LHFONE"> F  </i>
   <i type="logical" name="LRHFCALC"> F  </i>
   <i type="logical" name="LTHOMAS"> F  </i>
   <i type="logical" name="LMODELHF"> F  </i>
   <i name="ENCUT4O">     -1.00000000</i>
   <i type="int" name="EXXOEP">     0</i>
   <i type="int" name="FOURORBIT">     0</i>
   <i name="AEXX">      0.00000000</i>
   <i name="HFALPHA">      0.00000000</i>
   <i name="ALDAX">      1.00000000</i>
   <i name="AGGAX">      1.00000000</i>
   <i name="ALDAC">      1.00000000</i>
   <i name="AGGAC">      1.00000000</i>
   <i type="int" name="NKREDX">     1</i>
   <i type="int" name="NKREDY">     1</i>
   <i type="int" name="NKREDZ">     1</i>
   <i type="logical" name="SHIFTRED"> F  </i>
   <i type="logical" name="ODDONLY"> F  </i>
   <i type="logical" name="EVENONLY"> F  </i>
   <i type="int" name="LMAXFOCK">     0</i>
   <i type="int" name="NMAXFOCKAE">     0</i>
   <i type="logical" name="LFOCKAEDFT"> F  </i>
   <i name="HFSCREEN">      0.00000000</i>
   <i name="HFSCREENC">      0.00000000</i>
  </separator>
  <separator name="vdW DFT" >
   <i type="logical" name="LUSE_VDW"> F  </i>
   <i name="Zab_VDW">     -0.84910000</i>
   <i name="PARAM1">      0.12340000</i>
   <i name="PARAM2">      1.00000000</i>
   <i name="PARAM3">      0.00000000</i>
  </separator>
  <separator name="model GW" >
   <i type="int" name="MODEL_GW">     0</i>
   <i name="MODEL_EPS0">      5.27839982</i>
   <i name="MODEL_ALPHA">      1.00000000</i>
  </separator>
  <separator name="linear response parameters" >
   <i type="logical" name="LEPSILON"> F  </i>
   <i type="logical" name="LRPA"> F  </i>
   <i type="logical" name="LNABLA"> F  </i>
   <i type="logical" name="LVEL"> F  </i>
   <i type="int" name="KINTER">     0</i>
   <i name="CSHIFT">      0.10000000</i>
   <i name="OMEGAMAX">     -1.00000000</i>
  </separator>
  <separator name="orbital magnetization" >
   <i type="logical" name="NUCIND"> F  </i>
   <v name="MAGPOS">      0.00000000      0.00000000      0.00000000</v>
   <i type="logical" name="LNICSALL"> T  </i>
   <i type="logical" name="ORBITALMAG"> F  </i>
   <i type="logical" name="LMAGBLOCH"> F  </i>
   <i type="logical" name="LCHIMAG"> F  </i>
   <i type="logical" name="LGAUGE"> T  </i>
   <i type="int" name="MAGATOM">     0</i>
   <v name="MAGDIPOL">      0.00000000      0.00000000      0.00000000</v>
   <v name="AVECCONST">      0.00000000      0.00000000      0.00000000</v>
  </separator>
  <separator name="response functions" >
   <i type="logical" name="LADDER"> F  </i>
   <i type="logical" name="LHARTREE"> T  </i>
   <i type="int" name="IBSE">     0</i>
   <i type="logical" name="LTCTE"> F  </i>
   <i type="logical" name="LTETE"> F  </i>
   <i type="logical" name="LFXCEPS"> F  </i>
   <i type="logical" name="L2ORDER"> F  </i>
   <i type="logical" name="LUSEW"> F  </i>
   <i name="ENCUTGW">     -2.00000000</i>
   <i name="ENCUTGWSOFT">     -2.00000000</i>
   <i name="ENCUTLF">     -1.00000000</i>
   <i type="int" name="LMAXMP2">    -1</i>
   <i name="SCISSOR">      0.00000000</i>
   <i type="int" name="NOMEGA">     0</i>
   <i type="int" name="NOMEGAR">     0</i>
   <i type="int" name="NBANDSGW">    -1</i>
   <i type="int" name="NBANDSO">    -1</i>
   <i type="int" name="NBANDSV">    -1</i>
   <i name="OPTEMAX">      0.00000000</i>
   <i type="int" name="NELM">     1</i>
   <i type="int" name="DIM">     3</i>
   <i type="int" name="ANTIRES">     0</i>
   <i name="OMEGAMAX">    -30.00000000</i>
   <i name="OMEGATL">   -200.00000000</i>
   <i type="int" name="OMEGAGRID">     0</i>
   <i name="CSHIFT">     -0.10000000</i>
   <i type="logical" name="SELFENERGY"> F  </i>
   <i type="logical" name="LSPECTRAL"> F  </i>
   <i type="logical" name="ODDONLYGW"> F  </i>
   <i type="logical" name="EVENONLYGW"> F  </i>
   <i type="int" name="NKREDLFX">     1</i>
   <i type="int" name="NKREDLFY">     1</i>
   <i type="int" name="NKREDLFZ">     1</i>
   <i type="int" name="MAXMEM">  1800</i>
   <i type="int" name="TELESCOPE">     0</i>
  </separator>
 </parameters>
 <atominfo>
  <atoms>       4 </atoms>
  <types>       1 </types>
  <array name="atoms" >
   <dimension dim="1">ion</dimension>
   <field type="string">element</field>
   <field type="int">atomtype</field>
   <set>
    <rc><c>C </c><c>   1</c></rc>
    <rc><c>C </c><c>   1</c></rc>
    <rc><c>C </c><c>   1</c></rc>
    <rc><c>C </c><c>   1</c></rc>
   </set>
  </array>
  <array name="atomtypes" >
   <dimension dim="1">type</dimension>
   <field type="int">atomspertype</field>
   <field type="string">element</field>
   <field>mass</field>
   <field>valence</field>
   <field type="string">pseudopotential</field>
   <set>
    <rc><c>   4</c><c>C </c><c>     12.01100000</c><c>      4.00000000</c><c> PAW_PBE C 08Apr2002                    </c></rc>
   </set>
  </array>
 </atominfo>
 <structure name="initialpos" >
  <crystal>
   <varray name="basis" >
    <v>       2.46120000       0.00000000       0.00000000 </v>
    <v>      -1.23060000       2.13146172       0.00000000 </v>
    <v>       0.00000000       0.00000000       6.70790000 </v>
   </varray>
   <i name="volume">     35.18933212 </i>
   <varray name="rec_basis" >
    <v>       0.40630587       0.23458080       0.00000000 </v>
    <v>       0.00000000       0.46916160       0.00000000 </v>
    <v>       0.00000000       0.00000000       0.14907795 </v>
   </varray>
  </crystal>
  <varray name="positions" >
   <v>       0.00000000       0.00000000       0.00000000 </v>
   <v>       0.33333333       0.66666667       0.00000000 </v>
   <v>       0.33333333       0.66666667       0.50000000 </v>
   <v>       0.66666667       0.33333333       0.50000000 </v>
  </varray>
 </structure>
 <calculation>
  <scstep>
   <time name="dav">    2.92    2.92</time>
   <time name="total">    3.26    3.26</time>
   <energy>
    <i name="alphaZ">     37.04766603 </i>
    <i name="ewald">   -460.60042082 </i>
    <i name="hartreedc">   -148.78490797 </i>
    <i name="XCdc">     56.10990993 </i>
    <i name="pawpsdc">    150.95130483 </i>
    <i name="pawaedc">   -155.51722924 </i>
    <i name="eentropy">     -0.00054296 </i>
    <i name="bandstr">    -44.17434211 </i>
    <i name="atom">    588.28246388 </i>
    <i name="e_fr_energy">     23.31390157 </i>
    <i name="e_wo_entrp">     23.31444453 </i>
    <i name="e_0_energy">     23.31408256 </i>
   </energy>
  </scstep>
  <scstep>
   <time name="dav">    3.64    3.64</time>
   <time name="total">    3.65    3.65</time>
   <energy>
    <i name="e_fr_energy">    -35.28365158 </i>
    <i name="e_wo_entrp">    -35.28367427 </i>
    <i name="e_0_energy">    -35.28365915 </i>
   </energy>
  </scstep>
  <scstep>
   <time name="dav">    3.60    3.60</time>
   <time name="total">    3.60    3.61</time>
   <energy>
    <i name="e_fr_energy">    -37.61636256 </i>
    <i name="e_wo_entrp">    -37.61637930 </i>
    <i name="e_0_energy">    -37.61636814 </i>
   </energy>
  </scstep>
  <scstep>
   <time name="dav">    3.41    3.41</time>
   <time name="total">    3.41    3.43</time>
   <energy>
    <i name="e_fr_energy">    -37.63760111 </i>
    <i name="e_wo_entrp">    -37.63761801 </i>
    <i name="e_0_energy">    -37.63760674 </i>
   </energy>
  </scstep>
  <scstep>
   <time name="dav">    3.56    3.56</time>
   <time name="total">    3.83    3.85</time>
   <energy>
    <i name="e_fr_energy">    -37.63802946 </i>
    <i name="e_wo_entrp">    -37.63804637 </i>
    <i name="e_0_energy">    -37.63803510 </i>
   </energy>
  </scstep>
  <scstep>
   <time name="dav">    3.13    3.14</time>
   <time name="total">    3.74    3.76</time>
   <energy>
    <i name="e_fr_energy">    -36.99669336 </i>
    <i name="e_wo_entrp">    -36.99680931 </i>
    <i name="e_0_energy">    -36.99673201 </i>
   </energy>
  </scstep>
  <scstep>
   <time name="dav">    3.21    3.21</time>
   <time name="total">    3.81    3.82</time>
   <energy>
    <i name="e_fr_energy">    -36.88181330 </i>
    <i name="e_wo_entrp">    -36.88213517 </i>
    <i name="e_0_energy">    -36.88192059 </i>
   </energy>
  </scstep>
  <scstep>
   <time name="dav">    3.28    3.28</time>
   <time name="total">    3.88    3.90</time>
   <energy>
    <i name="e_fr_energy">    -36.82937393 </i>
    <i name="e_wo_entrp">    -36.82949893 </i>
    <i name="e_0_energy">    -36.82941560 </i>
   </energy>
  </scstep>
  <scstep>
   <time name="dav">    3.19    3.19</time>
   <time name="total">    3.79    3.80</time>
   <energy>
    <i name="e_fr_energy">    -36.84075322 </i>
    <i name="e_wo_entrp">    -36.84097210 </i>
    <i name="e_0_energy">    -36.84082618 </i>
   </energy>
  </scstep>
  <scstep>
   <time name="dav">    3.38    3.38</time>
   <time name="total">    3.99    4.00</time>
   <energy>
    <i name="e_fr_energy">    -36.84156238 </i>
    <i name="e_wo_entrp">    -36.84162927 </i>
    <i name="e_0_energy">    -36.84158468 </i>
   </energy>
  </scstep>
  <scstep>
   <time name="dav">    3.21    3.21</time>
   <time name="total">    3.81    3.82</time>
   <energy>
    <i name="e_fr_energy">    -36.84185949 </i>
    <i name="e_wo_entrp">    -36.84198231 </i>
    <i name="e_0_energy">    -36.84190043 </i>
   </energy>
  </scstep>
  <scstep>
   <time name="dav">    2.82    2.82</time>
   <time name="total">    3.16    3.23</time>
   <energy>
    <i name="alphaZ">     37.04766603 </i>
    <i name="ewald">   -460.60042082 </i>
    <i name="hartreedc">   -183.45628997 </i>
    <i name="XCdc">     57.69265465 </i>
    <i name="pawpsdc">    281.11514786 </i>
    <i name="pawaedc">   -286.19973200 </i>
    <i name="eentropy">      0.00013103 </i>
    <i name="bandstr">    -70.72357250 </i>
    <i name="atom">    588.28246388 </i>
    <i name="e_fr_energy">    -36.84195185 </i>
    <i name="e_wo_entrp">    -36.84208288 </i>
    <i name="e_0_energy">    -36.84199553 </i>
   </energy>
  </scstep>
  <parameters_embedded>
   <separator name="dft+d2" >
    <i type="logical" name="LVDW"> F  </i>
   </separator>
  </parameters_embedded>
  <structure>
   <crystal>
    <varray name="basis" >
     <v>       2.46120000       0.00000000       0.00000000 </v>
     <v>      -1.23060000       2.13146172       0.00000000 </v>
     <v>       0.00000000       0.00000000       6.70790000 </v>
    </varray>
    <i name="volume">     35.18933212 </i>
    <varray name="rec_basis" >
     <v>       0.40630587       0.23458080       0.00000000 </v>
     <v>       0.00000000       0.46916160       0.00000000 </v>
     <v>       0.00000000       0.00000000       0.14907795 </v>
    </varray>
   </crystal>
   <varray name="positions" >
    <v>       0.00000000       0.00000000       0.00000000 </v>
    <v>       0.33333333       0.66666667       0.00000000 </v>
    <v>       0.33333333       0.66666667       0.50000000 </v>
    <v>       0.66666667       0.33333333       0.50000000 </v>
   </varray>
  </structure>
  <varray name="forces" >
   <v>       0.00000000       0.00000000       0.00000000 </v>
   <v>       0.00000000       0.00000000       0.00000000 </v>
   <v>       0.00000000       0.00000000       0.00000000 </v>
   <v>       0.00000000       0.00000000       0.00000000 </v>
  </varray>
  <varray name="stress" >
   <v>     -20.09284197       0.00000000       0.00000000 </v>
   <v>       0.00000000     -20.09284197       0.00000000 </v>
   <v>       0.00000000       0.00000000     -49.06100303 </v>
  </varray>
  <energy>
   <i name="e_fr_energy">    -36.84195185 </i>
   <i name="e_wo_entrp">    -36.84199553 </i>
   <i name="e_0_energy">      0.00013103 </i>
  </energy>
  <time name="totalsc">   45.72   46.01</time>
  <eigenvalues>
   <array>
    <dimension dim="1">band</dimension>
    <dimension dim="2">kpoint</dimension>
    <dimension dim="3">spin</dimension>
    <field>eigene</field>
    <field>occ</field>
    <set>
     <set comment="spin 1">
      <set comment="kpoint 1">
       <r>  -15.0014    1.0000 </r>
       <r>  -14.7020    1.0000 </r>
       <r>   -3.8552    1.0000 </r>
       <r>   -1.9024    1.0000 </r>
       <r>    1.7172    1.0000 </r>
       <r>    1.7173    1.0000 </r>
       <r>    1.7218    1.0000 </r>
       <r>    1.7219    1.0000 </r>
       <r>    8.9671    0.0000 </r>
       <r>   13.1374    0.0000 </r>
       <r>   13.1375    0.0000 </r>
       <r>   13.2010    0.0000 </r>
       <r>   13.2010    0.0000 </r>
       <r>   15.2977    0.0000 </r>
      </set>
      <set comment="kpoint 2">
       <r>  -14.3385    1.0000 </r>
       <r>  -14.0507    1.0000 </r>
       <r>   -3.0518    1.0000 </r>
       <r>   -1.1563    1.0000 </r>
       <r>   -0.6252    1.0000 </r>
       <r>   -0.5624    1.0000 </r>
       <r>    0.5494    1.0000 </r>
       <r>    0.5934    1.0000 </r>
       <r>    9.7729    0.0000 </r>
       <r>   13.0615    0.0000 </r>
       <r>   13.2350    0.0000 </r>
       <r>   13.9575    0.0000 </r>
       <r>   14.3561    0.0000 </r>
       <r>   15.7089    0.0000 </r>
      </set>
      <set comment="kpoint 3">
       <r>  -12.3822    1.0000 </r>
       <r>  -12.1293    1.0000 </r>
       <r>   -4.9870    1.0000 </r>
       <r>   -4.8537    1.0000 </r>
       <r>   -1.0771    1.0000 </r>
       <r>   -1.0215    1.0000 </r>
       <r>   -0.7409    1.0000 </r>
       <r>    0.9453    1.0000 </r>
       <r>    9.2378    0.0000 </r>
       <r>   10.1351    0.0000 </r>
       <r>   12.0841    0.0000 </r>
       <r>   12.3620    0.0000 </r>
       <r>   12.7567    0.0000 </r>
       <r>   17.4818    0.0000 </r>
      </set>
      <set comment="kpoint 4">
       <r>   -9.6431    1.0000 </r>
       <r>   -9.5406    1.0000 </r>
       <r>   -8.5742    1.0000 </r>
       <r>   -8.4982    1.0000 </r>
       <r>   -1.7185    1.0000 </r>
       <r>   -1.6611    1.0000 </r>
       <r>    1.9233    1.0000 </r>
       <r>    2.5667    1.0000 </r>
       <r>    6.2529    0.0000 </r>
       <r>    6.8485    0.0000 </r>
       <r>   11.9522    0.0000 </r>
       <r>   12.3512    0.0000 </r>
       <r>   16.0302    0.0000 </r>
       <r>   16.1108    0.0000 </r>
      </set>
      <set comment="kpoint 5">
       <r>  -13.0286    1.0000 </r>
       <r>  -12.7644    1.0000 </r>
       <r>   -3.0701    1.0000 </r>
       <r>   -3.0146    1.0000 </r>
       <r>   -1.7081    1.0000 </r>
       <r>   -1.6686    1.0000 </r>
       <r>   -1.4856    1.0000 </r>
       <r>    0.2850    1.0000 </r>
       <r>   10.8843    0.0000 </r>
       <r>   11.3750    0.0000 </r>
       <r>   11.3933    0.0000 </r>
       <r>   14.7144    0.0000 </r>
       <r>   14.9585    0.0000 </r>
       <r>   16.3181    0.0000 </r>
      </set>
      <set comment="kpoint 6">
       <r>  -10.5077    1.0000 </r>
       <r>  -10.2931    1.0000 </r>
       <r>   -6.7747    1.0000 </r>
       <r>   -6.6264    1.0000 </r>
       <r>   -3.3739    1.0000 </r>
       <r>   -3.2843    1.0000 </r>
       <r>    1.3790    1.0000 </r>
       <r>    2.7042    1.0000 </r>
       <r>    6.9062    0.0000 </r>
       <r>    7.6396    0.0000 </r>
       <r>   14.4506    0.0000 </r>
       <r>   14.6161    0.0000 </r>
       <r>   15.1255    0.0000 </r>
       <r>   17.1687    0.0000 </r>
      </set>
      <set comment="kpoint 7">
       <r>   -7.9647    1.0000 </r>
       <r>   -7.9240    1.0000 </r>
       <r>   -7.9240    1.0000 </r>
       <r>   -7.7732    1.0000 </r>
       <r>   -5.8542    1.0000 </r>
       <r>   -5.8542    1.0000 </r>
       <r>    4.1366    1.0000 </r>
       <r>    4.5697    1.0001 </r>
       <r>    4.5697    1.0001 </r>
       <r>    5.5130    0.0000 </r>
       <r>   15.8465    0.0000 </r>
       <r>   15.8465    0.0000 </r>
       <r>   17.0226    0.0000 </r>
       <r>   17.2649    0.0000 </r>
      </set>
      <set comment="kpoint 8">
       <r>  -14.9827    1.0000 </r>
       <r>  -14.7234    1.0000 </r>
       <r>   -3.7440    1.0000 </r>
       <r>   -2.0649    1.0000 </r>
       <r>    1.7056    1.0000 </r>
       <r>    1.7057    1.0000 </r>
       <r>    1.7162    1.0000 </r>
       <r>    1.7163    1.0000 </r>
       <r>    9.3055    0.0000 </r>
       <r>   13.1317    0.0000 </r>
       <r>   13.1318    0.0000 </r>
       <r>   13.1725    0.0000 </r>
       <r>   13.1725    0.0000 </r>
       <r>   14.6349    0.0000 </r>
      </set>
      <set comment="kpoint 9">
       <r>  -14.3203    1.0000 </r>
       <r>  -14.0711    1.0000 </r>
       <r>   -2.9458    1.0000 </r>
       <r>   -1.3118    1.0000 </r>
       <r>   -0.6208    1.0000 </r>
       <r>   -0.5669    1.0000 </r>
       <r>    0.5561    1.0000 </r>
       <r>    0.5910    1.0000 </r>
       <r>   10.1005    0.0000 </r>
       <r>   13.0652    0.0000 </r>
       <r>   13.2219    0.0000 </r>
       <r>   13.9879    0.0000 </r>
       <r>   14.3151    0.0000 </r>
       <r>   15.3021    0.0000 </r>
      </set>
      <set comment="kpoint 10">
       <r>  -12.3659    1.0000 </r>
       <r>  -12.1472    1.0000 </r>
       <r>   -4.9780    1.0000 </r>
       <r>   -4.8599    1.0000 </r>
       <r>   -1.0686    1.0000 </r>
       <r>   -1.0272    1.0000 </r>
       <r>   -0.6403    1.0000 </r>
       <r>    0.8070    1.0000 </r>
       <r>    9.2832    0.0000 </r>
       <r>   10.0608    0.0000 </r>
       <r>   12.2610    0.0000 </r>
       <r>   12.4260    0.0000 </r>
       <r>   12.8304    0.0000 </r>
       <r>   17.0204    0.0000 </r>
      </set>
      <set comment="kpoint 11">
       <r>   -9.6359    1.0000 </r>
       <r>   -9.5460    1.0000 </r>
       <r>   -8.5715    1.0000 </r>
       <r>   -8.5056    1.0000 </r>
       <r>   -1.7094    1.0000 </r>
       <r>   -1.6654    1.0000 </r>
       <r>    1.9815    1.0000 </r>
       <r>    2.5487    1.0000 </r>
       <r>    6.2377    0.0000 </r>
       <r>    6.7684    0.0000 </r>
       <r>   11.9771    0.0000 </r>
       <r>   12.3228    0.0000 </r>
       <r>   16.2896    0.0000 </r>
       <r>   16.2973    0.0000 </r>
      </set>
      <set comment="kpoint 12">
       <r>  -13.0117    1.0000 </r>
       <r>  -12.7831    1.0000 </r>
       <r>   -3.0667    1.0000 </r>
       <r>   -3.0188    1.0000 </r>
       <r>   -1.7049    1.0000 </r>
       <r>   -1.6712    1.0000 </r>
       <r>   -1.3866    1.0000 </r>
       <r>    0.1437    1.0000 </r>
       <r>   10.9180    0.0000 </r>
       <r>   11.3276    0.0000 </r>
       <r>   11.7043    0.0000 </r>
       <r>   14.7170    0.0000 </r>
       <r>   14.9550    0.0000 </r>
       <r>   16.3021    0.0000 </r>
      </set>
      <set comment="kpoint 13">
       <r>  -10.4941    1.0000 </r>
       <r>  -10.3082    1.0000 </r>
       <r>   -6.7651    1.0000 </r>
       <r>   -6.6373    1.0000 </r>
       <r>   -3.3678    1.0000 </r>
       <r>   -3.2888    1.0000 </r>
       <r>    1.4641    1.0000 </r>
       <r>    2.6110    1.0000 </r>
       <r>    6.9371    0.0000 </r>
       <r>    7.5840    0.0000 </r>
       <r>   14.5535    0.0000 </r>
       <r>   14.6793    0.0000 </r>
       <r>   15.1294    0.0000 </r>
       <r>   16.8791    0.0000 </r>
      </set>
      <set comment="kpoint 14">
       <r>   -7.9522    1.0000 </r>
       <r>   -7.9232    1.0000 </r>
       <r>   -7.9232    1.0000 </r>
       <r>   -7.7863    1.0000 </r>
       <r>   -5.8560    1.0000 </r>
       <r>   -5.8560    1.0000 </r>
       <r>    4.2244    1.0000 </r>
       <r>    4.5806    1.0002 </r>
       <r>    4.5806    1.0002 </r>
       <r>    5.4053    0.0000 </r>
       <r>   15.4885    0.0000 </r>
       <r>   15.4885    0.0000 </r>
       <r>   17.2308    0.0000 </r>
       <r>   17.7886    0.0000 </r>
      </set>
      <set comment="kpoint 15">
       <r>  -14.9304    1.0000 </r>
       <r>  -14.7808    1.0000 </r>
       <r>   -3.4302    1.0000 </r>
       <r>   -2.4728    1.0000 </r>
       <r>    1.7056    1.0000 </r>
       <r>    1.7057    1.0000 </r>
       <r>    1.7125    1.0000 </r>
       <r>    1.7125    1.0000 </r>
       <r>   10.2465    0.0000 </r>
       <r>   13.1408    0.0000 </r>
       <r>   13.1409    0.0000 </r>
       <r>   13.1610    0.0000 </r>
       <r>   13.1611    0.0000 </r>
       <r>   13.1882    0.0000 </r>
      </set>
      <set comment="kpoint 16">
       <r>  -14.2699    1.0000 </r>
       <r>  -14.1260    1.0000 </r>
       <r>   -2.6389    1.0000 </r>
       <r>   -1.7058    1.0000 </r>
       <r>   -0.6070    1.0000 </r>
       <r>   -0.5770    1.0000 </r>
       <r>    0.5611    1.0000 </r>
       <r>    0.5833    1.0000 </r>
       <r>   11.0068    0.0000 </r>
       <r>   13.0527    0.0000 </r>
       <r>   13.2033    0.0000 </r>
       <r>   13.8832    0.0000 </r>
       <r>   14.0756    0.0000 </r>
       <r>   14.3297    0.0000 </r>
      </set>
      <set comment="kpoint 17">
       <r>  -12.3215    1.0000 </r>
       <r>  -12.1953    1.0000 </r>
       <r>   -4.9533    1.0000 </r>
       <r>   -4.8844    1.0000 </r>
       <r>   -1.0593    1.0000 </r>
       <r>   -1.0366    1.0000 </r>
       <r>   -0.3640    1.0000 </r>
       <r>    0.4657    1.0000 </r>
       <r>    9.4152    0.0000 </r>
       <r>    9.8670    0.0000 </r>
       <r>   12.3912    0.0000 </r>
       <r>   12.5211    0.0000 </r>
       <r>   13.4609    0.0000 </r>
       <r>   15.9167    0.0000 </r>
      </set>
      <set comment="kpoint 18">
       <r>   -9.6139    1.0000 </r>
       <r>   -9.5618    1.0000 </r>
       <r>   -8.5618    1.0000 </r>
       <r>   -8.5239    1.0000 </r>
       <r>   -1.6976    1.0000 </r>
       <r>   -1.6697    1.0000 </r>
       <r>    2.1329    1.0000 </r>
       <r>    2.4694    1.0000 </r>
       <r>    6.2467    0.0000 </r>
       <r>    6.5674    0.0000 </r>
       <r>   12.0475    0.0000 </r>
       <r>   12.2484    0.0000 </r>
       <r>   16.7850    0.0000 </r>
       <r>   16.9640    0.0000 </r>
      </set>
      <set comment="kpoint 19">
       <r>  -12.9650    1.0000 </r>
       <r>  -12.8333    1.0000 </r>
       <r>   -3.0566    1.0000 </r>
       <r>   -3.0291    1.0000 </r>
       <r>   -1.6971    1.0000 </r>
       <r>   -1.6790    1.0000 </r>
       <r>   -1.0975    1.0000 </r>
       <r>   -0.2173    1.0000 </r>
       <r>   10.9980    0.0000 </r>
       <r>   11.2347    0.0000 </r>
       <r>   12.5321    0.0000 </r>
       <r>   14.6269    0.0000 </r>
       <r>   14.9519    0.0000 </r>
       <r>   15.2652    0.0000 </r>
      </set>
      <set comment="kpoint 20">
       <r>  -10.4561    1.0000 </r>
       <r>  -10.3487    1.0000 </r>
       <r>   -6.7384    1.0000 </r>
       <r>   -6.6660    1.0000 </r>
       <r>   -3.3530    1.0000 </r>
       <r>   -3.3090    1.0000 </r>
       <r>    1.6907    1.0000 </r>
       <r>    2.3577    1.0000 </r>
       <r>    7.0417    0.0000 </r>
       <r>    7.4213    0.0000 </r>
       <r>   14.6457    0.0000 </r>
       <r>   14.8009    0.0000 </r>
       <r>   15.3529    0.0000 </r>
       <r>   16.3951    0.0000 </r>
      </set>
      <set comment="kpoint 21">
       <r>   -7.9222    1.0000 </r>
       <r>   -7.9222    1.0000 </r>
       <r>   -7.9185    1.0000 </r>
       <r>   -7.8221    1.0000 </r>
       <r>   -5.8590    1.0000 </r>
       <r>   -5.8590    1.0000 </r>
       <r>    4.4530    1.0000 </r>
       <r>    4.5979    1.0012 </r>
       <r>    4.5979    1.0012 </r>
       <r>    5.1300    0.0000 </r>
       <r>   15.0458    0.0000 </r>
       <r>   15.0458    0.0000 </r>
       <r>   17.7807    0.0000 </r>
       <r>   18.6937    0.0000 </r>
      </set>
      <set comment="kpoint 22">
       <r>  -14.8568    1.0000 </r>
       <r>  -14.8568    1.0000 </r>
       <r>   -2.9786    1.0000 </r>
       <r>   -2.9786    1.0000 </r>
       <r>    1.7086    1.0000 </r>
       <r>    1.7086    1.0000 </r>
       <r>    1.7087    1.0000 </r>
       <r>    1.7087    1.0000 </r>
       <r>   11.6084    0.0000 </r>
       <r>   11.6084    0.0000 </r>
       <r>   13.1472    0.0000 </r>
       <r>   13.1472    0.0000 </r>
       <r>   13.1473    0.0000 </r>
       <r>   13.1473    0.0000 </r>
      </set>
      <set comment="kpoint 23">
       <r>  -14.1990    1.0000 </r>
       <r>  -14.1990    1.0000 </r>
       <r>   -2.1944    1.0000 </r>
       <r>   -2.1944    1.0000 </r>
       <r>   -0.5928    1.0000 </r>
       <r>   -0.5928    1.0000 </r>
       <r>    0.5749    1.0000 </r>
       <r>    0.5749    1.0000 </r>
       <r>   12.2898    0.0000 </r>
       <r>   12.2898    0.0000 </r>
       <r>   13.2077    0.0000 </r>
       <r>   13.2077    0.0000 </r>
       <r>   14.1783    0.0000 </r>
       <r>   14.1783    0.0000 </r>
      </set>
      <set comment="kpoint 24">
       <r>  -12.2593    1.0000 </r>
       <r>  -12.2592    1.0000 </r>
       <r>   -4.9211    1.0000 </r>
       <r>   -4.9211    1.0000 </r>
       <r>   -1.0505    1.0000 </r>
       <r>   -1.0505    1.0000 </r>
       <r>    0.0313    1.0000 </r>
       <r>    0.0313    1.0000 </r>
       <r>    9.6232    0.0000 </r>
       <r>    9.6232    0.0000 </r>
       <r>   12.4704    0.0000 </r>
       <r>   12.4704    0.0000 </r>
       <r>   14.6147    0.0000 </r>
       <r>   14.6147    0.0000 </r>
      </set>
      <set comment="kpoint 25">
       <r>   -9.5868    1.0000 </r>
       <r>   -9.5868    1.0000 </r>
       <r>   -8.5474    1.0000 </r>
       <r>   -8.5474    1.0000 </r>
       <r>   -1.6852    1.0000 </r>
       <r>   -1.6852    1.0000 </r>
       <r>    2.3136    1.0000 </r>
       <r>    2.3136    1.0000 </r>
       <r>    6.3539    0.0000 </r>
       <r>    6.3539    0.0000 </r>
       <r>   12.1441    0.0000 </r>
       <r>   12.1441    0.0000 </r>
       <r>   17.3082    0.0000 </r>
       <r>   17.3082    0.0000 </r>
      </set>
      <set comment="kpoint 26">
       <r>  -12.8999    1.0000 </r>
       <r>  -12.8999    1.0000 </r>
       <r>   -3.0391    1.0000 </r>
       <r>   -3.0391    1.0000 </r>
       <r>   -1.6857    1.0000 </r>
       <r>   -1.6857    1.0000 </r>
       <r>   -0.6753    1.0000 </r>
       <r>   -0.6753    1.0000 </r>
       <r>   11.1194    0.0000 </r>
       <r>   11.1194    0.0000 </r>
       <r>   13.6870    0.0000 </r>
       <r>   13.6870    0.0000 </r>
       <r>   14.9540    0.0000 </r>
       <r>   14.9540    0.0000 </r>
      </set>
      <set comment="kpoint 27">
       <r>  -10.4030    1.0000 </r>
       <r>  -10.4030    1.0000 </r>
       <r>   -6.7025    1.0000 </r>
       <r>   -6.7025    1.0000 </r>
       <r>   -3.3297    1.0000 </r>
       <r>   -3.3297    1.0000 </r>
       <r>    2.0161    1.0000 </r>
       <r>    2.0161    1.0000 </r>
       <r>    7.2187    0.0000 </r>
       <r>    7.2187    0.0000 </r>
       <r>   14.7387    0.0000 </r>
       <r>   14.7387    0.0000 </r>
       <r>   15.8697    0.0000 </r>
       <r>   15.8697    0.0000 </r>
      </set>
      <set comment="kpoint 28">
       <r>   -7.9224    1.0000 </r>
       <r>   -7.9224    1.0000 </r>
       <r>   -7.8716    1.0000 </r>
       <r>   -7.8716    1.0000 </r>
       <r>   -5.8596    1.0000 </r>
       <r>   -5.8596    1.0000 </r>
       <r>    4.6053    1.0022 </r>
       <r>    4.6053    1.0022 </r>
       <r>    4.7787   -0.0334 </r>
       <r>    4.7787   -0.0334 </r>
       <r>   14.8770    0.0000 </r>
       <r>   14.8770    0.0000 </r>
       <r>   18.4988    0.0000 </r>
       <r>   18.4988    0.0000 </r>
      </set>
     </set>
     <set comment="spin 2">
      <set comment="kpoint 1">
       <r>  -14.9713    1.0000 </r>
       <r>  -14.6727    1.0000 </r>
       <r>   -3.7885    1.0000 </r>
       <r>   -1.8268    1.0000 </r>
       <r>    1.7297    1.0000 </r>
       <r>    1.7298    1.0000 </r>
       <r>    1.7345    1.0000 </r>
       <r>    1.7346    1.0000 </r>
       <r>    9.0036    0.0000 </r>
       <r>   13.1494    0.0000 </r>
       <r>   13.1495    0.0000 </r>
       <r>   13.2119    0.0000 </r>
       <r>   13.2120    0.0000 </r>
       <r>   15.3448    0.0000 </r>
      </set>
      <set comment="kpoint 2">
       <r>  -14.3087    1.0000 </r>
       <r>  -14.0216    1.0000 </r>
       <r>   -2.9844    1.0000 </r>
       <r>   -1.0796    1.0000 </r>
       <r>   -0.6082    1.0000 </r>
       <r>   -0.5455    1.0000 </r>
       <r>    0.5618    1.0000 </r>
       <r>    0.6057    1.0000 </r>
       <r>    9.8092    0.0000 </r>
       <r>   13.0842    0.0000 </r>
       <r>   13.2526    0.0000 </r>
       <r>   14.0428    0.0000 </r>
       <r>   14.4685    0.0000 </r>
       <r>   15.7281    0.0000 </r>
      </set>
      <set comment="kpoint 3">
       <r>  -12.3534    1.0000 </r>
       <r>  -12.1008    1.0000 </r>
       <r>   -4.9651    1.0000 </r>
       <r>   -4.8321    1.0000 </r>
       <r>   -1.0649    1.0000 </r>
       <r>   -1.0095    1.0000 </r>
       <r>   -0.6724    1.0000 </r>
       <r>    1.0281    1.0000 </r>
       <r>    9.3073    0.0000 </r>
       <r>   10.2387    0.0000 </r>
       <r>   12.1105    0.0000 </r>
       <r>   12.4116    0.0000 </r>
       <r>   12.7832    0.0000 </r>
       <r>   17.5563    0.0000 </r>
      </set>
      <set comment="kpoint 4">
       <r>   -9.6181    1.0000 </r>
       <r>   -9.5007    1.0000 </r>
       <r>   -8.5615    1.0000 </r>
       <r>   -8.4725    1.0000 </r>
       <r>   -1.7064    1.0000 </r>
       <r>   -1.6493    1.0000 </r>
       <r>    1.9639    1.0000 </r>
       <r>    2.7009    1.0000 </r>
       <r>    6.2560    0.0000 </r>
       <r>    6.9870    0.0000 </r>
       <r>   11.9896    0.0000 </r>
       <r>   12.3878    0.0000 </r>
       <r>   16.0193    0.0000 </r>
       <r>   16.1965    0.0000 </r>
      </set>
      <set comment="kpoint 5">
       <r>  -12.9994    1.0000 </r>
       <r>  -12.7358    1.0000 </r>
       <r>   -3.0494    1.0000 </r>
       <r>   -2.9921    1.0000 </r>
       <r>   -1.6960    1.0000 </r>
       <r>   -1.6554    1.0000 </r>
       <r>   -1.4171    1.0000 </r>
       <r>    0.3650    1.0000 </r>
       <r>   10.9694    0.0000 </r>
       <r>   11.4292    0.0000 </r>
       <r>   11.4729    0.0000 </r>
       <r>   14.7404    0.0000 </r>
       <r>   14.9685    0.0000 </r>
       <r>   16.3567    0.0000 </r>
      </set>
      <set comment="kpoint 6">
       <r>  -10.4795    1.0000 </r>
       <r>  -10.2646    1.0000 </r>
       <r>   -6.7512    1.0000 </r>
       <r>   -6.6028    1.0000 </r>
       <r>   -3.3595    1.0000 </r>
       <r>   -3.2700    1.0000 </r>
       <r>    1.4441    1.0000 </r>
       <r>    2.8019    1.0000 </r>
       <r>    6.9725    0.0000 </r>
       <r>    7.7334    0.0000 </r>
       <r>   14.4657    0.0000 </r>
       <r>   14.6767    0.0000 </r>
       <r>   15.1503    0.0000 </r>
       <r>   17.2445    0.0000 </r>
      </set>
      <set comment="kpoint 7">
       <r>   -7.9927    1.0000 </r>
       <r>   -7.8380    1.0000 </r>
       <r>   -7.8380    1.0000 </r>
       <r>   -7.8001    1.0000 </r>
       <r>   -5.8444    1.0000 </r>
       <r>   -5.8444    1.0000 </r>
       <r>    4.0299    1.0000 </r>
       <r>    4.8431   -0.0018 </r>
       <r>    4.8431   -0.0018 </r>
       <r>    5.3983    0.0000 </r>
       <r>   15.8963    0.0000 </r>
       <r>   15.8963    0.0000 </r>
       <r>   16.9739    0.0000 </r>
       <r>   17.3526    0.0000 </r>
      </set>
      <set comment="kpoint 8">
       <r>  -14.9527    1.0000 </r>
       <r>  -14.6941    1.0000 </r>
       <r>   -3.6769    1.0000 </r>
       <r>   -1.9904    1.0000 </r>
       <r>    1.7180    1.0000 </r>
       <r>    1.7181    1.0000 </r>
       <r>    1.7289    1.0000 </r>
       <r>    1.7290    1.0000 </r>
       <r>    9.3435    0.0000 </r>
       <r>   13.1435    0.0000 </r>
       <r>   13.1436    0.0000 </r>
       <r>   13.1836    0.0000 </r>
       <r>   13.1836    0.0000 </r>
       <r>   14.6878    0.0000 </r>
      </set>
      <set comment="kpoint 9">
       <r>  -14.2906    1.0000 </r>
       <r>  -14.0420    1.0000 </r>
       <r>   -2.8781    1.0000 </r>
       <r>   -1.2361    1.0000 </r>
       <r>   -0.6038    1.0000 </r>
       <r>   -0.5499    1.0000 </r>
       <r>    0.5685    1.0000 </r>
       <r>    0.6033    1.0000 </r>
       <r>   10.1385    0.0000 </r>
       <r>   13.0885    0.0000 </r>
       <r>   13.2397    0.0000 </r>
       <r>   14.0695    0.0000 </r>
       <r>   14.4290    0.0000 </r>
       <r>   15.3691    0.0000 </r>
      </set>
      <set comment="kpoint 10">
       <r>  -12.3371    1.0000 </r>
       <r>  -12.1188    1.0000 </r>
       <r>   -4.9561    1.0000 </r>
       <r>   -4.8383    1.0000 </r>
       <r>   -1.0563    1.0000 </r>
       <r>   -1.0152    1.0000 </r>
       <r>   -0.5712    1.0000 </r>
       <r>    0.8882    1.0000 </r>
       <r>    9.3556    0.0000 </r>
       <r>   10.1616    0.0000 </r>
       <r>   12.2835    0.0000 </r>
       <r>   12.4789    0.0000 </r>
       <r>   12.8595    0.0000 </r>
       <r>   17.0893    0.0000 </r>
      </set>
      <set comment="kpoint 11">
       <r>   -9.6101    1.0000 </r>
       <r>   -9.5073    1.0000 </r>
       <r>   -8.5578    1.0000 </r>
       <r>   -8.4806    1.0000 </r>
       <r>   -1.6972    1.0000 </r>
       <r>   -1.6535    1.0000 </r>
       <r>    2.0262    1.0000 </r>
       <r>    2.6753    1.0000 </r>
       <r>    6.2509    0.0000 </r>
       <r>    6.8993    0.0000 </r>
       <r>   12.0147    0.0000 </r>
       <r>   12.3596    0.0000 </r>
       <r>   16.2779    0.0000 </r>
       <r>   16.3859    0.0000 </r>
      </set>
      <set comment="kpoint 12">
       <r>  -12.9826    1.0000 </r>
       <r>  -12.7545    1.0000 </r>
       <r>   -3.0459    1.0000 </r>
       <r>   -2.9964    1.0000 </r>
       <r>   -1.6927    1.0000 </r>
       <r>   -1.6580    1.0000 </r>
       <r>   -1.3177    1.0000 </r>
       <r>    0.2224    1.0000 </r>
       <r>   11.0043    0.0000 </r>
       <r>   11.4305    0.0000 </r>
       <r>   11.7359    0.0000 </r>
       <r>   14.7426    0.0000 </r>
       <r>   14.9666    0.0000 </r>
       <r>   16.3443    0.0000 </r>
      </set>
      <set comment="kpoint 13">
       <r>  -10.4660    1.0000 </r>
       <r>  -10.2796    1.0000 </r>
       <r>   -6.7416    1.0000 </r>
       <r>   -6.6136    1.0000 </r>
       <r>   -3.3534    1.0000 </r>
       <r>   -3.2745    1.0000 </r>
       <r>    1.5304    1.0000 </r>
       <r>    2.7055    1.0000 </r>
       <r>    7.0062    0.0000 </r>
       <r>    7.6771    0.0000 </r>
       <r>   14.5715    0.0000 </r>
       <r>   14.7427    0.0000 </r>
       <r>   15.1527    0.0000 </r>
       <r>   16.9455    0.0000 </r>
      </set>
      <set comment="kpoint 14">
       <r>   -7.9801    1.0000 </r>
       <r>   -7.8373    1.0000 </r>
       <r>   -7.8373    1.0000 </r>
       <r>   -7.8133    1.0000 </r>
       <r>   -5.8462    1.0000 </r>
       <r>   -5.8462    1.0000 </r>
       <r>    4.1174    1.0000 </r>
       <r>    4.8545   -0.0006 </r>
       <r>    4.8545   -0.0006 </r>
       <r>    5.2913    0.0000 </r>
       <r>   15.5429    0.0000 </r>
       <r>   15.5429    0.0000 </r>
       <r>   17.1825    0.0000 </r>
       <r>   17.8692    0.0000 </r>
      </set>
      <set comment="kpoint 15">
       <r>  -14.9005    1.0000 </r>
       <r>  -14.7513    1.0000 </r>
       <r>   -3.3620    1.0000 </r>
       <r>   -2.4006    1.0000 </r>
       <r>    1.7181    1.0000 </r>
       <r>    1.7182    1.0000 </r>
       <r>    1.7251    1.0000 </r>
       <r>    1.7252    1.0000 </r>
       <r>   10.2882    0.0000 </r>
       <r>   13.1525    0.0000 </r>
       <r>   13.1525    0.0000 </r>
       <r>   13.1723    0.0000 </r>
       <r>   13.1723    0.0000 </r>
       <r>   13.2395    0.0000 </r>
      </set>
      <set comment="kpoint 16">
       <r>  -14.2402    1.0000 </r>
       <r>  -14.0968    1.0000 </r>
       <r>   -2.5700    1.0000 </r>
       <r>   -1.6325    1.0000 </r>
       <r>   -0.5900    1.0000 </r>
       <r>   -0.5601    1.0000 </r>
       <r>    0.5734    1.0000 </r>
       <r>    0.5957    1.0000 </r>
       <r>   11.0492    0.0000 </r>
       <r>   13.0810    0.0000 </r>
       <r>   13.2213    0.0000 </r>
       <r>   13.9062    0.0000 </r>
       <r>   14.2132    0.0000 </r>
       <r>   14.4185    0.0000 </r>
      </set>
      <set comment="kpoint 17">
       <r>  -12.2927    1.0000 </r>
       <r>  -12.1667    1.0000 </r>
       <r>   -4.9315    1.0000 </r>
       <r>   -4.8627    1.0000 </r>
       <r>   -1.0472    1.0000 </r>
       <r>   -1.0246    1.0000 </r>
       <r>   -0.2931    1.0000 </r>
       <r>    0.5434    1.0000 </r>
       <r>    9.4943    0.0000 </r>
       <r>    9.9614    0.0000 </r>
       <r>   12.4222    0.0000 </r>
       <r>   12.5589    0.0000 </r>
       <r>   13.5012    0.0000 </r>
       <r>   15.9744    0.0000 </r>
      </set>
      <set comment="kpoint 18">
       <r>   -9.5857    1.0000 </r>
       <r>   -9.5261    1.0000 </r>
       <r>   -8.5454    1.0000 </r>
       <r>   -8.5010    1.0000 </r>
       <r>   -1.6854    1.0000 </r>
       <r>   -1.6577    1.0000 </r>
       <r>    2.1905    1.0000 </r>
       <r>    2.5750    1.0000 </r>
       <r>    6.2878    0.0000 </r>
       <r>    6.6764    0.0000 </r>
       <r>   12.0854    0.0000 </r>
       <r>   12.2858    0.0000 </r>
       <r>   16.8792    0.0000 </r>
       <r>   16.9570    0.0000 </r>
      </set>
      <set comment="kpoint 19">
       <r>  -12.9360    1.0000 </r>
       <r>  -12.8046    1.0000 </r>
       <r>   -3.0355    1.0000 </r>
       <r>   -3.0071    1.0000 </r>
       <r>   -1.6847    1.0000 </r>
       <r>   -1.6660    1.0000 </r>
       <r>   -1.0271    1.0000 </r>
       <r>   -0.1415    1.0000 </r>
       <r>   11.0875    0.0000 </r>
       <r>   11.3343    0.0000 </r>
       <r>   12.5689    0.0000 </r>
       <r>   14.6581    0.0000 </r>
       <r>   14.9677    0.0000 </r>
       <r>   15.3160    0.0000 </r>
      </set>
      <set comment="kpoint 20">
       <r>  -10.4279    1.0000 </r>
       <r>  -10.3202    1.0000 </r>
       <r>   -6.7149    1.0000 </r>
       <r>   -6.6424    1.0000 </r>
       <r>   -3.3386    1.0000 </r>
       <r>   -3.2947    1.0000 </r>
       <r>    1.7611    1.0000 </r>
       <r>    2.4439    1.0000 </r>
       <r>    7.1178    0.0000 </r>
       <r>    7.5115    0.0000 </r>
       <r>   14.6811    0.0000 </r>
       <r>   14.8508    0.0000 </r>
       <r>   15.3840    0.0000 </r>
       <r>   16.4540    0.0000 </r>
      </set>
      <set comment="kpoint 21">
       <r>   -7.9462    1.0000 </r>
       <r>   -7.8493    1.0000 </r>
       <r>   -7.8363    1.0000 </r>
       <r>   -7.8363    1.0000 </r>
       <r>   -5.8492    1.0000 </r>
       <r>   -5.8492    1.0000 </r>
       <r>    4.3448    1.0000 </r>
       <r>    4.8726   -0.0001 </r>
       <r>    4.8726   -0.0001 </r>
       <r>    5.0179    0.0000 </r>
       <r>   15.1011    0.0000 </r>
       <r>   15.1011    0.0000 </r>
       <r>   17.7348    0.0000 </r>
       <r>   18.7745    0.0000 </r>
      </set>
      <set comment="kpoint 22">
       <r>  -14.8271    1.0000 </r>
       <r>  -14.8271    1.0000 </r>
       <r>   -2.9087    1.0000 </r>
       <r>   -2.9087    1.0000 </r>
       <r>    1.7211    1.0000 </r>
       <r>    1.7211    1.0000 </r>
       <r>    1.7212    1.0000 </r>
       <r>    1.7212    1.0000 </r>
       <r>   11.6548    0.0000 </r>
       <r>   11.6548    0.0000 </r>
       <r>   13.1586    0.0000 </r>
       <r>   13.1586    0.0000 </r>
       <r>   13.1587    0.0000 </r>
       <r>   13.1587    0.0000 </r>
      </set>
      <set comment="kpoint 23">
       <r>  -14.1696    1.0000 </r>
       <r>  -14.1696    1.0000 </r>
       <r>   -2.1236    1.0000 </r>
       <r>   -2.1236    1.0000 </r>
       <r>   -0.5758    1.0000 </r>
       <r>   -0.5758    1.0000 </r>
       <r>    0.5873    1.0000 </r>
       <r>    0.5873    1.0000 </r>
       <r>   12.3382    0.0000 </r>
       <r>   12.3382    0.0000 </r>
       <r>   13.2259    0.0000 </r>
       <r>   13.2259    0.0000 </r>
       <r>   14.2799    0.0000 </r>
       <r>   14.2799    0.0000 </r>
      </set>
      <set comment="kpoint 24">
       <r>  -12.2306    1.0000 </r>
       <r>  -12.2306    1.0000 </r>
       <r>   -4.8993    1.0000 </r>
       <r>   -4.8993    1.0000 </r>
       <r>   -1.0385    1.0000 </r>
       <r>   -1.0385    1.0000 </r>
       <r>    0.1052    1.0000 </r>
       <r>    0.1052    1.0000 </r>
       <r>    9.7101    0.0000 </r>
       <r>    9.7101    0.0000 </r>
       <r>   12.5046    0.0000 </r>
       <r>   12.5046    0.0000 </r>
       <r>   14.6625    0.0000 </r>
       <r>   14.6625    0.0000 </r>
      </set>
      <set comment="kpoint 25">
       <r>   -9.5550    1.0000 </r>
       <r>   -9.5550    1.0000 </r>
       <r>   -8.5275    1.0000 </r>
       <r>   -8.5275    1.0000 </r>
       <r>   -1.6731    1.0000 </r>
       <r>   -1.6731    1.0000 </r>
       <r>    2.3930    1.0000 </r>
       <r>    2.3930    1.0000 </r>
       <r>    6.4307    0.0000 </r>
       <r>    6.4307    0.0000 </r>
       <r>   12.1821    0.0000 </r>
       <r>   12.1821    0.0000 </r>
       <r>   17.3821    0.0000 </r>
       <r>   17.3821    0.0000 </r>
      </set>
      <set comment="kpoint 26">
       <r>  -12.8710    1.0000 </r>
       <r>  -12.8710    1.0000 </r>
       <r>   -3.0176    1.0000 </r>
       <r>   -3.0176    1.0000 </r>
       <r>   -1.6730    1.0000 </r>
       <r>   -1.6730    1.0000 </r>
       <r>   -0.6026    1.0000 </r>
       <r>   -0.6026    1.0000 </r>
       <r>   11.2138    0.0000 </r>
       <r>   11.2138    0.0000 </r>
       <r>   13.7314    0.0000 </r>
       <r>   13.7314    0.0000 </r>
       <r>   14.9759    0.0000 </r>
       <r>   14.9759    0.0000 </r>
      </set>
      <set comment="kpoint 27">
       <r>  -10.3747    1.0000 </r>
       <r>  -10.3747    1.0000 </r>
       <r>   -6.6789    1.0000 </r>
       <r>   -6.6789    1.0000 </r>
       <r>   -3.3154    1.0000 </r>
       <r>   -3.3154    1.0000 </r>
       <r>    2.0934    1.0000 </r>
       <r>    2.0934    1.0000 </r>
       <r>    7.3027    0.0000 </r>
       <r>    7.3027    0.0000 </r>
       <r>   14.7807    0.0000 </r>
       <r>   14.7807    0.0000 </r>
       <r>   15.9172    0.0000 </r>
       <r>   15.9172    0.0000 </r>
      </set>
      <set comment="kpoint 28">
       <r>   -7.8990    1.0000 </r>
       <r>   -7.8990    1.0000 </r>
       <r>   -7.8365    1.0000 </r>
       <r>   -7.8365    1.0000 </r>
       <r>   -5.8497    1.0000 </r>
       <r>   -5.8497    1.0000 </r>
       <r>    4.6688    1.0316 </r>
       <r>    4.6688    1.0316 </r>
       <r>    4.8804    0.0000 </r>
       <r>    4.8804    0.0000 </r>
       <r>   14.9320    0.0000 </r>
       <r>   14.9320    0.0000 </r>
       <r>   18.4593    0.0000 </r>
       <r>   18.4593    0.0000 </r>
      </set>
     </set>
    </set>
   </array>
  </eigenvalues>
  <separator name="orbital magnetization" >
   <v name="MAGDIPOLOUT">      0.00000000      0.00000000      0.00000000</v>
  </separator>
  <dos>
   <i name="efermi">      4.72287334 </i>
   <total>
    <array>
     <dimension dim="1">gridpoints</dimension>
     <dimension dim="2">spin</dimension>
     <field>energy</field>
     <field>total</field>
     <field>integrated</field>
     <set>
      <set comment="spin 1">
       <r>   -16.6902     0.0000     0.0000 </r>
       <r>   -16.5664     0.0000     0.0000 </r>
       <r>   -16.4425     0.0000     0.0000 </r>
       <r>   -16.3187     0.0000     0.0000 </r>
       <r>   -16.1948     0.0000     0.0000 </r>
       <r>   -16.0710     0.0000     0.0000 </r>
       <r>   -15.9472     0.0000     0.0000 </r>
       <r>   -15.8233     0.0000     0.0000 </r>
       <r>   -15.6995     0.0000     0.0000 </r>
       <r>   -15.5756     0.0000     0.0000 </r>
       <r>   -15.4518     0.0000     0.0000 </r>
       <r>   -15.3279     0.0000     0.0000 </r>
       <r>   -15.2041     0.0000     0.0000 </r>
       <r>   -15.0802    -0.0016    -0.0002 </r>
       <r>   -14.9564     0.1138     0.0139 </r>
       <r>   -14.8325     0.1374     0.0309 </r>
       <r>   -14.7087     0.1588     0.0506 </r>
       <r>   -14.5849     0.0403     0.0556 </r>
       <r>   -14.4610    -0.0005     0.0555 </r>
       <r>   -14.3372     0.2061     0.0810 </r>
       <r>   -14.2133     1.0463     0.2106 </r>
       <r>   -14.0895     0.8534     0.3163 </r>
       <r>   -13.9656     0.5928     0.3897 </r>
       <r>   -13.8418    -0.0066     0.3889 </r>
       <r>   -13.7179     0.0000     0.3889 </r>
       <r>   -13.5941     0.0000     0.3889 </r>
       <r>   -13.4703     0.0000     0.3889 </r>
       <r>   -13.3464     0.0000     0.3889 </r>
       <r>   -13.2226     0.0000     0.3889 </r>
       <r>   -13.0987    -0.0149     0.3870 </r>
       <r>   -12.9749     0.8206     0.4887 </r>
       <r>   -12.8510     0.8558     0.5947 </r>
       <r>   -12.7272     1.0417     0.7237 </r>
       <r>   -12.6033    -0.0116     0.7222 </r>
       <r>   -12.4795    -0.0035     0.7218 </r>
       <r>   -12.3556     0.5191     0.7861 </r>
       <r>   -12.2318     1.0180     0.9121 </r>
       <r>   -12.1080     1.1206     1.0509 </r>
       <r>   -11.9841     0.0375     1.0556 </r>
       <r>   -11.8603     0.0000     1.0556 </r>
       <r>   -11.7364     0.0000     1.0556 </r>
       <r>   -11.6126     0.0000     1.0556 </r>
       <r>   -11.4887     0.0000     1.0556 </r>
       <r>   -11.3649     0.0000     1.0556 </r>
       <r>   -11.2410     0.0000     1.0556 </r>
       <r>   -11.1172     0.0000     1.0556 </r>
       <r>   -10.9934     0.0000     1.0556 </r>
       <r>   -10.8695     0.0000     1.0556 </r>
       <r>   -10.7457     0.0000     1.0556 </r>
       <r>   -10.6218    -0.0021     1.0553 </r>
       <r>   -10.4980     0.6801     1.1395 </r>
       <r>   -10.3741     2.4736     1.4459 </r>
       <r>   -10.2503     2.2721     1.7272 </r>
       <r>   -10.1264    -0.0406     1.7222 </r>
       <r>   -10.0026     0.0000     1.7222 </r>
       <r>    -9.8787     0.0000     1.7222 </r>
       <r>    -9.7549    -0.0009     1.7221 </r>
       <r>    -9.6311     0.2457     1.7525 </r>
       <r>    -9.5072     1.1053     1.8894 </r>
       <r>    -9.3834    -0.0044     1.8889 </r>
       <r>    -9.2595     0.0000     1.8889 </r>
       <r>    -9.1357     0.0000     1.8889 </r>
       <r>    -9.0118     0.0000     1.8889 </r>
       <r>    -8.8880     0.0000     1.8889 </r>
       <r>    -8.7641     0.0000     1.8889 </r>
       <r>    -8.6403    -0.0201     1.8864 </r>
       <r>    -8.5165     1.0392     2.0151 </r>
       <r>    -8.3926     0.3281     2.0557 </r>
       <r>    -8.2688    -0.0015     2.0556 </r>
       <r>    -8.1449     0.0000     2.0556 </r>
       <r>    -8.0211    -0.0165     2.0535 </r>
       <r>    -7.8972     1.1723     2.1987 </r>
       <r>    -7.7734     0.5624     2.2683 </r>
       <r>    -7.6495     0.0763     2.2778 </r>
       <r>    -7.5257    -0.0002     2.2778 </r>
       <r>    -7.4018     0.0000     2.2778 </r>
       <r>    -7.2780     0.0000     2.2778 </r>
       <r>    -7.1542     0.0000     2.2778 </r>
       <r>    -7.0303     0.0000     2.2778 </r>
       <r>    -6.9065    -0.0005     2.2777 </r>
       <r>    -6.7826     0.3341     2.3191 </r>
       <r>    -6.6588     3.5772     2.7621 </r>
       <r>    -6.5349     1.4849     2.9460 </r>
       <r>    -6.4111    -0.0127     2.9444 </r>
       <r>    -6.2872     0.0000     2.9444 </r>
       <r>    -6.1634     0.0000     2.9444 </r>
       <r>    -6.0396     0.0000     2.9444 </r>
       <r>    -5.9157    -0.0311     2.9406 </r>
       <r>    -5.7919     0.9590     3.0594 </r>
       <r>    -5.6680    -0.0308     3.0556 </r>
       <r>    -5.5442     0.0000     3.0556 </r>
       <r>    -5.4203     0.0000     3.0556 </r>
       <r>    -5.2965     0.0000     3.0556 </r>
       <r>    -5.1726     0.0000     3.0556 </r>
       <r>    -5.0488    -0.0271     3.0522 </r>
       <r>    -4.9249     1.3031     3.2136 </r>
       <r>    -4.8011     1.4478     3.3929 </r>
       <r>    -4.6773    -0.0322     3.3889 </r>
       <r>    -4.5534     0.0000     3.3889 </r>
       <r>    -4.4296     0.0000     3.3889 </r>
       <r>    -4.3057     0.0000     3.3889 </r>
       <r>    -4.1819     0.0000     3.3889 </r>
       <r>    -4.0580     0.0000     3.3889 </r>
       <r>    -3.9342    -0.0009     3.3888 </r>
       <r>    -3.8103     0.0361     3.3933 </r>
       <r>    -3.6865     0.0795     3.4031 </r>
       <r>    -3.5627    -0.0026     3.4028 </r>
       <r>    -3.4388    -0.0373     3.3982 </r>
       <r>    -3.3150     3.5395     3.8365 </r>
       <r>    -3.1911     1.9704     4.0805 </r>
       <r>    -3.0673     0.5633     4.1503 </r>
       <r>    -2.9434     2.6874     4.4831 </r>
       <r>    -2.8196     0.1742     4.5047 </r>
       <r>    -2.6957    -0.0158     4.5027 </r>
       <r>    -2.5719     0.4784     4.5620 </r>
       <r>    -2.4480     0.0504     4.5682 </r>
       <r>    -2.3242     0.0096     4.5694 </r>
       <r>    -2.2004     0.1795     4.5916 </r>
       <r>    -2.0765     0.2935     4.6280 </r>
       <r>    -1.9527     0.0500     4.6342 </r>
       <r>    -1.8288     0.0361     4.6386 </r>
       <r>    -1.7050     1.2643     4.7952 </r>
       <r>    -1.5811     3.2531     5.1981 </r>
       <r>    -1.4573     0.1591     5.2178 </r>
       <r>    -1.3334     0.5736     5.2888 </r>
       <r>    -1.2096     0.3536     5.3326 </r>
       <r>    -1.0858     0.7640     5.4273 </r>
       <r>    -0.9619     2.6562     5.7562 </r>
       <r>    -0.8381    -0.0523     5.7497 </r>
       <r>    -0.7142     0.1838     5.7725 </r>
       <r>    -0.5904     2.3893     6.0684 </r>
       <r>    -0.4665     1.2472     6.2229 </r>
       <r>    -0.3427     0.3652     6.2681 </r>
       <r>    -0.2188     0.2907     6.3041 </r>
       <r>    -0.0950     0.2363     6.3334 </r>
       <r>     0.0288     0.2043     6.3587 </r>
       <r>     0.1527     0.5362     6.4251 </r>
       <r>     0.2765     0.2371     6.4544 </r>
       <r>     0.4004     0.1287     6.4704 </r>
       <r>     0.5242     0.4993     6.5322 </r>
       <r>     0.6481     2.7224     6.8694 </r>
       <r>     0.7719    -0.0488     6.8633 </r>
       <r>     0.8958     0.4322     6.9168 </r>
       <r>     1.0196     0.2292     6.9452 </r>
       <r>     1.1435    -0.0063     6.9444 </r>
       <r>     1.2673    -0.0016     6.9443 </r>
       <r>     1.3911     0.2887     6.9800 </r>
       <r>     1.5150     1.0829     7.1141 </r>
       <r>     1.6388    -0.0763     7.1047 </r>
       <r>     1.7627     1.8952     7.3394 </r>
       <r>     1.8865    -0.0488     7.3333 </r>
       <r>     2.0104     0.6802     7.4176 </r>
       <r>     2.1342     0.6725     7.5009 </r>
       <r>     2.2581     0.0906     7.5121 </r>
       <r>     2.3819     1.0150     7.6378 </r>
       <r>     2.5057     0.3286     7.6785 </r>
       <r>     2.6296     1.0595     7.8097 </r>
       <r>     2.7534     0.6501     7.8902 </r>
       <r>     2.8773    -0.0107     7.8889 </r>
       <r>     3.0011     0.0000     7.8889 </r>
       <r>     3.1250     0.0000     7.8889 </r>
       <r>     3.2488     0.0000     7.8889 </r>
       <r>     3.3727     0.0000     7.8889 </r>
       <r>     3.4965     0.0000     7.8889 </r>
       <r>     3.6204     0.0000     7.8889 </r>
       <r>     3.7442     0.0000     7.8889 </r>
       <r>     3.8680     0.0000     7.8889 </r>
       <r>     3.9919     0.0000     7.8889 </r>
       <r>     4.1157     0.0127     7.8905 </r>
       <r>     4.2396     0.1738     7.9120 </r>
       <r>     4.3634     0.0357     7.9164 </r>
       <r>     4.4873     0.1368     7.9333 </r>
       <r>     4.6111     0.7436     8.0254 </r>
       <r>     4.7350     0.1677     8.0462 </r>
       <r>     4.8588     0.1538     8.0652 </r>
       <r>     4.9826    -0.0035     8.0648 </r>
       <r>     5.1065     0.0220     8.0675 </r>
       <r>     5.2303     0.1287     8.0835 </r>
       <r>     5.3542    -0.0053     8.0828 </r>
       <r>     5.4780     0.1611     8.1028 </r>
       <r>     5.6019     0.0685     8.1113 </r>
       <r>     5.7257    -0.0011     8.1111 </r>
       <r>     5.8496     0.0000     8.1111 </r>
       <r>     5.9734     0.0000     8.1111 </r>
       <r>     6.0973    -0.0001     8.1111 </r>
       <r>     6.2211     0.0876     8.1220 </r>
       <r>     6.3449     0.5565     8.1909 </r>
       <r>     6.4688     0.1397     8.2082 </r>
       <r>     6.5926     0.1970     8.2326 </r>
       <r>     6.7165     0.0222     8.2353 </r>
       <r>     6.8403     0.2541     8.2668 </r>
       <r>     6.9642     1.3310     8.4316 </r>
       <r>     7.0880     1.0143     8.5572 </r>
       <r>     7.2119     0.3329     8.5985 </r>
       <r>     7.3357     0.5366     8.6649 </r>
       <r>     7.4595     0.8928     8.7755 </r>
       <r>     7.5834     0.4426     8.8303 </r>
       <r>     7.7072     0.9379     8.9464 </r>
       <r>     7.8311    -0.0162     8.9444 </r>
       <r>     7.9549     0.0000     8.9444 </r>
       <r>     8.0788     0.0000     8.9444 </r>
       <r>     8.2026     0.0000     8.9444 </r>
       <r>     8.3265     0.0000     8.9444 </r>
       <r>     8.4503     0.0000     8.9444 </r>
       <r>     8.5742     0.0000     8.9444 </r>
       <r>     8.6980     0.0000     8.9444 </r>
       <r>     8.8218     0.0000     8.9444 </r>
       <r>     8.9457     0.0064     8.9452 </r>
       <r>     9.0695     0.0312     8.9491 </r>
       <r>     9.1934    -0.0092     8.9480 </r>
       <r>     9.3172     0.7136     9.0363 </r>
       <r>     9.4411     0.4378     9.0906 </r>
       <r>     9.5649     0.0382     9.0953 </r>
       <r>     9.6888     0.4753     9.1542 </r>
       <r>     9.8126     0.1962     9.1785 </r>
       <r>     9.9364     0.4794     9.2378 </r>
       <r>    10.0603     0.2042     9.2631 </r>
       <r>    10.1841     0.9154     9.3765 </r>
       <r>    10.3080     0.0654     9.3846 </r>
       <r>    10.4318    -0.0027     9.3843 </r>
       <r>    10.5557     0.0000     9.3843 </r>
       <r>    10.6795     0.0000     9.3843 </r>
       <r>    10.8034    -0.0062     9.3835 </r>
       <r>    10.9272     0.4998     9.4454 </r>
       <r>    11.0511     1.0795     9.5791 </r>
       <r>    11.1749     0.4445     9.6341 </r>
       <r>    11.2987     0.4976     9.6958 </r>
       <r>    11.4226     0.8391     9.7997 </r>
       <r>    11.5464     0.0075     9.8006 </r>
       <r>    11.6703     0.1012     9.8131 </r>
       <r>    11.7941     0.4314     9.8666 </r>
       <r>    11.9180    -0.0095     9.8654 </r>
       <r>    12.0418     0.4381     9.9196 </r>
       <r>    12.1657     0.5314     9.9854 </r>
       <r>    12.2895     0.8924    10.0960 </r>
       <r>    12.4133     1.3354    10.2613 </r>
       <r>    12.5372     1.4618    10.4424 </r>
       <r>    12.6610     0.2764    10.4766 </r>
       <r>    12.7849     0.1986    10.5012 </r>
       <r>    12.9087     0.4871    10.5615 </r>
       <r>    13.0326     0.1167    10.5760 </r>
       <r>    13.1564     1.4664    10.7576 </r>
       <r>    13.2803     2.1168    11.0197 </r>
       <r>    13.4041    -0.0626    11.0120 </r>
       <r>    13.5280     0.4790    11.0713 </r>
       <r>    13.6518     0.0023    11.0716 </r>
       <r>    13.7756     0.4360    11.1256 </r>
       <r>    13.8995     0.3213    11.1654 </r>
       <r>    14.0233     0.7735    11.2612 </r>
       <r>    14.1472     0.5158    11.3251 </r>
       <r>    14.2710     0.3853    11.3728 </r>
       <r>    14.3949     1.1468    11.5148 </r>
       <r>    14.5187     0.4815    11.5744 </r>
       <r>    14.6426     2.4528    11.8782 </r>
       <r>    14.7664     3.1704    12.2708 </r>
       <r>    14.8902     0.9817    12.3924 </r>
       <r>    15.0141     1.7245    12.6060 </r>
       <r>    15.1379     1.1227    12.7450 </r>
       <r>    15.2618     0.6432    12.8247 </r>
       <r>    15.3856     1.5972    13.0225 </r>
       <r>    15.5095     0.2889    13.0583 </r>
       <r>    15.6333     0.0469    13.0641 </r>
       <r>    15.7572     0.2298    13.0925 </r>
       <r>    15.8810     0.7755    13.1886 </r>
       <r>    16.0049     0.7414    13.2804 </r>
       <r>    16.1287     0.1798    13.3027 </r>
       <r>    16.2525     0.0083    13.3037 </r>
       <r>    16.3764     1.3517    13.4711 </r>
       <r>    16.5002     0.6872    13.5562 </r>
       <r>    16.6241    -0.0051    13.5556 </r>
       <r>    16.7479     0.0053    13.5562 </r>
       <r>    16.8718     0.5579    13.6253 </r>
       <r>    16.9956     0.8373    13.7290 </r>
       <r>    17.1195     0.4622    13.7862 </r>
       <r>    17.2433     0.5779    13.8578 </r>
       <r>    17.3671     0.3336    13.8991 </r>
       <r>    17.4910     0.1385    13.9163 </r>
       <r>    17.6148     0.0781    13.9259 </r>
       <r>    17.7387    -0.0038    13.9255 </r>
       <r>    17.8625     0.3103    13.9639 </r>
       <r>    17.9864    -0.0075    13.9630 </r>
       <r>    18.1102     0.0000    13.9630 </r>
       <r>    18.2341     0.0000    13.9630 </r>
       <r>    18.3579     0.0000    13.9630 </r>
       <r>    18.4818     0.0344    13.9672 </r>
       <r>    18.6056     0.1135    13.9813 </r>
       <r>    18.7294     0.1459    13.9993 </r>
       <r>    18.8533     0.0053    14.0000 </r>
       <r>    18.9771     0.0000    14.0000 </r>
       <r>    19.1010     0.0000    14.0000 </r>
       <r>    19.2248     0.0000    14.0000 </r>
       <r>    19.3487     0.0000    14.0000 </r>
       <r>    19.4725     0.0000    14.0000 </r>
       <r>    19.5964     0.0000    14.0000 </r>
       <r>    19.7202     0.0000    14.0000 </r>
       <r>    19.8440     0.0000    14.0000 </r>
       <r>    19.9679     0.0000    14.0000 </r>
       <r>    20.0917     0.0000    14.0000 </r>
       <r>    20.2156     0.0000    14.0000 </r>
       <r>    20.3394     0.0000    14.0000 </r>
       <r>    20.4633     0.0000    14.0000 </r>
      </set>
      <set comment="spin 2">
       <r>   -16.6902     0.0000     0.0000 </r>
       <r>   -16.5664     0.0000     0.0000 </r>
       <r>   -16.4425     0.0000     0.0000 </r>
       <r>   -16.3187     0.0000     0.0000 </r>
       <r>   -16.1948     0.0000     0.0000 </r>
       <r>   -16.0710     0.0000     0.0000 </r>
       <r>   -15.9472     0.0000     0.0000 </r>
       <r>   -15.8233     0.0000     0.0000 </r>
       <r>   -15.6995     0.0000     0.0000 </r>
       <r>   -15.5756     0.0000     0.0000 </r>
       <r>   -15.4518     0.0000     0.0000 </r>
       <r>   -15.3279     0.0000     0.0000 </r>
       <r>   -15.2041     0.0000     0.0000 </r>
       <r>   -15.0802    -0.0002     0.0000 </r>
       <r>   -14.9564     0.0581     0.0072 </r>
       <r>   -14.8325     0.1606     0.0271 </r>
       <r>   -14.7087     0.1393     0.0443 </r>
       <r>   -14.5849     0.0918     0.0557 </r>
       <r>   -14.4610    -0.0009     0.0556 </r>
       <r>   -14.3372     0.0093     0.0567 </r>
       <r>   -14.2133     1.0728     0.1896 </r>
       <r>   -14.0895     0.7614     0.2839 </r>
       <r>   -13.9656     0.8677     0.3913 </r>
       <r>   -13.8418    -0.0197     0.3889 </r>
       <r>   -13.7179     0.0000     0.3889 </r>
       <r>   -13.5941     0.0000     0.3889 </r>
       <r>   -13.4703     0.0000     0.3889 </r>
       <r>   -13.3464     0.0000     0.3889 </r>
       <r>   -13.2226     0.0000     0.3889 </r>
       <r>   -13.0987    -0.0030     0.3885 </r>
       <r>   -12.9749     0.4838     0.4484 </r>
       <r>   -12.8510     1.0005     0.5723 </r>
       <r>   -12.7272     1.0942     0.7078 </r>
       <r>   -12.6033     0.1162     0.7222 </r>
       <r>   -12.4795    -0.0005     0.7222 </r>
       <r>   -12.3556     0.1809     0.7446 </r>
       <r>   -12.2318     1.1575     0.8879 </r>
       <r>   -12.1080     1.0866     1.0225 </r>
       <r>   -11.9841     0.2676     1.0556 </r>
       <r>   -11.8603    -0.0007     1.0556 </r>
       <r>   -11.7364     0.0000     1.0556 </r>
       <r>   -11.6126     0.0000     1.0556 </r>
       <r>   -11.4887     0.0000     1.0556 </r>
       <r>   -11.3649     0.0000     1.0556 </r>
       <r>   -11.2410     0.0000     1.0556 </r>
       <r>   -11.1172     0.0000     1.0556 </r>
       <r>   -10.9934     0.0000     1.0556 </r>
       <r>   -10.8695     0.0000     1.0556 </r>
       <r>   -10.7457     0.0000     1.0556 </r>
       <r>   -10.6218    -0.0001     1.0555 </r>
       <r>   -10.4980     0.1211     1.0705 </r>
       <r>   -10.3741     2.5815     1.3902 </r>
       <r>   -10.2503     2.5128     1.7014 </r>
       <r>   -10.1264     0.1680     1.7222 </r>
       <r>   -10.0026    -0.0002     1.7222 </r>
       <r>    -9.8787     0.0000     1.7222 </r>
       <r>    -9.7549    -0.0001     1.7222 </r>
       <r>    -9.6311     0.0617     1.7299 </r>
       <r>    -9.5072     1.0701     1.8624 </r>
       <r>    -9.3834     0.2146     1.8890 </r>
       <r>    -9.2595    -0.0006     1.8889 </r>
       <r>    -9.1357     0.0000     1.8889 </r>
       <r>    -9.0118     0.0000     1.8889 </r>
       <r>    -8.8880     0.0000     1.8889 </r>
       <r>    -8.7641     0.0000     1.8889 </r>
       <r>    -8.6403    -0.0106     1.8876 </r>
       <r>    -8.5165     0.7678     1.9827 </r>
       <r>    -8.3926     0.5959     2.0565 </r>
       <r>    -8.2688    -0.0073     2.0556 </r>
       <r>    -8.1449     0.0000     2.0556 </r>
       <r>    -8.0211     0.0035     2.0560 </r>
       <r>    -7.8972     0.4185     2.1078 </r>
       <r>    -7.7734     1.3981     2.2810 </r>
       <r>    -7.6495    -0.0257     2.2778 </r>
       <r>    -7.5257     0.0000     2.2778 </r>
       <r>    -7.4018     0.0000     2.2778 </r>
       <r>    -7.2780     0.0000     2.2778 </r>
       <r>    -7.1542     0.0000     2.2778 </r>
       <r>    -7.0303     0.0000     2.2778 </r>
       <r>    -6.9065     0.0000     2.2778 </r>
       <r>    -6.7826    -0.0008     2.2777 </r>
       <r>    -6.6588     3.2142     2.6757 </r>
       <r>    -6.5349     2.2109     2.9495 </r>
       <r>    -6.4111    -0.0412     2.9444 </r>
       <r>    -6.2872     0.0000     2.9444 </r>
       <r>    -6.1634     0.0000     2.9444 </r>
       <r>    -6.0396     0.0000     2.9444 </r>
       <r>    -5.9157    -0.0295     2.9408 </r>
       <r>    -5.7919     0.9561     3.0592 </r>
       <r>    -5.6680    -0.0294     3.0556 </r>
       <r>    -5.5442     0.0000     3.0556 </r>
       <r>    -5.4203     0.0000     3.0556 </r>
       <r>    -5.2965     0.0000     3.0556 </r>
       <r>    -5.1726     0.0000     3.0556 </r>
       <r>    -5.0488    -0.0111     3.0542 </r>
       <r>    -4.9249     0.9531     3.1722 </r>
       <r>    -4.8011     1.7422     3.3880 </r>
       <r>    -4.6773     0.0073     3.3889 </r>
       <r>    -4.5534     0.0000     3.3889 </r>
       <r>    -4.4296     0.0000     3.3889 </r>
       <r>    -4.3057     0.0000     3.3889 </r>
       <r>    -4.1819     0.0000     3.3889 </r>
       <r>    -4.0580     0.0000     3.3889 </r>
       <r>    -3.9342     0.0000     3.3889 </r>
       <r>    -3.8103     0.0062     3.3897 </r>
       <r>    -3.6865     0.0569     3.3967 </r>
       <r>    -3.5627     0.0493     3.4028 </r>
       <r>    -3.4388    -0.0376     3.3982 </r>
       <r>    -3.3150     2.8385     3.7497 </r>
       <r>    -3.1911     2.6921     4.0831 </r>
       <r>    -3.0673     0.0681     4.0915 </r>
       <r>    -2.9434     2.8559     4.4452 </r>
       <r>    -2.8196     0.4966     4.5067 </r>
       <r>    -2.6957    -0.0173     4.5046 </r>
       <r>    -2.5719     0.2106     4.5307 </r>
       <r>    -2.4480     0.2377     4.5601 </r>
       <r>    -2.3242     0.0775     4.5697 </r>
       <r>    -2.2004    -0.0137     4.5680 </r>
       <r>    -2.0765     0.4671     4.6258 </r>
       <r>    -1.9527     0.0663     4.6340 </r>
       <r>    -1.8288     0.0184     4.6363 </r>
       <r>    -1.7050     0.5106     4.6996 </r>
       <r>    -1.5811     4.0669     5.2032 </r>
       <r>    -1.4573    -0.0690     5.1947 </r>
       <r>    -1.3334     0.3336     5.2360 </r>
       <r>    -1.2096     0.7366     5.3272 </r>
       <r>    -1.0858     0.1645     5.3476 </r>
       <r>    -0.9619     3.3258     5.7595 </r>
       <r>    -0.8381    -0.0765     5.7500 </r>
       <r>    -0.7142    -0.0051     5.7494 </r>
       <r>    -0.5904     1.5120     5.9366 </r>
       <r>    -0.4665     2.3313     6.2253 </r>
       <r>    -0.3427    -0.0360     6.2209 </r>
       <r>    -0.2188     0.4607     6.2779 </r>
       <r>    -0.0950     0.4546     6.3342 </r>
       <r>     0.0288    -0.0191     6.3319 </r>
       <r>     0.1527     0.4547     6.3882 </r>
       <r>     0.2765     0.4651     6.4458 </r>
       <r>     0.4004     0.2050     6.4712 </r>
       <r>     0.5242     0.0440     6.4766 </r>
       <r>     0.6481     3.1684     6.8690 </r>
       <r>     0.7719    -0.0648     6.8610 </r>
       <r>     0.8958     0.2820     6.8959 </r>
       <r>     1.0196     0.2483     6.9267 </r>
       <r>     1.1435     0.1443     6.9445 </r>
       <r>     1.2673    -0.0006     6.9444 </r>
       <r>     1.3911    -0.0138     6.9427 </r>
       <r>     1.5150     0.7025     7.0297 </r>
       <r>     1.6388     0.6430     7.1094 </r>
       <r>     1.7627     1.3642     7.2783 </r>
       <r>     1.8865     0.4424     7.3331 </r>
       <r>     2.0104     0.1530     7.3520 </r>
       <r>     2.1342     1.0709     7.4847 </r>
       <r>     2.2581     0.2433     7.5148 </r>
       <r>     2.3819     0.0321     7.5188 </r>
       <r>     2.5057     1.1072     7.6559 </r>
       <r>     2.6296     0.1756     7.6777 </r>
       <r>     2.7534     1.2746     7.8355 </r>
       <r>     2.8773     0.4433     7.8904 </r>
       <r>     3.0011    -0.0122     7.8889 </r>
       <r>     3.1250     0.0000     7.8889 </r>
       <r>     3.2488     0.0000     7.8889 </r>
       <r>     3.3727     0.0000     7.8889 </r>
       <r>     3.4965     0.0000     7.8889 </r>
       <r>     3.6204     0.0000     7.8889 </r>
       <r>     3.7442     0.0000     7.8889 </r>
       <r>     3.8680     0.0000     7.8889 </r>
       <r>     3.9919     0.0014     7.8891 </r>
       <r>     4.1157     0.1453     7.9071 </r>
       <r>     4.2396     0.0770     7.9166 </r>
       <r>     4.3634     0.1190     7.9313 </r>
       <r>     4.4873     0.0312     7.9352 </r>
       <r>     4.6111    -0.0052     7.9345 </r>
       <r>     4.7350     0.1585     7.9542 </r>
       <r>     4.8588     0.3874     8.0021 </r>
       <r>     4.9826     0.5143     8.0658 </r>
       <r>     5.1065     0.1435     8.0836 </r>
       <r>     5.2303    -0.0076     8.0827 </r>
       <r>     5.3542     0.1595     8.1024 </r>
       <r>     5.4780     0.0718     8.1113 </r>
       <r>     5.6019    -0.0017     8.1111 </r>
       <r>     5.7257     0.0000     8.1111 </r>
       <r>     5.8496     0.0000     8.1111 </r>
       <r>     5.9734     0.0000     8.1111 </r>
       <r>     6.0973     0.0000     8.1111 </r>
       <r>     6.2211     0.0153     8.1130 </r>
       <r>     6.3449     0.5535     8.1815 </r>
       <r>     6.4688     0.2117     8.2078 </r>
       <r>     6.5926     0.0002     8.2078 </r>
       <r>     6.7165     0.2266     8.2358 </r>
       <r>     6.8403    -0.0060     8.2351 </r>
       <r>     6.9642     0.4196     8.2871 </r>
       <r>     7.0880     1.3655     8.4562 </r>
       <r>     7.2119     0.8004     8.5553 </r>
       <r>     7.3357     0.8497     8.6605 </r>
       <r>     7.4595     0.0238     8.6635 </r>
       <r>     7.5834     0.9395     8.7798 </r>
       <r>     7.7072     0.8628     8.8867 </r>
       <r>     7.8311     0.4706     8.9450 </r>
       <r>     7.9549    -0.0042     8.9444 </r>
       <r>     8.0788     0.0000     8.9444 </r>
       <r>     8.2026     0.0000     8.9444 </r>
       <r>     8.3265     0.0000     8.9444 </r>
       <r>     8.4503     0.0000     8.9444 </r>
       <r>     8.5742     0.0000     8.9444 </r>
       <r>     8.6980     0.0000     8.9444 </r>
       <r>     8.8218     0.0000     8.9444 </r>
       <r>     8.9457    -0.0013     8.9443 </r>
       <r>     9.0695     0.0400     8.9492 </r>
       <r>     9.1934    -0.0020     8.9490 </r>
       <r>     9.3172     0.1666     8.9696 </r>
       <r>     9.4411     0.5769     9.0411 </r>
       <r>     9.5649     0.4673     9.0990 </r>
       <r>     9.6888     0.0630     9.1067 </r>
       <r>     9.8126     0.4997     9.1686 </r>
       <r>     9.9364     0.1551     9.1878 </r>
       <r>    10.0603     0.3792     9.2348 </r>
       <r>    10.1841     0.8350     9.3382 </r>
       <r>    10.3080     0.3647     9.3834 </r>
       <r>    10.4318     0.0071     9.3843 </r>
       <r>    10.5557     0.0000     9.3843 </r>
       <r>    10.6795     0.0000     9.3843 </r>
       <r>    10.8034     0.0000     9.3843 </r>
       <r>    10.9272    -0.0123     9.3827 </r>
       <r>    11.0511     0.9493     9.5003 </r>
       <r>    11.1749     0.6482     9.5806 </r>
       <r>    11.2987     0.4575     9.6372 </r>
       <r>    11.4226     0.6783     9.7212 </r>
       <r>    11.5464     0.6513     9.8019 </r>
[...]
       </set>
       <set comment="band 10">
        <r>  0.0015  0.0000  0.0000  0.0000  0.0000  0.0000  0.0000  0.0000  0.0000 </r>
        <r>  0.0002  0.0003  0.0000  0.0008  0.0000  0.0000  0.0000  0.0000  0.0000 </r>
        <r>  0.0000  0.0000  0.2103  0.0000  0.0000  0.0000  0.0000  0.0000  0.0000 </r>
        <r>  0.0000  0.0000  0.2318  0.0000  0.0000  0.0000  0.0000  0.0000  0.0000 </r>
       </set>
       <set comment="band 11">
        <r>  0.1815  0.0101  0.0000  0.0302  0.0000  0.0000  0.0000  0.0000  0.0000 </r>
        <r>  0.1823  0.0100  0.0000  0.0301  0.0000  0.0000  0.0000  0.0000  0.0000 </r>
        <r>  0.0000  0.0000  0.0000  0.0000  0.0000  0.0000  0.0000  0.0000  0.0000 </r>
        <r>  0.0000  0.0000  0.0000  0.0000  0.0000  0.0000  0.0000  0.0000  0.0000 </r>
       </set>
       <set comment="band 12">
        <r>  0.0000  0.0000  0.0000  0.0000  0.0000  0.0000  0.0000  0.0000  0.0000 </r>
        <r>  0.0000  0.0000  0.0000  0.0000  0.0000  0.0000  0.0000  0.0000  0.0000 </r>
        <r>  0.1823  0.0100  0.0000  0.0301  0.0000  0.0000  0.0000  0.0000  0.0000 </r>
        <r>  0.1815  0.0101  0.0000  0.0302  0.0000  0.0000  0.0000  0.0000  0.0000 </r>
       </set>
       <set comment="band 13">
        <r>  0.0004  0.0001  0.0775  0.0002  0.0000  0.0000  0.0000  0.0000  0.0000 </r>
        <r>  0.0000  0.0005  0.0929  0.0014  0.0000  0.0000  0.0000  0.0000  0.0000 </r>
        <r>  0.0008  0.0105  0.0042  0.0314  0.0000  0.0000  0.0000  0.0000  0.0000 </r>
        <r>  0.0098  0.0016  0.0035  0.0048  0.0000  0.0000  0.0000  0.0000  0.0000 </r>
       </set>
       <set comment="band 14">
        <r>  0.0098  0.0016  0.0035  0.0048  0.0000  0.0000  0.0000  0.0000  0.0000 </r>
        <r>  0.0008  0.0105  0.0042  0.0314  0.0000  0.0000  0.0000  0.0000  0.0000 </r>
        <r>  0.0000  0.0005  0.0929  0.0014  0.0000  0.0000  0.0000  0.0000  0.0000 </r>
        <r>  0.0004  0.0001  0.0775  0.0002  0.0000  0.0000  0.0000  0.0000  0.0000 </r>
       </set>
      </set>
      <set comment="kpoint 26">
       <set comment="band 1">
        <r>  0.2902  0.0308  0.0000  0.0103  0.0000  0.0000  0.0000  0.0000  0.0000 </r>
        <r>  0.2939  0.0305  0.0000  0.0102  0.0000  0.0000  0.0000  0.0000  0.0000 </r>
        <r>  0.0000  0.0000  0.0000  0.0000  0.0000  0.0000  0.0000  0.0000  0.0000 </r>
        <r>  0.0000  0.0000  0.0000  0.0000  0.0000  0.0000  0.0000  0.0000  0.0000 </r>
       </set>
       <set comment="band 2">
        <r>  0.0000  0.0000  0.0000  0.0000  0.0000  0.0000  0.0000  0.0000  0.0000 </r>
        <r>  0.0000  0.0000  0.0000  0.0000  0.0000  0.0000  0.0000  0.0000  0.0000 </r>
        <r>  0.2939  0.0305  0.0000  0.0102  0.0000  0.0000  0.0000  0.0000  0.0000 </r>
        <r>  0.2902  0.0308  0.0000  0.0103  0.0000  0.0000  0.0000  0.0000  0.0000 </r>
       </set>
       <set comment="band 3">
        <r>  0.1211  0.1763  0.0000  0.0901  0.0000  0.0000  0.0000  0.0000  0.0000 </r>
        <r>  0.1204  0.1796  0.0000  0.0899  0.0000  0.0000  0.0000  0.0000  0.0000 </r>
        <r>  0.0000  0.0000  0.0000  0.0000  0.0000  0.0000  0.0000  0.0000  0.0000 </r>
        <r>  0.0000  0.0000  0.0000  0.0000  0.0000  0.0000  0.0000  0.0000  0.0000 </r>
       </set>
       <set comment="band 4">
        <r>  0.0000  0.0000  0.0000  0.0000  0.0000  0.0000  0.0000  0.0000  0.0000 </r>
        <r>  0.0000  0.0000  0.0000  0.0000  0.0000  0.0000  0.0000  0.0000  0.0000 </r>
        <r>  0.1204  0.1796  0.0000  0.0899  0.0000  0.0000  0.0000  0.0000  0.0000 </r>
        <r>  0.1211  0.1763  0.0000  0.0901  0.0000  0.0000  0.0000  0.0000  0.0000 </r>
       </set>
       <set comment="band 5">
        <r>  0.0130  0.1217  0.0000  0.2390  0.0000  0.0000  0.0000  0.0000  0.0000 </r>
        <r>  0.0124  0.1210  0.0000  0.2415  0.0000  0.0000  0.0000  0.0000  0.0000 </r>
        <r>  0.0000  0.0000  0.0000  0.0000  0.0000  0.0000  0.0000  0.0000  0.0000 </r>
        <r>  0.0000  0.0000  0.0000  0.0000  0.0000  0.0000  0.0000  0.0000  0.0000 </r>
       </set>
       <set comment="band 6">
        <r>  0.0000  0.0000  0.0000  0.0000  0.0000  0.0000  0.0000  0.0000  0.0000 </r>
        <r>  0.0000  0.0000  0.0000  0.0000  0.0000  0.0000  0.0000  0.0000  0.0000 </r>
        <r>  0.0124  0.1210  0.0000  0.2415  0.0000  0.0000  0.0000  0.0000  0.0000 </r>
        <r>  0.0130  0.1217  0.0000  0.2390  0.0000  0.0000  0.0000  0.0000  0.0000 </r>
       </set>
       <set comment="band 7">
        <r>  0.0000  0.0000  0.2198  0.0000  0.0000  0.0000  0.0000  0.0000  0.0000 </r>
        <r>  0.0000  0.0000  0.2296  0.0000  0.0000  0.0000  0.0000  0.0000  0.0000 </r>
        <r>  0.0014  0.0001  0.0000  0.0000  0.0000  0.0000  0.0000  0.0000  0.0000 </r>
        <r>  0.0009  0.0004  0.0000  0.0001  0.0000  0.0000  0.0000  0.0000  0.0000 </r>
       </set>
       <set comment="band 8">
        <r>  0.0009  0.0004  0.0000  0.0001  0.0000  0.0000  0.0000  0.0000  0.0000 </r>
        <r>  0.0014  0.0001  0.0000  0.0000  0.0000  0.0000  0.0000  0.0000  0.0000 </r>
        <r>  0.0000  0.0000  0.2296  0.0000  0.0000  0.0000  0.0000  0.0000  0.0000 </r>
        <r>  0.0000  0.0000  0.2198  0.0000  0.0000  0.0000  0.0000  0.0000  0.0000 </r>
       </set>
       <set comment="band 9">
        <r>  0.0000  0.0000  0.3055  0.0000  0.0000  0.0000  0.0000  0.0000  0.0000 </r>
        <r>  0.0000  0.0000  0.3001  0.0000  0.0000  0.0000  0.0000  0.0000  0.0000 </r>
        <r>  0.0001  0.0001  0.0000  0.0003  0.0000  0.0000  0.0000  0.0000  0.0000 </r>
        <r>  0.0000  0.0006  0.0000  0.0010  0.0000  0.0000  0.0000  0.0000  0.0000 </r>
       </set>
       <set comment="band 10">
        <r>  0.0000  0.0006  0.0000  0.0010  0.0000  0.0000  0.0000  0.0000  0.0000 </r>
        <r>  0.0001  0.0001  0.0000  0.0003  0.0000  0.0000  0.0000  0.0000  0.0000 </r>
        <r>  0.0000  0.0000  0.3001  0.0000  0.0000  0.0000  0.0000  0.0000  0.0000 </r>
        <r>  0.0000  0.0000  0.3055  0.0000  0.0000  0.0000  0.0000  0.0000  0.0000 </r>
       </set>
       <set comment="band 11">
        <r>  0.0068  0.0197  0.0001  0.0120  0.0000  0.0000  0.0000  0.0000  0.0000 </r>
        <r>  0.0078  0.0225  0.0002  0.0140  0.0000  0.0000  0.0000  0.0000  0.0000 </r>
        <r>  0.0000  0.0001  0.0621  0.0000  0.0000  0.0000  0.0000  0.0000  0.0000 </r>
        <r>  0.0000  0.0000  0.0500  0.0000  0.0000  0.0000  0.0000  0.0000  0.0000 </r>
       </set>
       <set comment="band 12">
        <r>  0.0000  0.0000  0.0500  0.0000  0.0000  0.0000  0.0000  0.0000  0.0000 </r>
        <r>  0.0000  0.0001  0.0621  0.0000  0.0000  0.0000  0.0000  0.0000  0.0000 </r>
        <r>  0.0078  0.0225  0.0002  0.0140  0.0000  0.0000  0.0000  0.0000  0.0000 </r>
        <r>  0.0068  0.0197  0.0001  0.0120  0.0000  0.0000  0.0000  0.0000  0.0000 </r>
       </set>
       <set comment="band 13">
        <r>  0.0520  0.0727  0.0000  0.0919  0.0000  0.0000  0.0000  0.0000  0.0000 </r>
        <r>  0.0547  0.0698  0.0000  0.0886  0.0000  0.0000  0.0000  0.0000  0.0000 </r>
        <r>  0.0002  0.0003  0.0005  0.0003  0.0000  0.0000  0.0000  0.0000  0.0000 </r>
        <r>  0.0002  0.0003  0.0137  0.0003  0.0000  0.0000  0.0000  0.0000  0.0000 </r>
       </set>
       <set comment="band 14">
        <r>  0.0002  0.0003  0.0137  0.0003  0.0000  0.0000  0.0000  0.0000  0.0000 </r>
        <r>  0.0002  0.0003  0.0005  0.0003  0.0000  0.0000  0.0000  0.0000  0.0000 </r>
        <r>  0.0547  0.0697  0.0000  0.0887  0.0000  0.0000  0.0000  0.0000  0.0000 </r>
        <r>  0.0520  0.0726  0.0000  0.0919  0.0000  0.0000  0.0000  0.0000  0.0000 </r>
       </set>
      </set>
      <set comment="kpoint 27">
       <set comment="band 1">
        <r>  0.2577  0.0502  0.0000  0.0375  0.0000  0.0000  0.0000  0.0000  0.0000 </r>
        <r>  0.2652  0.0492  0.0000  0.0363  0.0000  0.0000  0.0000  0.0000  0.0000 </r>
        <r>  0.0000  0.0000  0.0000  0.0000  0.0000  0.0000  0.0000  0.0000  0.0000 </r>
        <r>  0.0000  0.0000  0.0000  0.0000  0.0000  0.0000  0.0000  0.0000  0.0000 </r>
       </set>
       <set comment="band 2">
        <r>  0.0000  0.0000  0.0000  0.0000  0.0000  0.0000  0.0000  0.0000  0.0000 </r>
        <r>  0.0000  0.0000  0.0000  0.0000  0.0000  0.0000  0.0000  0.0000  0.0000 </r>
        <r>  0.2652  0.0492  0.0000  0.0363  0.0000  0.0000  0.0000  0.0000  0.0000 </r>
        <r>  0.2577  0.0502  0.0000  0.0375  0.0000  0.0000  0.0000  0.0000  0.0000 </r>
       </set>
       <set comment="band 3">
        <r>  0.1726  0.0290  0.0000  0.1602  0.0000  0.0000  0.0000  0.0000  0.0000 </r>
        <r>  0.1685  0.0308  0.0000  0.1625  0.0000  0.0000  0.0000  0.0000  0.0000 </r>
        <r>  0.0000  0.0000  0.0000  0.0000  0.0000  0.0000  0.0000  0.0000  0.0000 </r>
        <r>  0.0000  0.0000  0.0000  0.0000  0.0000  0.0000  0.0000  0.0000  0.0000 </r>
       </set>
       <set comment="band 4">
        <r>  0.0000  0.0000  0.0000  0.0000  0.0000  0.0000  0.0000  0.0000  0.0000 </r>
        <r>  0.0000  0.0000  0.0000  0.0000  0.0000  0.0000  0.0000  0.0000  0.0000 </r>
        <r>  0.1685  0.0308  0.0000  0.1625  0.0000  0.0000  0.0000  0.0000  0.0000 </r>
        <r>  0.1726  0.0290  0.0000  0.1602  0.0000  0.0000  0.0000  0.0000  0.0000 </r>
       </set>
       <set comment="band 5">
        <r>  0.0377  0.2386  0.0000  0.0914  0.0000  0.0000  0.0000  0.0000  0.0000 </r>
        <r>  0.0367  0.2396  0.0000  0.0924  0.0000  0.0000  0.0000  0.0000  0.0000 </r>
        <r>  0.0000  0.0000  0.0000  0.0000  0.0000  0.0000  0.0000  0.0000  0.0000 </r>
        <r>  0.0000  0.0000  0.0000  0.0000  0.0000  0.0000  0.0000  0.0000  0.0000 </r>
       </set>
       <set comment="band 6">
        <r>  0.0000  0.0000  0.0000  0.0000  0.0000  0.0000  0.0000  0.0000  0.0000 </r>
        <r>  0.0000  0.0000  0.0000  0.0000  0.0000  0.0000  0.0000  0.0000  0.0000 </r>
        <r>  0.0367  0.2396  0.0000  0.0924  0.0000  0.0000  0.0000  0.0000  0.0000 </r>
        <r>  0.0377  0.2386  0.0000  0.0914  0.0000  0.0000  0.0000  0.0000  0.0000 </r>
       </set>
       <set comment="band 7">
        <r>  0.0000  0.0000  0.2336  0.0000  0.0000  0.0000  0.0000  0.0000  0.0000 </r>
        <r>  0.0000  0.0000  0.2547  0.0000  0.0000  0.0000  0.0000  0.0000  0.0000 </r>
        <r>  0.0008  0.0002  0.0000  0.0001  0.0000  0.0000  0.0000  0.0000  0.0000 </r>
        <r>  0.0003  0.0004  0.0000  0.0004  0.0000  0.0000  0.0000  0.0000  0.0000 </r>
       </set>
       <set comment="band 8">
        <r>  0.0003  0.0004  0.0000  0.0004  0.0000  0.0000  0.0000  0.0000  0.0000 </r>
        <r>  0.0008  0.0002  0.0000  0.0001  0.0000  0.0000  0.0000  0.0000  0.0000 </r>
        <r>  0.0000  0.0000  0.2547  0.0000  0.0000  0.0000  0.0000  0.0000  0.0000 </r>
        <r>  0.0000  0.0000  0.2336  0.0000  0.0000  0.0000  0.0000  0.0000  0.0000 </r>
       </set>
       <set comment="band 9">
        <r>  0.0000  0.0000  0.2680  0.0000  0.0000  0.0000  0.0000  0.0000  0.0000 </r>
        <r>  0.0000  0.0000  0.2505  0.0000  0.0000  0.0000  0.0000  0.0000  0.0000 </r>
        <r>  0.0001  0.0001  0.0000  0.0005  0.0000  0.0000  0.0000  0.0000  0.0000 </r>
        <r>  0.0004  0.0002  0.0000  0.0005  0.0000  0.0000  0.0000  0.0000  0.0000 </r>
       </set>
       <set comment="band 10">
        <r>  0.0004  0.0002  0.0000  0.0005  0.0000  0.0000  0.0000  0.0000  0.0000 </r>
        <r>  0.0001  0.0001  0.0000  0.0005  0.0000  0.0000  0.0000  0.0000  0.0000 </r>
        <r>  0.0000  0.0000  0.2505  0.0000  0.0000  0.0000  0.0000  0.0000  0.0000 </r>
        <r>  0.0000  0.0000  0.2680  0.0000  0.0000  0.0000  0.0000  0.0000  0.0000 </r>
       </set>
       <set comment="band 11">
        <r>  0.0980  0.0492  0.0000  0.0671  0.0000  0.0000  0.0000  0.0000  0.0000 </r>
        <r>  0.1085  0.0614  0.0000  0.0756  0.0000  0.0000  0.0000  0.0000  0.0000 </r>
        <r>  0.0000  0.0000  0.0034  0.0000  0.0000  0.0000  0.0000  0.0000  0.0000 </r>
        <r>  0.0000  0.0000  0.0016  0.0000  0.0000  0.0000  0.0000  0.0000  0.0000 </r>
       </set>
       <set comment="band 12">
        <r>  0.0000  0.0000  0.0016  0.0000  0.0000  0.0000  0.0000  0.0000  0.0000 </r>
        <r>  0.0000  0.0000  0.0034  0.0000  0.0000  0.0000  0.0000  0.0000  0.0000 </r>
        <r>  0.1085  0.0614  0.0000  0.0756  0.0000  0.0000  0.0000  0.0000  0.0000 </r>
        <r>  0.0980  0.0492  0.0000  0.0671  0.0000  0.0000  0.0000  0.0000  0.0000 </r>
       </set>
       <set comment="band 13">
        <r>  0.0312  0.0214  0.0000  0.0048  0.0000  0.0000  0.0000  0.0000  0.0000 </r>
        <r>  0.0161  0.0084  0.0000  0.0030  0.0000  0.0000  0.0000  0.0000  0.0000 </r>
        <r>  0.0000  0.0000  0.0553  0.0000  0.0000  0.0000  0.0000  0.0000  0.0000 </r>
        <r>  0.0000  0.0000  0.0540  0.0000  0.0000  0.0000  0.0000  0.0000  0.0000 </r>
       </set>
       <set comment="band 14">
        <r>  0.0000  0.0000  0.0540  0.0000  0.0000  0.0000  0.0000  0.0000  0.0000 </r>
        <r>  0.0000  0.0000  0.0553  0.0000  0.0000  0.0000  0.0000  0.0000  0.0000 </r>
        <r>  0.0161  0.0084  0.0000  0.0030  0.0000  0.0000  0.0000  0.0000  0.0000 </r>
        <r>  0.0312  0.0214  0.0000  0.0048  0.0000  0.0000  0.0000  0.0000  0.0000 </r>
       </set>
      </set>
      <set comment="kpoint 28">
       <set comment="band 1">
        <r>  0.0000  0.1218  0.0000  0.1218  0.0000  0.0000  0.0000  0.0000  0.0000 </r>
        <r>  0.4992  0.0000  0.0000  0.0000  0.0000  0.0000  0.0000  0.0000  0.0000 </r>
        <r>  0.0000  0.0000  0.0001  0.0000  0.0000  0.0000  0.0000  0.0000  0.0000 </r>
        <r>  0.0000  0.0000  0.0000  0.0000  0.0000  0.0000  0.0000  0.0000  0.0000 </r>
       </set>
       <set comment="band 2">
        <r>  0.0000  0.0000  0.0000  0.0000  0.0000  0.0000  0.0000  0.0000  0.0000 </r>
        <r>  0.0000  0.0000  0.0001  0.0000  0.0000  0.0000  0.0000  0.0000  0.0000 </r>
        <r>  0.4992  0.0000  0.0000  0.0000  0.0000  0.0000  0.0000  0.0000  0.0000 </r>
        <r>  0.0000  0.1218  0.0000  0.1218  0.0000  0.0000  0.0000  0.0000  0.0000 </r>
       </set>
       <set comment="band 3">
        <r>  0.4970  0.0000  0.0000  0.0000  0.0000  0.0000  0.0000  0.0000  0.0000 </r>
        <r>  0.0000  0.1231  0.0000  0.1231  0.0000  0.0000  0.0000  0.0000  0.0000 </r>
        <r>  0.0000  0.0000  0.0000  0.0000  0.0000  0.0000  0.0000  0.0000  0.0000 </r>
        <r>  0.0000  0.0000  0.0000  0.0000  0.0000  0.0000  0.0000  0.0000  0.0000 </r>
       </set>
       <set comment="band 4">
        <r>  0.0000  0.0000  0.0000  0.0000  0.0000  0.0000  0.0000  0.0000  0.0000 </r>
        <r>  0.0000  0.0000  0.0000  0.0000  0.0000  0.0000  0.0000  0.0000  0.0000 </r>
        <r>  0.0000  0.1231  0.0000  0.1231  0.0000  0.0000  0.0000  0.0000  0.0000 </r>
        <r>  0.4970  0.0000  0.0000  0.0000  0.0000  0.0000  0.0000  0.0000  0.0000 </r>
       </set>
       <set comment="band 5">
        <r>  0.0000  0.1611  0.0000  0.1611  0.0000  0.0000  0.0000  0.0000  0.0000 </r>
        <r>  0.0000  0.1617  0.0000  0.1617  0.0000  0.0000  0.0000  0.0000  0.0000 </r>
        <r>  0.0000  0.0000  0.0000  0.0000  0.0000  0.0000  0.0000  0.0000  0.0000 </r>
        <r>  0.0000  0.0000  0.0001  0.0000  0.0000  0.0000  0.0000  0.0000  0.0000 </r>
       </set>
       <set comment="band 6">
        <r>  0.0000  0.0000  0.0001  0.0000  0.0000  0.0000  0.0000  0.0000  0.0000 </r>
        <r>  0.0000  0.0000  0.0000  0.0000  0.0000  0.0000  0.0000  0.0000  0.0000 </r>
        <r>  0.0000  0.1617  0.0000  0.1617  0.0000  0.0000  0.0000  0.0000  0.0000 </r>
        <r>  0.0000  0.1611  0.0000  0.1611  0.0000  0.0000  0.0000  0.0000  0.0000 </r>
       </set>
       <set comment="band 7">
        <r>  0.0000  0.0000  0.0000  0.0000  0.0000  0.0000  0.0000  0.0000  0.0000 </r>
        <r>  0.0000  0.0000  0.5253  0.0000  0.0000  0.0000  0.0000  0.0000  0.0000 </r>
        <r>  0.0006  0.0000  0.0000  0.0000  0.0000  0.0000  0.0000  0.0000  0.0000 </r>
        <r>  0.0000  0.0005  0.0000  0.0005  0.0000  0.0000  0.0000  0.0000  0.0000 </r>
       </set>
       <set comment="band 8">
        <r>  0.0000  0.0005  0.0000  0.0005  0.0000  0.0000  0.0000  0.0000  0.0000 </r>
        <r>  0.0006  0.0000  0.0000  0.0000  0.0000  0.0000  0.0000  0.0000  0.0000 </r>
        <r>  0.0000  0.0000  0.5253  0.0000  0.0000  0.0000  0.0000  0.0000  0.0000 </r>
        <r>  0.0000  0.0000  0.0000  0.0000  0.0000  0.0000  0.0000  0.0000  0.0000 </r>
       </set>
       <set comment="band 9">
        <r>  0.0000  0.0004  0.0000  0.0004  0.0000  0.0000  0.0000  0.0000  0.0000 </r>
        <r>  0.0000  0.0004  0.0000  0.0004  0.0000  0.0000  0.0000  0.0000  0.0000 </r>
        <r>  0.0000  0.0000  0.0000  0.0000  0.0000  0.0000  0.0000  0.0000  0.0000 </r>
        <r>  0.0000  0.0000  0.5227  0.0000  0.0000  0.0000  0.0000  0.0000  0.0000 </r>
       </set>
       <set comment="band 10">
        <r>  0.0000  0.0000  0.5227  0.0000  0.0000  0.0000  0.0000  0.0000  0.0000 </r>
        <r>  0.0000  0.0000  0.0000  0.0000  0.0000  0.0000  0.0000  0.0000  0.0000 </r>
        <r>  0.0000  0.0004  0.0000  0.0004  0.0000  0.0000  0.0000  0.0000  0.0000 </r>
        <r>  0.0000  0.0004  0.0000  0.0004  0.0000  0.0000  0.0000  0.0000  0.0000 </r>
       </set>
       <set comment="band 11">
        <r>  0.0000  0.0000  0.0000  0.0000  0.0000  0.0000  0.0000  0.0000  0.0000 </r>
        <r>  0.0000  0.0000  0.0000  0.0000  0.0000  0.0000  0.0000  0.0000  0.0000 </r>
        <r>  0.0000  0.0212  0.0000  0.0212  0.0000  0.0000  0.0000  0.0000  0.0000 </r>
        <r>  0.0000  0.0000  0.0000  0.0000  0.0000  0.0000  0.0000  0.0000  0.0000 </r>
       </set>
       <set comment="band 12">
        <r>  0.0000  0.0000  0.0000  0.0000  0.0000  0.0000  0.0000  0.0000  0.0000 </r>
        <r>  0.0000  0.0212  0.0000  0.0212  0.0000  0.0000  0.0000  0.0000  0.0000 </r>
        <r>  0.0000  0.0000  0.0000  0.0000  0.0000  0.0000  0.0000  0.0000  0.0000 </r>
        <r>  0.0000  0.0000  0.0000  0.0000  0.0000  0.0000  0.0000  0.0000  0.0000 </r>
       </set>
       <set comment="band 13">
        <r>  0.0000  0.1894  0.0000  0.1895  0.0000  0.0000  0.0000  0.0000  0.0000 </r>
        <r>  0.0558  0.0000  0.0008  0.0000  0.0000  0.0000  0.0000  0.0000  0.0000 </r>
        <r>  0.0014  0.0000  0.0306  0.0000  0.0000  0.0000  0.0000  0.0000  0.0000 </r>
        <r>  0.0000  0.0048  0.0000  0.0048  0.0000  0.0000  0.0000  0.0000  0.0000 </r>
       </set>
       <set comment="band 14">
        <r>  0.0000  0.0048  0.0000  0.0049  0.0000  0.0000  0.0000  0.0000  0.0000 </r>
        <r>  0.0014  0.0000  0.0306  0.0000  0.0000  0.0000  0.0000  0.0000  0.0000 </r>
        <r>  0.0558  0.0000  0.0008  0.0000  0.0000  0.0000  0.0000  0.0000  0.0000 </r>
        <r>  0.0000  0.1895  0.0000  0.1893  0.0000  0.0000  0.0000  0.0000  0.0000 </r>
       </set>
      </set>
     </set>
    </set>
   </array>
  </projected>
 </calculation>
 <structure name="finalpos" >
  <crystal>
   <varray name="basis" >
    <v>       2.46120000       0.00000000       0.00000000 </v>
    <v>      -1.23060000       2.13146172       0.00000000 </v>
    <v>       0.00000000       0.00000000       6.70790000 </v>
   </varray>
   <i name="volume">     35.18933212 </i>
   <varray name="rec_basis" >
    <v>       0.40630587       0.23458080       0.00000000 </v>
    <v>       0.00000000       0.46916160       0.00000000 </v>
    <v>       0.00000000       0.00000000       0.14907795 </v>
   </varray>
  </crystal>
  <varray name="positions" >
   <v>       0.00000000       0.00000000       0.00000000 </v>
   <v>       0.33333333       0.66666667       0.00000000 </v>
   <v>       0.33333333       0.66666667       0.50000000 </v>
   <v>       0.66666667       0.33333333       0.50000000 </v>
  </varray>
 </structure>
</modeling>
