   1   1   1   0
  0.1761125E+02  0.2920351E-09  0.2920351E-09  0.2920351E-09  0.5000000E-15
  1.000000000000000E-004
  CAR 
 unknown system                          
     25.42709170     -3.17446465  301      6.30023333      1.00000000
     -3.174  0.0000E+00  0.0000E+00  0.0000E+00  0.0000E+00
     -3.079  0.0000E+00  0.0000E+00  0.0000E+00  0.0000E+00
     -2.984  0.0000E+00  0.0000E+00  0.0000E+00  0.0000E+00
     -2.888  0.0000E+00  0.0000E+00  0.0000E+00  0.0000E+00
     -2.793  0.0000E+00  0.0000E+00  0.0000E+00  0.0000E+00
     -2.698  0.0000E+00  0.0000E+00  0.0000E+00  0.0000E+00
     -2.602  0.0000E+00  0.0000E+00  0.0000E+00  0.0000E+00
     -2.507  0.0000E+00  0.0000E+00  0.0000E+00  0.0000E+00
     -2.412  0.0000E+00  0.0000E+00  0.0000E+00  0.0000E+00
     -2.316 -0.7594E-35 -0.1168E-34 -0.7240E-36 -0.1114E-35
     -2.221 -0.7558E-22 -0.1058E-21 -0.7206E-23 -0.1009E-22
     -2.126 -0.4650E-12 -0.5920E-12 -0.4433E-13 -0.5644E-13
     -2.030 -0.1666E-05 -0.1924E-05 -0.1588E-06 -0.1834E-06
     -1.935 -0.1450E-02 -0.1450E-02 -0.1384E-03 -0.1384E-03
     -1.840  0.4032E-01  0.4068E-01  0.3705E-02  0.3740E-02
     -1.744  0.2142E-02  0.1770E-02  0.3909E-02  0.3909E-02
     -1.649 -0.3362E-04 -0.2999E-04  0.3906E-02  0.3906E-02
     -1.554 -0.4718E-03 -0.5167E-03  0.3861E-02  0.3857E-02
     -1.458  0.3199E-01  0.3424E-01  0.6912E-02  0.7121E-02
     -1.363  0.9421E-01  0.9187E-01  0.1589E-01  0.1588E-01
     -1.268 -0.2811E-02 -0.2673E-02  0.1563E-01  0.1563E-01
     -1.172 -0.7260E-04 -0.8139E-04  0.1562E-01  0.1562E-01
     -1.077  0.3387E-02  0.4358E-02  0.1594E-01  0.1603E-01
     -0.982  0.1239E+00  0.1230E+00  0.2775E-01  0.2776E-01
     -0.886 -0.4282E-02 -0.4329E-02  0.2734E-01  0.2734E-01
     -0.791 -0.1416E-03 -0.1542E-03  0.2733E-01  0.2733E-01
     -0.696  0.4719E-02  0.5496E-02  0.2778E-01  0.2785E-01
     -0.600  0.1572E+00  0.1573E+00  0.4277E-01  0.4285E-01
     -0.505  0.2183E-02  0.1350E-02  0.4298E-01  0.4297E-01
     -0.410 -0.2740E-03 -0.2900E-03  0.4295E-01  0.4295E-01
     -0.314  0.1299E-01  0.1534E-01  0.4419E-01  0.4441E-01
     -0.219  0.2418E+00  0.2394E+00  0.6724E-01  0.6723E-01
     -0.124 -0.8796E-02 -0.8763E-02  0.6640E-01  0.6640E-01
     -0.028  0.6043E-02  0.7195E-02  0.6697E-01  0.6708E-01
      0.067  0.1213E+00  0.1202E+00  0.7854E-01  0.7854E-01
      0.162 -0.4353E-02 -0.4338E-02  0.7813E-01  0.7813E-01
      0.258 -0.7767E-04 -0.8608E-04  0.7812E-01  0.7812E-01
      0.353 -0.1843E-02 -0.8122E-03  0.7794E-01  0.7804E-01
      0.448  0.2501E+00  0.2497E+00  0.1018E+00  0.1018E+00
      0.544  0.5402E-01  0.5590E-01  0.1069E+00  0.1072E+00
      0.639  0.6216E-01  0.5927E-01  0.1129E+00  0.1128E+00
      0.734  0.1911E+00  0.1954E+00  0.1311E+00  0.1315E+00
      0.830  0.6209E-01  0.5846E-01  0.1370E+00  0.1370E+00
      0.925  0.1279E+00  0.1297E+00  0.1492E+00  0.1494E+00
      1.020  0.3354E-01  0.3138E-01  0.1524E+00  0.1524E+00
      1.116 -0.5417E-03 -0.4986E-03  0.1523E+00  0.1523E+00
      1.211 -0.1497E-01 -0.1529E-01  0.1509E+00  0.1509E+00
      1.306  0.4694E+00  0.4785E+00  0.1957E+00  0.1965E+00
      1.402  0.2458E+00  0.2391E+00  0.2191E+00  0.2193E+00
      1.497  0.1250E+00  0.1254E+00  0.2310E+00  0.2313E+00
      1.592  0.9200E-01  0.9106E-01  0.2398E+00  0.2399E+00
      1.688  0.2057E+00  0.2087E+00  0.2594E+00  0.2598E+00
      1.783  0.3632E+00  0.3605E+00  0.2940E+00  0.2942E+00
      1.878  0.4861E+00  0.4938E+00  0.3404E+00  0.3413E+00
      1.974  0.2740E+00  0.2635E+00  0.3665E+00  0.3664E+00
      2.069  0.5141E+00  0.5257E+00  0.4155E+00  0.4165E+00
      2.164  0.2293E+00  0.2192E+00  0.4374E+00  0.4374E+00
      2.260  0.6816E+00  0.6856E+00  0.5024E+00  0.5028E+00
      2.355  0.2777E+00  0.2794E+00  0.5288E+00  0.5294E+00
      2.451  0.5167E+00  0.5165E+00  0.5781E+00  0.5787E+00
      2.546  0.2180E+00  0.2139E+00  0.5989E+00  0.5991E+00
      2.641  0.1290E-01  0.1177E-01  0.6001E+00  0.6002E+00
      2.737  0.6255E+00  0.6270E+00  0.6597E+00  0.6600E+00
      2.832  0.2789E+00  0.2873E+00  0.6863E+00  0.6874E+00
      2.927  0.1006E+01  0.9974E+00  0.7822E+00  0.7824E+00
      3.023  0.4217E+00  0.4262E+00  0.8224E+00  0.8231E+00
      3.118  0.4352E+00  0.4386E+00  0.8639E+00  0.8649E+00
      3.213  0.2576E+00  0.2487E+00  0.8885E+00  0.8886E+00
      3.309  0.3384E+00  0.3454E+00  0.9208E+00  0.9215E+00
      3.404  0.4160E+00  0.4121E+00  0.9604E+00  0.9608E+00
      3.499  0.1645E+00  0.1623E+00  0.9761E+00  0.9763E+00
      3.595  0.1007E+01  0.1010E+01  0.1072E+01  0.1073E+01
      3.690  0.4687E+00  0.4752E+00  0.1117E+01  0.1118E+01
      3.785  0.3786E+00  0.3665E+00  0.1153E+01  0.1153E+01
      3.881  0.1767E+00  0.1845E+00  0.1170E+01  0.1170E+01
      3.976  0.3715E+00  0.3676E+00  0.1205E+01  0.1205E+01
      4.071  0.3885E+00  0.3876E+00  0.1242E+01  0.1242E+01
      4.167  0.3580E+00  0.3658E+00  0.1276E+01  0.1277E+01
      4.262  0.7502E+00  0.7468E+00  0.1348E+01  0.1349E+01
      4.357  0.4062E+00  0.3993E+00  0.1387E+01  0.1387E+01
      4.453  0.2423E+00  0.2520E+00  0.1410E+01  0.1411E+01
      4.548  0.1021E+01  0.1020E+01  0.1507E+01  0.1508E+01
      4.643  0.5266E+00  0.5195E+00  0.1557E+01  0.1557E+01
      4.739  0.1862E+00  0.1876E+00  0.1575E+01  0.1575E+01
      4.834  0.3298E+00  0.3324E+00  0.1606E+01  0.1607E+01
      4.929  0.1408E+00  0.1363E+00  0.1620E+01  0.1620E+01
      5.025  0.8425E+00  0.8513E+00  0.1700E+01  0.1701E+01
      5.120  0.7680E+00  0.7587E+00  0.1773E+01  0.1774E+01
      5.215  0.1923E+00  0.1947E+00  0.1792E+01  0.1792E+01
      5.311  0.5613E+00  0.5691E+00  0.1845E+01  0.1846E+01
      5.406  0.3447E+00  0.3339E+00  0.1878E+01  0.1878E+01
      5.501  0.7242E+00  0.7367E+00  0.1947E+01  0.1948E+01
      5.597  0.6155E+00  0.6082E+00  0.2006E+01  0.2006E+01
      5.692  0.7207E+00  0.7230E+00  0.2075E+01  0.2075E+01
      5.787  0.6785E+00  0.6797E+00  0.2139E+01  0.2140E+01
      5.883  0.7314E+00  0.7269E+00  0.2209E+01  0.2209E+01
      5.978  0.6757E+00  0.6769E+00  0.2273E+01  0.2274E+01
      6.073  0.1044E+00  0.9948E-01  0.2283E+01  0.2283E+01
      6.169  0.8410E+00  0.8540E+00  0.2364E+01  0.2365E+01
      6.264  0.1264E+01  0.1257E+01  0.2484E+01  0.2485E+01
      6.359  0.2581E+00  0.2542E+00  0.2509E+01  0.2509E+01
      6.455  0.4823E+00  0.4802E+00  0.2555E+01  0.2555E+01
      6.550  0.2394E+00  0.2463E+00  0.2578E+01  0.2578E+01
      6.645  0.6681E+00  0.6692E+00  0.2641E+01  0.2642E+01
      6.741  0.7747E+00  0.7688E+00  0.2715E+01  0.2715E+01
      6.836  0.4727E+00  0.4806E+00  0.2760E+01  0.2761E+01
      6.931  0.5422E+00  0.5329E+00  0.2812E+01  0.2812E+01
      7.027  0.6954E+00  0.6991E+00  0.2878E+01  0.2879E+01
      7.122  0.4672E+00  0.4649E+00  0.2923E+01  0.2923E+01
      7.217  0.5009E+00  0.5063E+00  0.2970E+01  0.2971E+01
      7.313  0.1096E+01  0.1090E+01  0.3075E+01  0.3075E+01
      7.408  0.2674E+00  0.2696E+00  0.3100E+01  0.3101E+01
      7.503  0.3972E+00  0.3952E+00  0.3138E+01  0.3138E+01
      7.599  0.5597E+00  0.5647E+00  0.3192E+01  0.3192E+01
      7.694  0.3987E+00  0.3925E+00  0.3230E+01  0.3230E+01
      7.789  0.2168E+00  0.2196E+00  0.3250E+01  0.3251E+01
      7.885  0.3746E+00  0.3712E+00  0.3286E+01  0.3286E+01
      7.980  0.1089E+00  0.1089E+00  0.3296E+01  0.3296E+01
      8.075  0.2921E+00  0.2977E+00  0.3324E+01  0.3325E+01
      8.171  0.8118E+00  0.8111E+00  0.3402E+01  0.3402E+01
      8.266  0.6539E+00  0.6512E+00  0.3464E+01  0.3464E+01
      8.361  0.2103E+00  0.2086E+00  0.3484E+01  0.3484E+01
      8.457  0.9336E-01  0.9507E-01  0.3493E+01  0.3493E+01
      8.552  0.3234E+00  0.3228E+00  0.3524E+01  0.3524E+01
      8.648  0.5737E+00  0.5756E+00  0.3578E+01  0.3579E+01
      8.743  0.6701E+00  0.6706E+00  0.3642E+01  0.3643E+01
      8.838  0.5225E+00  0.5216E+00  0.3692E+01  0.3692E+01
      8.934  0.3192E+00  0.3183E+00  0.3723E+01  0.3723E+01
      9.029  0.9522E+00  0.9543E+00  0.3813E+01  0.3814E+01
      9.124  0.1694E+00  0.1684E+00  0.3830E+01  0.3830E+01
      9.220  0.4248E+00  0.4222E+00  0.3870E+01  0.3870E+01
      9.315  0.4903E+00  0.4929E+00  0.3917E+01  0.3917E+01
      9.410  0.2885E+00  0.2866E+00  0.3944E+01  0.3944E+01
      9.506  0.9456E-01  0.9317E-01  0.3953E+01  0.3953E+01
      9.601 -0.1300E-01 -0.1288E-01  0.3952E+01  0.3952E+01
      9.696  0.4301E+00  0.4324E+00  0.3993E+01  0.3993E+01
      9.792  0.2954E+00  0.2960E+00  0.4021E+01  0.4022E+01
      9.887  0.9659E+00  0.9690E+00  0.4113E+01  0.4114E+01
      9.982  0.4748E+00  0.4701E+00  0.4159E+01  0.4159E+01
     10.078  0.3758E+00  0.3771E+00  0.4194E+01  0.4195E+01
     10.173  0.3389E+00  0.3363E+00  0.4227E+01  0.4227E+01
     10.268 -0.7024E-02 -0.7076E-02  0.4226E+01  0.4226E+01
     10.364  0.1888E+00  0.1902E+00  0.4244E+01  0.4244E+01
     10.459  0.1867E+00  0.1873E+00  0.4262E+01  0.4262E+01
     10.554  0.3767E+00  0.3758E+00  0.4298E+01  0.4298E+01
     10.650  0.2275E+00  0.2265E+00  0.4319E+01  0.4319E+01
     10.745  0.2013E+00  0.2030E+00  0.4339E+01  0.4339E+01
     10.840  0.2208E+00  0.2202E+00  0.4360E+01  0.4360E+01
     10.936  0.7048E-01  0.7117E-01  0.4366E+01  0.4367E+01
     11.031  0.1136E+01  0.1141E+01  0.4475E+01  0.4475E+01
     11.126  0.4134E+00  0.4089E+00  0.4514E+01  0.4514E+01
     11.222  0.5494E+00  0.5499E+00  0.4566E+01  0.4567E+01
     11.317  0.5850E+00  0.5840E+00  0.4622E+01  0.4622E+01
     11.412  0.1268E+00  0.1254E+00  0.4634E+01  0.4634E+01
     11.508  0.2318E+00  0.2314E+00  0.4656E+01  0.4656E+01
     11.603  0.1231E+00  0.1228E+00  0.4668E+01  0.4668E+01
     11.698  0.6607E-01  0.6851E-01  0.4674E+01  0.4675E+01
     11.794  0.3696E+00  0.3688E+00  0.4710E+01  0.4710E+01
     11.889  0.3426E+00  0.3419E+00  0.4742E+01  0.4742E+01
     11.984  0.4210E+00  0.4236E+00  0.4783E+01  0.4783E+01
     12.080  0.6559E+00  0.6580E+00  0.4845E+01  0.4846E+01
     12.175  0.1507E+01  0.1505E+01  0.4989E+01  0.4989E+01
     12.270  0.1979E+00  0.1954E+00  0.5008E+01  0.5008E+01
     12.366  0.1059E+01  0.1062E+01  0.5108E+01  0.5109E+01
     12.461  0.3877E+00  0.3841E+00  0.5145E+01  0.5146E+01
     12.556  0.1995E+00  0.1994E+00  0.5164E+01  0.5165E+01
     12.652  0.1441E+00  0.1436E+00  0.5178E+01  0.5178E+01
     12.747  0.5454E+00  0.5476E+00  0.5230E+01  0.5230E+01
     12.842  0.1962E+00  0.1953E+00  0.5249E+01  0.5249E+01
     12.938  0.5239E+00  0.5245E+00  0.5299E+01  0.5299E+01
     13.033  0.4289E+00  0.4309E+00  0.5340E+01  0.5340E+01
     13.128  0.5885E+00  0.5868E+00  0.5396E+01  0.5396E+01
     13.224  0.5689E+00  0.5672E+00  0.5450E+01  0.5450E+01
     13.319 -0.9190E-02 -0.9728E-02  0.5449E+01  0.5449E+01
     13.414 -0.4019E-02 -0.3930E-02  0.5449E+01  0.5449E+01
     13.510  0.1179E+00  0.1182E+00  0.5460E+01  0.5460E+01
     13.605  0.2401E+00  0.2407E+00  0.5483E+01  0.5483E+01
     13.700  0.1381E+00  0.1401E+00  0.5496E+01  0.5496E+01
     13.796  0.6075E+00  0.6055E+00  0.5554E+01  0.5554E+01
     13.891  0.2921E-01  0.2965E-01  0.5557E+01  0.5557E+01
     13.986  0.7394E+00  0.7427E+00  0.5627E+01  0.5628E+01
     14.082  0.3463E+00  0.3448E+00  0.5660E+01  0.5661E+01
     14.177  0.3455E+00  0.3432E+00  0.5693E+01  0.5693E+01
     14.272  0.1915E-01  0.1828E-01  0.5695E+01  0.5695E+01
     14.368  0.9768E-01  0.1011E+00  0.5704E+01  0.5705E+01
     14.463  0.7686E+00  0.7664E+00  0.5778E+01  0.5778E+01
     14.559 -0.4551E-02 -0.5759E-02  0.5777E+01  0.5777E+01
     14.654  0.4923E-01  0.5163E-01  0.5782E+01  0.5782E+01
     14.749  0.4231E+00  0.4224E+00  0.5822E+01  0.5822E+01
     14.845  0.3451E+00  0.3465E+00  0.5855E+01  0.5856E+01
     14.940  0.2120E+00  0.2109E+00  0.5875E+01  0.5876E+01
     15.035  0.2161E+00  0.2151E+00  0.5896E+01  0.5896E+01
     15.131  0.3310E+00  0.3316E+00  0.5928E+01  0.5928E+01
     15.226  0.2248E-01  0.2095E-01  0.5930E+01  0.5930E+01
     15.321 -0.4670E-03 -0.4372E-03  0.5930E+01  0.5930E+01
     15.417 -0.8251E-08 -0.7849E-08  0.5930E+01  0.5930E+01
     15.512 -0.4626E-03 -0.4878E-03  0.5930E+01  0.5930E+01
     15.607  0.3497E-01  0.3678E-01  0.5933E+01  0.5933E+01
     15.703  0.2188E+00  0.2169E+00  0.5954E+01  0.5954E+01
     15.798 -0.8380E-02 -0.7427E-02  0.5953E+01  0.5953E+01
     15.893  0.3351E+00  0.3363E+00  0.5985E+01  0.5985E+01
     15.989  0.2867E+00  0.2850E+00  0.6012E+01  0.6012E+01
     16.084  0.4351E-01  0.4534E-01  0.6016E+01  0.6017E+01
     16.179  0.2045E+00  0.2031E+00  0.6036E+01  0.6036E+01
     16.275  0.2453E+00  0.2448E+00  0.6059E+01  0.6059E+01
     16.370 -0.1330E-01 -0.1339E-01  0.6058E+01  0.6058E+01
     16.465  0.2361E+00  0.2394E+00  0.6081E+01  0.6081E+01
     16.561  0.3933E+00  0.3901E+00  0.6118E+01  0.6118E+01
     16.656 -0.2375E-01 -0.2394E-01  0.6116E+01  0.6116E+01
     16.751  0.5164E+00  0.5216E+00  0.6165E+01  0.6166E+01
     16.847  0.3447E+00  0.3398E+00  0.6198E+01  0.6198E+01
     16.942  0.2544E+00  0.2593E+00  0.6222E+01  0.6223E+01
     17.037  0.5131E+00  0.5077E+00  0.6271E+01  0.6271E+01
     17.133  0.5544E-02  0.6555E-02  0.6272E+01  0.6272E+01
     17.228  0.9997E-01  0.9946E-01  0.6281E+01  0.6281E+01
     17.323  0.2606E+00  0.2614E+00  0.6306E+01  0.6306E+01
     17.419  0.2298E+00  0.2320E+00  0.6328E+01  0.6328E+01
     17.514  0.4477E+00  0.4456E+00  0.6371E+01  0.6371E+01
     17.609  0.7991E-01  0.7839E-01  0.6378E+01  0.6378E+01
     17.705  0.3345E+00  0.3395E+00  0.6410E+01  0.6411E+01
     17.800  0.2963E+00  0.2917E+00  0.6438E+01  0.6438E+01
     17.895  0.1053E+00  0.1056E+00  0.6448E+01  0.6448E+01
     17.991  0.4695E+00  0.4711E+00  0.6493E+01  0.6493E+01
     18.086  0.7984E-01  0.7961E-01  0.6501E+01  0.6501E+01
     18.181  0.1874E+00  0.1862E+00  0.6519E+01  0.6519E+01
     18.277  0.3191E-01  0.3290E-01  0.6522E+01  0.6522E+01
     18.372  0.2719E+00  0.2703E+00  0.6548E+01  0.6548E+01
     18.467  0.5348E-01  0.5475E-01  0.6553E+01  0.6553E+01
     18.563  0.1508E+00  0.1531E+00  0.6567E+01  0.6567E+01
     18.658  0.6852E+00  0.6842E+00  0.6632E+01  0.6633E+01
     18.753  0.2601E+00  0.2613E+00  0.6657E+01  0.6658E+01
     18.849  0.3184E+00  0.3144E+00  0.6688E+01  0.6688E+01
     18.944  0.3480E+00  0.3565E+00  0.6721E+01  0.6722E+01
     19.039  0.6338E+00  0.6273E+00  0.6781E+01  0.6781E+01
     19.135  0.2893E+00  0.2899E+00  0.6809E+01  0.6809E+01
     19.230  0.1037E+00  0.1024E+00  0.6819E+01  0.6819E+01
     19.325  0.2672E-01  0.2735E-01  0.6821E+01  0.6821E+01
     19.421  0.3296E-01  0.3131E-01  0.6824E+01  0.6824E+01
     19.516 -0.1063E-02 -0.9577E-03  0.6824E+01  0.6824E+01
     19.611 -0.7505E-02 -0.7626E-02  0.6824E+01  0.6823E+01
     19.707  0.2129E+00  0.2146E+00  0.6844E+01  0.6844E+01
     19.802  0.1969E+00  0.1982E+00  0.6863E+01  0.6863E+01
     19.897  0.4450E+00  0.4458E+00  0.6905E+01  0.6905E+01
     19.993  0.5095E+00  0.5094E+00  0.6954E+01  0.6954E+01
     20.088  0.4179E+00  0.4203E+00  0.6993E+01  0.6994E+01
     20.183  0.3636E+01  0.3563E+01  0.7340E+01  0.7334E+01
     20.279  0.7895E+01  0.7966E+01  0.8093E+01  0.8093E+01
     20.374 -0.7142E-01 -0.7334E-01  0.8086E+01  0.8086E+01
     20.469  0.2943E+00  0.2941E+00  0.8114E+01  0.8114E+01
     20.565  0.6997E-01  0.6842E-01  0.8121E+01  0.8121E+01
     20.660  0.2675E+00  0.2686E+00  0.8146E+01  0.8146E+01
     20.756  0.2156E+00  0.2157E+00  0.8167E+01  0.8167E+01
     20.851  0.3874E+00  0.3923E+00  0.8204E+01  0.8204E+01
     20.946  0.3636E+00  0.3564E+00  0.8238E+01  0.8238E+01
     21.042  0.2892E+00  0.2929E+00  0.8266E+01  0.8266E+01
     21.137  0.1431E+00  0.1424E+00  0.8280E+01  0.8280E+01
     21.232  0.4166E+00  0.4160E+00  0.8319E+01  0.8319E+01
     21.328  0.8661E-02  0.9034E-02  0.8320E+01  0.8320E+01
     21.423  0.4668E+00  0.4716E+00  0.8365E+01  0.8365E+01
     21.518  0.4117E+00  0.4080E+00  0.8404E+01  0.8404E+01
     21.614  0.1946E+00  0.1943E+00  0.8422E+01  0.8423E+01
     21.709  0.4541E-01  0.4605E-01  0.8427E+01  0.8427E+01
     21.804  0.2763E+00  0.2753E+00  0.8453E+01  0.8453E+01
     21.900  0.5284E+00  0.5340E+00  0.8503E+01  0.8504E+01
     21.995  0.7514E+00  0.7532E+00  0.8575E+01  0.8576E+01
     22.090  0.5673E+00  0.5613E+00  0.8629E+01  0.8630E+01
     22.186  0.2361E+00  0.2336E+00  0.8652E+01  0.8652E+01
     22.281 -0.2108E-02 -0.3267E-02  0.8651E+01  0.8651E+01
     22.376  0.3122E+00  0.3172E+00  0.8681E+01  0.8682E+01
     22.472  0.1794E+00  0.1763E+00  0.8698E+01  0.8699E+01
     22.567  0.3980E+00  0.3990E+00  0.8736E+01  0.8737E+01
     22.662  0.1787E+00  0.1820E+00  0.8753E+01  0.8754E+01
     22.758  0.6378E+00  0.6342E+00  0.8814E+01  0.8814E+01
     22.853  0.6314E-01  0.6029E-01  0.8820E+01  0.8820E+01
     22.948  0.8427E-01  0.8683E-01  0.8828E+01  0.8828E+01
     23.044  0.2582E+00  0.2592E+00  0.8853E+01  0.8853E+01
     23.139  0.6138E-01  0.6192E-01  0.8859E+01  0.8859E+01
     23.234  0.9067E-01  0.8662E-01  0.8867E+01  0.8867E+01
     23.330  0.2854E-01  0.2899E-01  0.8870E+01  0.8870E+01
     23.425  0.2074E+00  0.2125E+00  0.8890E+01  0.8890E+01
     23.520  0.5035E-01  0.4492E-01  0.8895E+01  0.8895E+01
     23.616 -0.3691E-02 -0.3778E-02  0.8894E+01  0.8894E+01
     23.711  0.9420E-01  0.9719E-01  0.8903E+01  0.8904E+01
     23.806  0.7631E-01  0.7757E-01  0.8911E+01  0.8911E+01
     23.902  0.5372E+00  0.5567E+00  0.8962E+01  0.8964E+01
     23.997  0.1601E+00  0.1364E+00  0.8977E+01  0.8977E+01
     24.092  0.5920E-02  0.1016E-01  0.8978E+01  0.8978E+01
     24.188  0.2441E+00  0.2400E+00  0.9001E+01  0.9001E+01
     24.283 -0.8700E-02 -0.8669E-02  0.9000E+01  0.9000E+01
     24.378 -0.1154E-04 -0.8903E-05  0.9000E+01  0.9000E+01
     24.474 -0.3552E-11 -0.2299E-11  0.9000E+01  0.9000E+01
     24.569  0.0000E+00  0.0000E+00  0.9000E+01  0.9000E+01
     24.664  0.0000E+00  0.0000E+00  0.9000E+01  0.9000E+01
     24.760  0.0000E+00  0.0000E+00  0.9000E+01  0.9000E+01
     24.855  0.0000E+00  0.0000E+00  0.9000E+01  0.9000E+01
     24.950  0.0000E+00  0.0000E+00  0.9000E+01  0.9000E+01
     25.046  0.0000E+00  0.0000E+00  0.9000E+01  0.9000E+01
     25.141  0.0000E+00  0.0000E+00  0.9000E+01  0.9000E+01
     25.236  0.0000E+00  0.0000E+00  0.9000E+01  0.9000E+01
     25.332  0.0000E+00  0.0000E+00  0.9000E+01  0.9000E+01
     25.427  0.0000E+00  0.0000E+00  0.9000E+01  0.9000E+01
     25.42709170     -3.17446465  301      6.30023333      1.00000000
     -3.174  0.0000E+00  0.0000E+00  0.0000E+00  0.0000E+00  0.0000E+00  0.0000E+00  0.0000E+00  0.0000E+00  0.0000E+00  0.0000E+00  0.0000E+00  0.0000E+00  0.0000E+00  0.0000E+00  0.0000E+00  0.0000E+00  0.0000E+00  0.0000E+00
     -3.079  0.0000E+00  0.0000E+00  0.0000E+00  0.0000E+00  0.0000E+00  0.0000E+00  0.0000E+00  0.0000E+00  0.0000E+00  0.0000E+00  0.0000E+00  0.0000E+00  0.0000E+00  0.0000E+00  0.0000E+00  0.0000E+00  0.0000E+00  0.0000E+00
     -2.984  0.0000E+00  0.0000E+00  0.0000E+00  0.0000E+00  0.0000E+00  0.0000E+00  0.0000E+00  0.0000E+00  0.0000E+00  0.0000E+00  0.0000E+00  0.0000E+00  0.0000E+00  0.0000E+00  0.0000E+00  0.0000E+00  0.0000E+00  0.0000E+00
     -2.888  0.0000E+00  0.0000E+00  0.0000E+00  0.0000E+00  0.0000E+00  0.0000E+00  0.0000E+00  0.0000E+00  0.0000E+00  0.0000E+00  0.0000E+00  0.0000E+00  0.0000E+00  0.0000E+00  0.0000E+00  0.0000E+00  0.0000E+00  0.0000E+00
     -2.793  0.0000E+00  0.0000E+00  0.0000E+00  0.0000E+00  0.0000E+00  0.0000E+00  0.0000E+00  0.0000E+00  0.0000E+00  0.0000E+00  0.0000E+00  0.0000E+00  0.0000E+00  0.0000E+00  0.0000E+00  0.0000E+00  0.0000E+00  0.0000E+00
     -2.698  0.0000E+00  0.0000E+00  0.0000E+00  0.0000E+00  0.0000E+00  0.0000E+00  0.0000E+00  0.0000E+00  0.0000E+00  0.0000E+00  0.0000E+00  0.0000E+00  0.0000E+00  0.0000E+00  0.0000E+00  0.0000E+00  0.0000E+00  0.0000E+00
     -2.602  0.0000E+00  0.0000E+00  0.0000E+00  0.0000E+00  0.0000E+00  0.0000E+00  0.0000E+00  0.0000E+00  0.0000E+00  0.0000E+00  0.0000E+00  0.0000E+00  0.0000E+00  0.0000E+00  0.0000E+00  0.0000E+00  0.0000E+00  0.0000E+00
     -2.507  0.0000E+00  0.0000E+00  0.0000E+00  0.0000E+00  0.0000E+00  0.0000E+00  0.0000E+00  0.0000E+00  0.0000E+00  0.0000E+00  0.0000E+00  0.0000E+00  0.0000E+00  0.0000E+00  0.0000E+00  0.0000E+00  0.0000E+00  0.0000E+00
     -2.412  0.0000E+00  0.0000E+00  0.0000E+00  0.0000E+00  0.0000E+00  0.0000E+00  0.0000E+00  0.0000E+00  0.0000E+00  0.0000E+00  0.0000E+00  0.0000E+00  0.0000E+00  0.0000E+00  0.0000E+00  0.0000E+00  0.0000E+00  0.0000E+00
     -2.316 -0.6682E-35 -0.1028E-34 -0.3316E-37 -0.5100E-37 -0.3316E-37 -0.5100E-37 -0.3316E-37 -0.5100E-37 -0.7255E-39 -0.1116E-38 -0.7255E-39 -0.1116E-38 -0.3431E-49 -0.1953E-50 -0.7254E-39 -0.1116E-38 -0.1157E-48 -0.1874E-49
     -2.221 -0.6651E-22 -0.9312E-22 -0.3300E-24 -0.4621E-24 -0.3300E-24 -0.4621E-24 -0.3300E-24 -0.4621E-24 -0.7221E-26 -0.1011E-25 -0.7221E-26 -0.1011E-25 -0.3415E-36 -0.1769E-37 -0.7221E-26 -0.1011E-25 -0.1152E-35 -0.1698E-36
     -2.126 -0.4092E-12 -0.5209E-12 -0.2030E-14 -0.2585E-14 -0.2030E-14 -0.2585E-14 -0.2030E-14 -0.2585E-14 -0.4442E-16 -0.5657E-16 -0.4442E-16 -0.5657E-16 -0.2101E-26 -0.9899E-28 -0.4442E-16 -0.5657E-16 -0.7085E-26 -0.9500E-27
     -2.030 -0.1466E-05 -0.1693E-05 -0.7275E-08 -0.8400E-08 -0.7275E-08 -0.8400E-08 -0.7275E-08 -0.8400E-08 -0.1592E-09 -0.1838E-09 -0.1592E-09 -0.1839E-09 -0.7527E-20 -0.3217E-21 -0.1592E-09 -0.1838E-09 -0.2538E-19 -0.3087E-20
     -1.935 -0.1276E-02 -0.1276E-02 -0.6332E-05 -0.6332E-05 -0.6332E-05 -0.6332E-05 -0.6332E-05 -0.6332E-05 -0.1385E-06 -0.1386E-06 -0.1385E-06 -0.1386E-06 -0.6551E-17 -0.2425E-18 -0.1385E-06 -0.1386E-06 -0.2210E-16 -0.2327E-17
     -1.840  0.3548E-01  0.3580E-01  0.1760E-03  0.1777E-03  0.1760E-03  0.1777E-03  0.1760E-03  0.1777E-03  0.3852E-05  0.3888E-05  0.3852E-05  0.3888E-05  0.1821E-15  0.6803E-17  0.3852E-05  0.3888E-05  0.6143E-15  0.6529E-16
     -1.744  0.1885E-02  0.1557E-02  0.9353E-05  0.7728E-05  0.9353E-05  0.7728E-05  0.9353E-05  0.7728E-05  0.2046E-06  0.1691E-06  0.2046E-06  0.1691E-06  0.9668E-17  0.2830E-18  0.2046E-06  0.1691E-06  0.3261E-16  0.2801E-17
     -1.649 -0.2958E-04 -0.2639E-04 -0.1468E-06 -0.1309E-06 -0.1468E-06 -0.1309E-06 -0.1470E-06 -0.1312E-06 -0.3216E-08 -0.2871E-08 -0.3212E-08 -0.2866E-08 -0.1555E-11 -0.1886E-11 -0.3216E-08 -0.2871E-08 -0.4666E-11 -0.5659E-11
     -1.554 -0.4020E-03 -0.4403E-03 -0.1919E-05 -0.2102E-05 -0.1919E-05 -0.2102E-05 -0.1810E-04 -0.1982E-04 -0.3893E-06 -0.4265E-06 -0.5913E-07 -0.6478E-07 -0.1244E-06 -0.1362E-06 -0.3893E-06 -0.4265E-06 -0.3732E-06 -0.4087E-06
     -1.458  0.2726E-01  0.2917E-01  0.1302E-03  0.1393E-03  0.1302E-03  0.1393E-03  0.1227E-02  0.1313E-02  0.2640E-04  0.2826E-04  0.4010E-05  0.4292E-05  0.8437E-05  0.9026E-05  0.2640E-04  0.2826E-04  0.2531E-04  0.2708E-04
     -1.363  0.8028E-01  0.7829E-01  0.3833E-03  0.3738E-03  0.3833E-03  0.3738E-03  0.3614E-02  0.3524E-02  0.7774E-04  0.7583E-04  0.1181E-04  0.1152E-04  0.2484E-04  0.2422E-04  0.7774E-04  0.7583E-04  0.7453E-04  0.7266E-04
     -1.268 -0.2395E-02 -0.2278E-02 -0.1144E-04 -0.1088E-04 -0.1144E-04 -0.1088E-04 -0.1078E-03 -0.1026E-03 -0.2320E-05 -0.2207E-05 -0.3523E-06 -0.3351E-06 -0.7412E-06 -0.7048E-06 -0.2320E-05 -0.2207E-05 -0.2224E-05 -0.2114E-05
     -1.172 -0.5987E-04 -0.6711E-04 -0.2580E-05 -0.2897E-05 -0.2580E-05 -0.2897E-05 -0.2817E-06 -0.3110E-06 -0.7906E-07 -0.8868E-07 -0.5181E-06 -0.5818E-06 -0.1510E-07 -0.1691E-07 -0.7906E-07 -0.8868E-07 -0.4529E-07 -0.5074E-07
     -1.077  0.2792E-02  0.3593E-02  0.1211E-03  0.1558E-03  0.1211E-03  0.1558E-03  0.1233E-04  0.1587E-04  0.3694E-05  0.4754E-05  0.2433E-04  0.3131E-04  0.7030E-06  0.9041E-06  0.3694E-05  0.4754E-05  0.2109E-05  0.2712E-05
     -0.982  0.1021E+00  0.1014E+00  0.4429E-02  0.4397E-02  0.4429E-02  0.4397E-02  0.4512E-03  0.4478E-03  0.1351E-03  0.1342E-03  0.8900E-03  0.8836E-03  0.2571E-04  0.2552E-04  0.1351E-03  0.1342E-03  0.7714E-04  0.7655E-04
     -0.886 -0.3531E-02 -0.3569E-02 -0.1531E-03 -0.1548E-03 -0.1531E-03 -0.1548E-03 -0.1560E-04 -0.1577E-04 -0.4671E-05 -0.4723E-05 -0.3076E-04 -0.3111E-04 -0.8888E-06 -0.8983E-06 -0.4671E-05 -0.4723E-05 -0.2666E-05 -0.2695E-05
     -0.791 -0.1128E-03 -0.1228E-03 -0.4322E-05 -0.4688E-05 -0.5071E-05 -0.5547E-05 -0.4079E-05 -0.4477E-05 -0.1205E-05 -0.1322E-05 -0.1266E-05 -0.1379E-05 -0.8775E-07 -0.1002E-06 -0.1219E-05 -0.1339E-05 -0.4707E-08 -0.4090E-08
     -0.696  0.3763E-02  0.4380E-02  0.2713E-03  0.2938E-03 -0.1420E-03 -0.1119E-03  0.2713E-03  0.2938E-03  0.8417E-04  0.9080E-04  0.7623E-04  0.8301E-04 -0.4755E-04 -0.4666E-04  0.7623E-04  0.8301E-04 -0.2823E-14 -0.1375E-14
     -0.600  0.1247E+00  0.1247E+00  0.1497E-02  0.1476E-02  0.1350E-01  0.1356E-01  0.1497E-02  0.1476E-02  0.3403E-03  0.3336E-03  0.5708E-03  0.5656E-03  0.1381E-02  0.1389E-02  0.5708E-03  0.5656E-03  0.3246E-13  0.4137E-17
     -0.505  0.1728E-02  0.1068E-02 -0.2183E-04 -0.2349E-04  0.2905E-03  0.2038E-03 -0.2183E-04 -0.2349E-04 -0.9198E-05 -0.8954E-05 -0.3199E-05 -0.4587E-05  0.3593E-04  0.2615E-04 -0.3199E-05 -0.4587E-05 -0.2157E-11 -0.2658E-11
     -0.410 -0.2118E-03 -0.2238E-03 -0.6590E-05 -0.7303E-05 -0.7683E-05 -0.6974E-05 -0.1931E-04 -0.2151E-04 -0.3743E-05 -0.4178E-05 -0.5280E-06 -0.5561E-06 -0.1467E-05 -0.1460E-05 -0.7132E-06 -0.7630E-06 -0.7781E-06 -0.8691E-06
     -0.314  0.9954E-02  0.1175E-01  0.4051E-03  0.4782E-03  0.3744E-04  0.4419E-04  0.1219E-02  0.1439E-02  0.2384E-03  0.2814E-03  0.2426E-04  0.2864E-04  0.4354E-04  0.5138E-04  0.3612E-04  0.4264E-04  0.4979E-04  0.5876E-04
     -0.219  0.1852E+00  0.1834E+00  0.7537E-02  0.7463E-02  0.6966E-03  0.6897E-03  0.2267E-01  0.2245E-01  0.4435E-02  0.4392E-02  0.4514E-03  0.4471E-03  0.8100E-03  0.8019E-03  0.6719E-03  0.6654E-03  0.9263E-03  0.9170E-03
     -0.124 -0.6735E-02 -0.6709E-02 -0.2736E-03 -0.2725E-03 -0.2749E-04 -0.2765E-04 -0.8239E-03 -0.8207E-03 -0.1619E-03 -0.1614E-03 -0.1779E-04 -0.1789E-04 -0.2924E-04 -0.2910E-04 -0.2652E-04 -0.2667E-04 -0.3362E-04 -0.3347E-04
     -0.028  0.4436E-02  0.5282E-02  0.1507E-03  0.1795E-03  0.1510E-03  0.1797E-03  0.5011E-03  0.5967E-03  0.1456E-03  0.1734E-03  0.9621E-04  0.1145E-03  0.5887E-05  0.7016E-05  0.1458E-03  0.1735E-03  0.1772E-04  0.2110E-04
      0.067  0.8908E-01  0.8823E-01  0.3027E-02  0.2998E-02  0.3027E-02  0.2998E-02  0.1006E-01  0.9967E-02  0.2923E-02  0.2895E-02  0.1929E-02  0.1911E-02  0.1187E-03  0.1175E-03  0.2923E-02  0.2895E-02  0.3560E-03  0.3525E-03
      0.162 -0.3196E-02 -0.3185E-02 -0.1086E-03 -0.1082E-03 -0.1086E-03 -0.1082E-03 -0.3610E-03 -0.3598E-03 -0.1049E-03 -0.1045E-03 -0.6920E-04 -0.6898E-04 -0.4257E-05 -0.4242E-05 -0.1049E-03 -0.1045E-03 -0.1277E-04 -0.1273E-04
      0.258 -0.5503E-04 -0.6095E-04 -0.5131E-05 -0.5732E-05 -0.7108E-05 -0.7978E-05 -0.5754E-06 -0.5353E-06 -0.4235E-06 -0.4436E-06 -0.3065E-05 -0.3424E-05 -0.7569E-06 -0.8571E-06 -0.4558E-06 -0.4803E-06 -0.2466E-06 -0.2731E-06
      0.353 -0.1229E-02 -0.5012E-03  0.1589E-03  0.2298E-03 -0.5009E-03 -0.4014E-03 -0.8128E-05 -0.6121E-05  0.8215E-05  0.1243E-04  0.8861E-04  0.1309E-03 -0.2225E-03 -0.2116E-03 -0.2574E-05  0.2110E-05  0.7951E-05  0.1123E-04
      0.448  0.1751E+00  0.1748E+00  0.1054E-01  0.1047E-01  0.3174E-01  0.3175E-01  0.5785E-03  0.5773E-03  0.6157E-03  0.6088E-03  0.6405E-02  0.6365E-02  0.7392E-02  0.7416E-02  0.9622E-03  0.9568E-03  0.4750E-03  0.4718E-03
      0.544  0.3602E-01  0.3726E-01  0.3323E-02  0.3480E-02  0.3445E-02  0.3492E-02  0.8470E-03  0.8836E-03  0.2231E-02  0.2333E-02  0.3322E-02  0.3477E-02  0.6658E-04  0.3041E-04  0.2233E-02  0.2333E-02  0.7545E-04  0.7925E-04
      0.639  0.4163E-01  0.3970E-01  0.4185E-02  0.4011E-02  0.3376E-02  0.3166E-02  0.9980E-03  0.9585E-03  0.2644E-02  0.2540E-02  0.4000E-02  0.3832E-02 -0.2176E-03 -0.2299E-03  0.2640E-02  0.2537E-02  0.1072E-03  0.1030E-03
      0.734  0.1276E+00  0.1305E+00  0.4928E-02  0.5045E-02  0.3117E-01  0.3187E-01  0.3557E-03  0.3653E-03  0.7093E-03  0.7298E-03  0.5578E-02  0.5710E-02  0.8218E-02  0.8398E-02  0.8052E-03  0.8279E-03  0.2921E-04  0.3005E-04
      0.830  0.4120E-01  0.3874E-01  0.1697E-02  0.1610E-02  0.9525E-02  0.8869E-02  0.2528E-03  0.2630E-03  0.5863E-03  0.6152E-03  0.2093E-02  0.2018E-02  0.2477E-02  0.2300E-02  0.5985E-03  0.6244E-03  0.9832E-05  0.9161E-05
      0.925  0.7975E-01  0.8091E-01  0.2892E-02  0.2911E-02  0.1425E-01  0.1456E-01  0.2913E-02  0.2930E-02  0.6336E-02  0.6359E-02  0.6925E-02  0.6966E-02  0.2669E-02  0.2739E-02  0.6947E-02  0.6986E-02 -0.1420E-06 -0.1298E-06
      1.020  0.2135E-01  0.1998E-01  0.5337E-03  0.4983E-03  0.4919E-02  0.4608E-02  0.5337E-03  0.4983E-03  0.1020E-02  0.9513E-03  0.1253E-02  0.1171E-02  0.1034E-02  0.9689E-03  0.1253E-02  0.1171E-02 -0.1635E-11 -0.1366E-11
      1.116 -0.3433E-03 -0.3158E-03 -0.9367E-05 -0.8692E-05 -0.7557E-04 -0.6921E-04 -0.1012E-04 -0.9563E-05 -0.1848E-04 -0.1718E-04 -0.2168E-04 -0.2003E-04 -0.1578E-04 -0.1446E-04 -0.2156E-04 -0.1990E-04 -0.8097E-07 -0.9359E-07
      1.211 -0.8761E-02 -0.8956E-02 -0.7426E-03 -0.7613E-03 -0.5573E-04 -0.5670E-04 -0.1782E-02 -0.1824E-02 -0.1437E-02 -0.1468E-02 -0.7903E-03 -0.8013E-03 -0.1084E-03 -0.1113E-03 -0.6775E-03 -0.6876E-03 -0.1208E-03 -0.1237E-03
      1.306  0.2742E+00  0.2794E+00  0.2316E-01  0.2358E-01  0.1448E-02  0.1475E-02  0.5566E-01  0.5669E-01  0.4570E-01  0.4663E-01  0.2546E-01  0.2602E-01  0.2922E-02  0.2961E-02  0.2209E-01  0.2260E-01  0.3767E-02  0.3835E-02
      1.402  0.1330E+00  0.1290E+00  0.6238E-02  0.5829E-02  0.1756E-01  0.1791E-01  0.1610E-01  0.1509E-01  0.1816E-01  0.1731E-01  0.1379E-01  0.1331E-01  0.1844E-01  0.1881E-01  0.1293E-01  0.1250E-01  0.1009E-02  0.9409E-03
      1.497  0.5588E-01  0.5594E-01  0.1378E-02  0.1448E-02  0.9741E-02  0.9420E-02  0.2933E-04  0.4588E-04  0.1578E-01  0.1616E-01  0.1657E-01  0.1699E-01  0.9060E-02  0.8637E-02  0.1593E-01  0.1631E-01  0.5088E-05  0.7810E-05
      1.592  0.3873E-01  0.3820E-01  0.2055E-02  0.1984E-02  0.1733E-02  0.1657E-02  0.2332E-03  0.2533E-03  0.1677E-01  0.1669E-01  0.1823E-01  0.1814E-01 -0.6601E-03 -0.6797E-03  0.1677E-01  0.1670E-01  0.4482E-04  0.4392E-04