    1    1    1    2
  0.1761125E+02  0.2920351E-09  0.2920351E-09  0.2920351E-09  0.5000000E-15
  1.000000000000000E-004
  CAR 
 unknown system                          
    5   60    9
 
  0.6250000E-01  0.6250000E-01  0.6250000E-01  0.3906250E-02
   1       -1.873170     -1.874394
   2        6.626089      6.625274
   3        6.856393      6.855621
   4        6.856393      6.855621
   5        9.951199      9.950947
   6        9.951199      9.950947
   7       19.343802     19.341017
   8       20.193720     20.194257
   9       23.302946     23.302076
 
  0.1875000E+00  0.6250000E-01  0.6250000E-01  0.1171875E-01
   1       -1.040023     -1.041236
   2        5.988142      5.987180
   3        7.188144      7.187409
   4        7.217544      7.216788
   5        9.308377      9.308077
   6       10.081776     10.081490
   7       20.192858     20.193393
   8       20.810596     20.808307
   9       21.754609     21.753379
 
  0.3125000E+00  0.6250000E-01  0.6250000E-01  0.1171875E-01
   1        0.546205      0.544987
   2        5.463763      5.462677
   3        7.035693      7.035068
   4        7.272402      7.271799
   5        9.687562      9.687113
   6       10.949198     10.948814
   7       19.147170     19.146136
   8       20.196874     20.197402
   9       23.416015     23.414287
 
  0.4375000E+00  0.6250000E-01  0.6250000E-01  0.1171875E-01
   1        1.505250      1.503962
   2        6.229165      6.228333
   3        6.611769      6.610978
   4        6.783973      6.783427
   5       11.436009     11.435571
   6       12.492074     12.491708
   7       17.698338     17.697549
   8       20.158773     20.158865
   9       20.341149     20.340086
 
 -0.4375000E+00  0.6250000E-01  0.6250000E-01  0.1171875E-01
   1        1.617978      1.616662
   2        6.201872      6.201323
   3        6.661842      6.661293
   4        7.156195      7.155168
   5       12.608958     12.608605
   6       12.714702     12.714324
   7       17.153466     17.152901
   8       18.993335     18.991612
   9       20.200883     20.201412
 
 -0.3125000E+00  0.6250000E-01  0.6250000E-01  0.1171875E-01
   1        1.316458      1.315198
   2        5.830760      5.829736
   3        6.638097      6.637485
   4        6.994009      6.993433
   5       11.063591     11.063119
   6       11.802975     11.802603
   7       18.090271     18.089368
   8       20.192609     20.193134
   9       21.472172     21.470774
 
 -0.1875000E+00  0.6250000E-01  0.6250000E-01  0.1171875E-01
   1        0.005552      0.004344
   2        5.495583      5.494521
   3        7.201606      7.200966
   4        7.375505      7.374833
   5        9.413090      9.412651
   6       10.453855     10.453524
   7       19.798408     19.797327
   8       20.200782     20.201284
   9       23.153147     23.151077
 
 -0.6250000E-01  0.6250000E-01  0.6250000E-01  0.1171875E-01
   1       -1.443241     -1.444458
   2        6.210942      6.210040
   3        7.090234      7.089470
   4        7.104859      7.104096
   5        9.392740      9.392445
   6       10.136419     10.136171
   7       20.193533     20.194052
   8       20.226186     20.223522
   9       22.522166     22.521238
 
  0.1875000E+00  0.1875000E+00  0.6250000E-01  0.1171875E-01
   1       -0.637526     -0.638724
   2        5.509288      5.508270
   3        7.509684      7.508972
   4        7.597859      7.597115
   5        8.564154      8.563741
   6       10.490310     10.490071
   7       20.193471     20.194007
   8       21.737330     21.735044
   9       22.333072     22.331892
 
  0.3125000E+00  0.1875000E+00  0.6250000E-01  0.2343750E-01
   1        0.718148      0.716989
   2        4.835774      4.834643
   3        6.816035      6.815449
   4        8.205938      8.205278
   5        8.999937      8.999351
   6       11.283704     11.283394
   7       20.190286     20.190822
   8       21.200447     21.199634
   9       24.127021     24.124820
 
  0.4375000E+00  0.1875000E+00  0.6250000E-01  0.2343750E-01
   1        2.063300      2.062112
   2        4.968662      4.967685
   3        5.955395      5.954613
   4        7.820663      7.820116
   5       11.011858     11.011309
   6       12.842315     12.841944
   7       18.790425     18.789837
   8       20.201421     20.201944
   9       21.892332     21.890808
 
 -0.4375000E+00  0.1875000E+00  0.6250000E-01  0.2343750E-01
   1        2.438410      2.437115
   2        5.084124      5.083596
   3        6.556181      6.555038
   4        7.442292      7.441775
   5       12.308581     12.308155
   6       13.953467     13.953003
   7       16.468580     16.467973
   8       20.199551     20.200082
   9       20.877468     20.875958
 
 -0.3125000E+00  0.1875000E+00  0.6250000E-01  0.2343750E-01
   1        2.354404      2.353141
   2        5.318711      5.318080
   3        5.934917      5.933842
   4        7.542384      7.541879
   5       10.980485     10.979962
   6       13.725574     13.725189
   7       17.966677     17.966090
   8       20.200476     20.201003
   9       21.367204     21.365626
 
 -0.1875000E+00  0.1875000E+00  0.6250000E-01  0.2343750E-01
   1        1.291511      1.290326
   2        4.983756      4.982603
   3        6.415333      6.414734
   4        8.067947      8.067417
   5        9.012140      9.011559
   6       12.126888     12.126510
   7       20.166715     20.167137
   8       20.410886     20.410286
   9       23.827903     23.826299
 
 -0.6250000E-01  0.1875000E+00  0.6250000E-01  0.2343750E-01
   1       -0.280940     -0.282140
   2        5.476994      5.475944
   3        7.244871      7.244206
   4        7.617772      7.617046
   5        8.833039      8.832638
   6       10.552739     10.552433
   7       20.191451     20.191985
   8       21.003462     21.002392
   9       22.521961     22.519693
 
  0.3125000E+00  0.3125000E+00  0.6250000E-01  0.1171875E-01
   1        1.392277      1.391277
   2        4.005650      4.004454
   3        6.721020      6.720284
   4        9.264817      9.264149
   5        9.679608      9.678913
   6       11.552249     11.552031
   7       20.191890     20.192428
   8       22.590824     22.590191
   9       23.836756     23.836156
 
  0.4375000E+00  0.3125000E+00  0.6250000E-01  0.2343750E-01
   1        2.224505      2.223714
   2        3.681459      3.680227
   3        6.391728      6.390723
   4        9.852584      9.852064
   5       11.130788     11.130167
   6       12.922856     12.922483
   7       19.683054     19.682426
   8       20.213579     20.214053
   9       21.952324     21.951616
 
 -0.4375000E+00  0.3125000E+00  0.6250000E-01  0.2343750E-01
   1        2.918777      2.917949
   2        4.048456      4.047445
   3        6.180819      6.179614
   4        9.180591      9.180142
   5       12.418800     12.418298
   6       14.961753     14.961063
   7       16.102880     16.102257
   8       20.196540     20.197072
   9       21.968134     21.966943
 
 -0.3125000E+00  0.3125000E+00  0.6250000E-01  0.2343750E-01
   1        3.673675      3.672528
   2        4.258243      4.257615
   3        5.646173      5.644915
   4        8.666503      8.666109
   5       11.229926     11.229317
   6       14.083764     14.083098
   7       18.576046     18.575519
   8       20.197754     20.198279
   9       20.820039     20.819333
 
 -0.1875000E+00  0.3125000E+00  0.6250000E-01  0.2343750E-01
   1        2.847140      2.845937
   2        4.998743      4.997701
   3        5.280799      5.280051
   4        8.216978      8.216559
   5       10.011083     10.010443
   6       13.977936     13.977539
   7       18.961690     18.961064
   8       20.204727     20.205247
   9       22.725793     22.724172
 
 -0.6250000E-01  0.3125000E+00  0.6250000E-01  0.2343750E-01
   1        1.272825      1.271606
   2        5.308579      5.307486
   3        6.545321      6.544715
   4        7.401951      7.401379
   5       10.083732     10.083212
   6       11.911911     11.911536
   7       19.084501     19.083665
   8       20.197784     20.198308
   9       22.672697     22.671220
 
  0.4375000E+00  0.4375000E+00  0.6250000E-01  0.1171875E-01
   1        1.836750      1.836134
   2        3.004345      3.003065
   3        8.131085      8.129778
   4       11.466341     11.465907
   5       12.377173     12.376525
   6       12.699425     12.699113
   7       19.009191     19.008447
   8       19.918198     19.917436
   9       20.190207     20.190738
 
 -0.4375000E+00  0.4375000E+00  0.6250000E-01  0.2343750E-01
   1        2.060401      2.059837
   2        3.112867      3.111584
   3        8.140976      8.139629
   4       11.200312     11.200019
   5       13.085642     13.085122
   6       14.670641     14.669947
   7       16.733019     16.732267
   8       18.948031     18.947262
   9       20.191150     20.191667
 
 -0.3125000E+00  0.4375000E+00  0.6250000E-01  0.2343750E-01
   1        2.865161      2.864491
   2        3.911159      3.910022
   3        6.654823      6.653537
   4        9.650519      9.650149
   5       12.345704     12.345140
   6       14.718582     14.717808
   7       16.965332     16.964633
   8       20.179304     20.179809
   9       20.615285     20.614786
 
 -0.1875000E+00  0.4375000E+00  0.6250000E-01  0.2343750E-01
   1        3.111715      3.110447
   2        4.519015      4.518482
   3        6.135482      6.134274
   4        8.079388      8.078920
   5       11.824965     11.824457
   6       14.420447     14.419837
   7       16.764680     16.764138
   8       20.198739     20.199271
   9       21.997881     21.996791
 
 -0.6250000E-01  0.4375000E+00  0.6250000E-01  0.2343750E-01
   1        1.880907      1.879608
   2        5.784203      5.783644
   3        6.696947      6.695883
   4        6.978803      6.978259
   5       12.004268     12.003838
   6       13.175476     13.175104
   7       17.274845     17.274254
   8       19.951736     19.950123
   9       20.204709     20.205197
 
 -0.4375000E+00 -0.4375000E+00  0.6250000E-01  0.1171875E-01
   1        1.704389      1.703823
   2        2.793537      2.792241
   3        9.124177      9.122711
   4       12.183502     12.183309
   5       13.183126     13.182644
   6       13.575738     13.575139
   7       17.534494     17.533679
   8       18.579922     18.579098
   9       20.111406     20.110146
 
 -0.3125000E+00 -0.4375000E+00  0.6250000E-01  0.2343750E-01
   1        2.199532      2.198912
   2        3.305792      3.304527
   3        7.269610      7.268383
   4       10.729607     10.729193
   5       12.332045     12.331491
   6       13.764608     13.764073
   7       17.943060     17.942327
   8       20.128220     20.127676
   9       20.210016     20.210325
 
 -0.1875000E+00 -0.4375000E+00  0.6250000E-01  0.2343750E-01
   1        2.695892      2.694823
   2        4.439678      4.438808
   3        5.816121      5.815066
   4        8.463913      8.463403
   5       12.072548     12.072037
   6       13.705938     13.705468
   7       17.458565     17.457918
   8       20.199396     20.199926
   9       22.360894     22.359682
 
 -0.3125000E+00 -0.3125000E+00  0.6250000E-01  0.1171875E-01
   1        1.871591      1.870825
   2        3.416117      3.414870
   3        7.051698      7.050646
   4       10.362304     10.361713
   5       10.959504     10.958828
   6       12.143974     12.143744
   7       20.185480     20.186015
   8       21.047036     21.046362
   9       21.855515     21.854828
 
 -0.1875000E+00 -0.3125000E+00  0.6250000E-01  0.2343750E-01
   1        1.701317      1.700284
   2        4.209266      4.208074
   3        6.262446      6.261729
   4        8.953140      8.952547
   5        9.910664      9.910028
   6       12.105040     12.104719
   7       20.186292     20.186827
   8       21.149855     21.149252
   9       23.881287     23.873172
 
 -0.1875000E+00 -0.1875000E+00  0.6250000E-01  0.1171875E-01
   1        0.407499      0.406355
   2        4.729342      4.728223
   3        7.223829      7.223282
   4        8.325368      8.324655
   5        8.677836      8.677152
   6       10.979301     10.979073
   7       20.193037     20.193575
   8       22.429809     22.428937
   9       23.941435     23.939051
 
  0.1875000E+00  0.1875000E+00  0.1875000E+00  0.3906250E-02
   1       -0.677680     -0.678893
   2        5.841846      5.840845
   3        7.234845      7.234127
   4        7.234845      7.234127
   5        9.737607      9.737287
   6        9.737607      9.737287
   7       20.140472     20.139825
   8       20.225826     20.225629
   9       22.177226     22.175178
 
  0.3125000E+00  0.1875000E+00  0.1875000E+00  0.1171875E-01
   1        0.391838      0.390637
   2        5.311297      5.310195
   3        6.959405      6.958770
   4        7.787015      7.786359
   5        8.740513      8.740094
   6       11.162929     11.162554
   7       20.181594     20.182084
   8       20.480095     20.479243
   9       23.391663     23.389447
 
  0.4375000E+00  0.1875000E+00  0.1875000E+00  0.1171875E-01
   1        2.037824      2.036616
   2        5.070877      5.069699
   3        5.942085      5.941490
   4        7.934385      7.933959
   5        9.289552      9.288916
   6       13.169775     13.169402
   7       19.781929     19.781412
   8       20.218194     20.218649
   9       22.752152     22.750616
 
 -0.4375000E+00  0.1875000E+00  0.1875000E+00  0.1171875E-01
   1        2.697769      2.696477
   2        5.043607      5.043086
   3        6.171553      6.170371
   4        7.617369      7.616892
   5       11.320138     11.319630
   6       14.113288     14.112814
   7       17.357552     17.356988
   8       20.199663     20.200193
   9       21.602566     21.601083
 
 -0.3125000E+00  0.1875000E+00  0.1875000E+00  0.1171875E-01
   1        2.530028      2.528804
   2        4.814944      4.814316
   3        6.230245      6.229114
   4        7.800472      7.799957
   5       12.726505     12.726143
   6       13.468648     13.468076
   7       16.716081     16.715466
   8       20.199075     20.199606
   9       21.417944     21.416553
 
 -0.1875000E+00  0.1875000E+00  0.1875000E+00  0.1171875E-01
   1        1.832955      1.831859
   2        4.486742      4.485620
   3        6.136140      6.135416
   4        8.270699      8.270119
   5       10.829799     10.829168
   6       12.128409     12.128098
   7       19.866257     19.865755
   8       20.219378     20.219810
   9       22.933511     22.932084
 
  0.3125000E+00  0.3125000E+00  0.1875000E+00  0.1171875E-01
   1        0.911516      0.910333
   2        5.012104      5.010990
   3        6.715715      6.715127
   4        7.714080      7.713451
   5        9.775958      9.775381
   6       11.303326     11.303003
   7       19.938539     19.937757
   8       20.209649     20.210085
   9       23.695501     23.693835
 
  0.4375000E+00  0.3125000E+00  0.1875000E+00  0.2343750E-01
   1        2.241013      2.239908
   2        4.577824      4.576644
   3        5.718707      5.718030
   4        8.587856      8.587364
   5        9.882049      9.881421
   6       13.113400     13.113025
   7       19.867921     19.867440
   8       20.226835     20.227244
   9       23.017036     23.015669
 
 -0.4375000E+00  0.3125000E+00  0.1875000E+00  0.2343750E-01
   1        3.557999      3.556948
   2        4.487481      4.486732
   3        5.057293      5.056095
   4        8.758541      8.758108
   5       11.018672     11.018046
   6       14.390647     14.390123
   7       18.315442     18.314822
   8       20.200630     20.201157
   9       21.417235     21.416473
 
 -0.3125000E+00  0.3125000E+00  0.1875000E+00  0.2343750E-01
   1        3.534047      3.533020
   2        4.149657      4.148899
   3        5.768881      5.767653
   4        8.631409      8.630947
   5       11.972370     11.971798
   6       15.631287     15.630654
   7       15.938127     15.937532
   8       20.197338     20.197871
   9       22.039884     22.038967
 
 -0.1875000E+00  0.3125000E+00  0.1875000E+00  0.2343750E-01
   1        2.855569      2.854709
   2        4.172659      4.171475
   3        5.516426      5.515472
   4        9.301879      9.301411
   5       11.020904     11.020284
   6       13.958937     13.958499
   7       18.611964     18.611273
   8       20.202121     20.202644
   9       21.825772     21.825030
 
  0.4375000E+00  0.4375000E+00  0.1875000E+00  0.1171875E-01
   1        2.397370      2.396471
   2        3.981480      3.980366
   3        6.146075      6.145067
   4        9.021920      9.021400
   5       12.309481     12.308817
   6       12.734180     12.733863
   7       18.466872     18.466222
   8       20.200836     20.201362
   9       22.722086     22.725680
 
 -0.4375000E+00  0.4375000E+00  0.1875000E+00  0.2343750E-01
   1        2.851754      2.851131
   2        3.870113      3.868875
   3        6.117740      6.116562
   4        9.825490      9.825052
   5       12.148263     12.147675
   6       14.799617     14.799029
   7       17.431423     17.430729
   8       20.126582     20.126134
   9       20.221344     20.221552
 
 -0.3125000E+00  0.4375000E+00  0.1875000E+00  0.2343750E-01
   1        3.305225      3.304714
   2        4.542781      4.541512
   3        5.623190      5.621922
   4        8.731086      8.730611
   5       13.013561     13.013019
   6       16.219554     16.218918
   7       16.978508     16.977699
   8       18.742926     18.742189
   9       20.202959     20.203483
 
 -0.1875000E+00  0.4375000E+00  0.1875000E+00  0.2343750E-01
   1        3.564883      3.564319
   2        4.467840      4.466621
   3        5.192917      5.191690
   4        8.974467      8.974005
   5       12.086671     12.086071
   6       15.069280     15.068642
   7       17.674811     17.674167
   8       20.039905     20.039291
   9       20.216383     20.216778
 
 -0.4375000E+00 -0.4375000E+00  0.1875000E+00  0.1171875E-01
   1        2.334823      2.334205
   2        3.419205      3.417989
   3        7.578887      7.577565
   4       10.615356     10.615046
   5       12.724221     12.723709
   6       15.114958     15.114097
   7       15.882524     15.881860
   8       20.184603     20.185132
   9       20.900652     20.902466
 
 -0.3125000E+00 -0.4375000E+00  0.1875000E+00  0.2343750E-01
   1        2.687168      2.686616
   2        3.720608      3.719342
   3        6.854614      6.853334
   4        9.811425      9.811018
   5       13.028776     13.028238
   6       15.838695     15.837960
   7       16.510261     16.509554
   8       18.925421     18.924673
   9       20.200955     20.201481
 
 -0.3125000E+00 -0.3125000E+00  0.1875000E+00  0.1171875E-01
   1        2.446301      2.445598
   2        3.604088      3.602917
   3        6.851742      6.850521
   4        9.884650      9.884219
   5       12.920027     12.919643
   6       14.003103     14.002370
   7       16.703907     16.703208
   8       20.195686     20.196219
   9       21.480535     21.479767
 
  0.3125000E+00  0.3125000E+00  0.3125000E+00  0.3906250E-02
   1        0.856037      0.854795
   2        5.697903      5.696829
   3        6.993861      6.993270
   4        6.993861      6.993270
   5       10.769604     10.769186
   6       10.769604     10.769186
   7       18.280047     18.278994
   8       20.194758     20.195290
   9       22.685154     22.683739
 
  0.4375000E+00  0.3125000E+00  0.3125000E+00  0.1171875E-01
   1        1.765255      1.764004
   2        5.565450      5.564417
   3        6.231525      6.230854
   4        7.266280      7.265764
   5       10.323261     10.322742
   6       12.901241     12.900871
   7       18.657855     18.657188
   8       20.198161     20.198683
   9       21.542960     21.541389
 
 -0.4375000E+00  0.3125000E+00  0.3125000E+00  0.1171875E-01
   1        3.345094      3.343829
   2        4.741321      4.740803
   3        5.444833      5.443593
   4        8.250403      8.250014
   5       10.466714     10.466087
   6       14.160209     14.159689
   7       18.643443     18.642877
   8       20.201919     20.202445
   9       21.901625     21.900837
 
 -0.3125000E+00  0.3125000E+00  0.3125000E+00  0.1171875E-01
   1        3.212857      3.212000
   2        4.180009      4.179073
   3        6.230892      6.229614
   4        9.165157      9.164796
   5       11.708273     11.707698
   6       13.899716     13.898945
   7       18.152121     18.151493
   8       20.187690     20.188208
   9       20.683015     20.682517
 
  0.4375000E+00  0.4375000E+00  0.3125000E+00  0.1171875E-01
   1        1.900490      1.899229
   2        5.490888      5.490169
   3        6.316974      6.316024
   4        7.271745      7.271191
   5       12.028915     12.028402
   6       12.544437     12.544098
   7       17.842554     17.841946
   8       20.195830     20.196342
   9       20.718944     20.717375
 
 -0.4375000E+00  0.4375000E+00  0.3125000E+00  0.2343750E-01
   1        2.996146      2.994904
   2        4.627865      4.627303
   3        5.865592      5.864409
   4        8.097837      8.097344
   5       11.724832     11.724308
   6       14.425040     14.424549
   7       16.922698     16.922083
   8       20.199119     20.199651
   9       22.115884     22.114591
 
 -0.3125000E+00  0.4375000E+00  0.3125000E+00  0.2343750E-01
   1        3.543994      3.543401
   2        4.278268      4.277090
   3        5.682283      5.681014
   4        8.853782      8.853347
   5       12.138163     12.137569
   6       14.855921     14.855229
   7       17.731593     17.730923
   8       20.100929     20.100739
   9       20.253504     20.253586
 
 -0.4375000E+00 -0.4375000E+00  0.3125000E+00  0.1171875E-01
   1        3.032348      3.031261
   2        4.319499      4.318771
   3        6.207654      6.206433
   4        8.507417      8.506964
   5       12.313669     12.313217
   6       14.362025     14.361281
   7       16.419961     16.419425
   8       20.197761     20.198293
   9       22.027279     22.026411
 
  0.4375000E+00  0.4375000E+00  0.4375000E+00  0.3906250E-02
   1        1.435055      1.433746
   2        6.577624      6.577068
   3        6.577624      6.577068
   4        6.932423      6.931411
   5       12.309524     12.309154
   6       12.309524     12.309154
   7       17.351121     17.350360
   8       19.229489     19.227956
   9       20.204253     20.204771
 
 -0.4375000E+00  0.4375000E+00  0.4375000E+00  0.1171875E-01
   1        2.056557      2.055247
   2        5.585215      5.584685
   3        6.864831      6.863726
   4        7.025048      7.024522
   5       12.194863     12.194454
   6       13.566040     13.565636
   7       16.818867     16.818284
   8       20.028769     20.027138
   9       20.200311     20.200838
