       N       E                     dE             d eps       ncg     rms          rms(c)
DAV:   1     0.867125132663E+01    0.86713E+01   -0.22474E+03  2272   0.413E+02
DAV:   2    -0.179860138790E+01   -0.10470E+02   -0.92984E+01  2941   0.643E+01
DAV:   3    -0.198182306296E+01   -0.18322E+00   -0.18066E+00  2636   0.740E+00
DAV:   4    -0.198222475494E+01   -0.40169E-03   -0.40158E-03  2965   0.259E-01
DAV:   5    -0.198222496602E+01   -0.21108E-06   -0.20954E-06  2629   0.484E-03    0.759E+00
DAV:   6    -0.112796211619E+02   -0.92974E+01   -0.26365E+00  2449   0.556E+00    0.399E+00
DAV:   7    -0.114444758722E+02   -0.16485E+00   -0.91009E-02  2626   0.170E+00    0.343E+00
DAV:   8    -0.115865374990E+02   -0.14206E+00   -0.56948E-01  2337   0.413E+00    0.123E+00
DAV:   9    -0.115782527586E+02    0.82847E-02   -0.44216E-02  2423   0.146E+00    0.199E-01
DAV:  10    -0.115777708796E+02    0.48188E-03   -0.13246E-03  2475   0.202E-01    0.154E-01
DAV:  11    -0.115774524652E+02    0.31841E-03   -0.78838E-04  2466   0.142E-01    0.932E-02
DAV:  12    -0.115773248312E+02    0.12763E-03   -0.22063E-04  2298   0.998E-02    0.307E-02
DAV:  13    -0.115773341476E+02   -0.93164E-05   -0.26841E-05  1159   0.293E-02
   1 F= -.11577334E+02 E0= -.11577458E+02  d E =0.370713E-03  mag=     0.0030
