 vasp.5.2.12 11Nov11 complex                                                    
  
 executed on             LinuxIFC date 2012.10.17  11:07:02
 running on    1 nodes
 distr:  one band on    1 nodes,    1 groups


--------------------------------------------------------------------------------------------------------


 INCAR:
 POTCAR:    PAW_PBE Ta 17Jan2003                  
 POTCAR:    PAW_PBE Ta 17Jan2003                  
   VRHFIN =Ta:  6s5d                                                            
   LEXCH  = PE                                                                  
   EATOM  =   130.6506 eV,    9.6025 Ry                                         
                                                                                
   TITEL  = PAW_PBE Ta 17Jan2003                                                
   LULTRA =        F    use ultrasoft PP ?                                      
   IUNSCR =        1    unscreen: 0-lin 1-nonlin 2-no                           
   RPACOR =    2.330    partial core radius                                     
   POMASS =  180.948; ZVAL   =    5.000    mass and valenz                      
   RCORE  =    2.900    outmost cutoff radius                                   
   RWIGS  =    2.840; RWIGS  =    1.503    wigner-seitz radius (au A)           
   ENMAX  =  223.667; ENMIN  =  167.750 eV                                      
   RCLOC  =    2.205    cutoff for local pot                                    
   LCOR   =        T    correct aug charges                                     
   LPAW   =        T    paw PP                                                  
   EAUG   =  332.075                                                            
   DEXC   =    -.049                                                            
   RMAX   =    3.083    core radius for proj-oper                               
   RAUG   =    1.300    factor for augmentation sphere                          
   RDEP   =    3.060    radius for radial grids                                 
   QCUT   =   -4.055; QGAM   =    8.109    optimization parameters              
                                                                                
   Description                                                                  
     l     E      TYP  RCUT    TYP  RCUT                                        
     2   .000     23  2.500                                                     
     2   .000     23  2.500                                                     
     0   .000     23  2.500                                                     
     0   .000     23  2.500                                                     
     1   .000     23  2.900                                                     
     1  2.000     23  2.900                                                     
     3   .000      7   .000                                                     
  local pseudopotential read in
  partial core-charges read in
  atomic valenz-charges read in
  non local Contribution for L=           2  read in
    real space projection operators read in
  non local Contribution for L=           2  read in
    real space projection operators read in
  non local Contribution for L=           0  read in
    real space projection operators read in
  non local Contribution for L=           0  read in
    real space projection operators read in
  non local Contribution for L=           1  read in
    real space projection operators read in
  non local Contribution for L=           1  read in
    real space projection operators read in
    PAW grid and wavefunctions read in
 
   number of l-projection  operators is LMAX  =           6
   number of lm-projection operators is LMMAX =          18
 
  PAW_PBE Ta 17Jan2003                  :
 energy of atom  1       EATOM= -130.6506
 kinetic energy error for atom=    0.0018 (will be added to EATOM!!)
 
 
 POSCAR: Ta                                      
  positions in cartesian coordinates
  No initial velocities read in
 exchange correlation table for  LEXCH =        8
   RHO(1)=    0.500       N(1)  =     2000
   RHO(2)=  100.500       N(2)  =     4000
 


--------------------------------------------------------------------------------------------------------


 ion  position               nearest neighbor table
   1  0.000  0.000  0.000-
 
  LATTYP: Found a face centered cubic cell.
 ALAT       =     4.1300000000
  
  Lattice vectors:
  
 A1 = (   0.0000000000,   2.0650000000,   2.0650000000)
 A2 = (   2.0650000000,   0.0000000000,   2.0650000000)
 A3 = (   2.0650000000,   2.0650000000,   0.0000000000)
 Subroutine PRICEL returns:
 Original cell was already a primitive cell.
 

Analysis of symmetry for initial positions (statically):

 Routine SETGRP: Setting up the symmetry group for a 
 face centered cubic supercell.


 Subroutine GETGRP returns: Found 48 space group operations
 (whereof 48 operations were pure point group operations)
 out of a pool of 48 trial point group operations.


The static configuration has the point symmetry O_h .

Analysis of symmetry for dynamics (positions and initial velocities):

 Subroutine DYNSYM returns: Found 48 space group operations
 (whereof 48 operations were pure point group operations)
 out of a pool of 48 trial space group operations
 (whereof 48 operations were pure point group operations)
 and found also     1 'primitive' translations


The dynamic configuration has the point symmetry O_h .

Analysis of magnetic symmetry:

 Subroutine MAGSYM returns: Found 48 space group operations
 (whereof 48 operations were pure point group operations)
 out of a pool of 48 trial space group operations
 (whereof 48 operations were pure point group operations)
 and found also     1 'primitive' translations


The magnetic configuration has the point symmetry O_h .
 
 
 KPOINTS: KPOINTS created by Atomic Simulation Env

Automatic generation of k-mesh.
 
 Subroutine IBZKPT returns following result:
 ===========================================
 
 Found     60 irreducible k-points:
 
 Following reciprocal coordinates:
            Coordinates               Weight
  0.062500  0.062500  0.062500     96.000000
  0.187500  0.062500  0.062500    288.000000
  0.312500  0.062500  0.062500    288.000000
  0.437500  0.062500  0.062500    288.000000
 -0.437500  0.062500  0.062500    288.000000
 -0.312500  0.062500  0.062500    288.000000
 -0.187500  0.062500  0.062500    288.000000
 -0.062500  0.062500  0.062500    288.000000
  0.187500  0.187500  0.062500    288.000000
  0.312500  0.187500  0.062500    576.000000
  0.437500  0.187500  0.062500    576.000000
 -0.437500  0.187500  0.062500    576.000000
 -0.312500  0.187500  0.062500    576.000000
 -0.187500  0.187500  0.062500    576.000000
 -0.062500  0.187500  0.062500    576.000000
  0.312500  0.312500  0.062500    288.000000
  0.437500  0.312500  0.062500    576.000000
 -0.437500  0.312500  0.062500    576.000000
 -0.312500  0.312500  0.062500    576.000000
 -0.187500  0.312500  0.062500    576.000000
 -0.062500  0.312500  0.062500    576.000000
  0.437500  0.437500  0.062500    288.000000
 -0.437500  0.437500  0.062500    576.000000
 -0.312500  0.437500  0.062500    576.000000
 -0.187500  0.437500  0.062500    576.000000
 -0.062500  0.437500  0.062500    576.000000
 -0.437500 -0.437500  0.062500    288.000000
 -0.312500 -0.437500  0.062500    576.000000
 -0.187500 -0.437500  0.062500    576.000000
 -0.312500 -0.312500  0.062500    288.000000
 -0.187500 -0.312500  0.062500    576.000000
 -0.187500 -0.187500  0.062500    288.000000
  0.187500  0.187500  0.187500     96.000000
  0.312500  0.187500  0.187500    288.000000
  0.437500  0.187500  0.187500    288.000000
 -0.437500  0.187500  0.187500    288.000000
 -0.312500  0.187500  0.187500    288.000000
 -0.187500  0.187500  0.187500    288.000000
  0.312500  0.312500  0.187500    288.000000
  0.437500  0.312500  0.187500    576.000000
 -0.437500  0.312500  0.187500    576.000000
 -0.312500  0.312500  0.187500    576.000000
 -0.187500  0.312500  0.187500    576.000000
  0.437500  0.437500  0.187500    288.000000
 -0.437500  0.437500  0.187500    576.000000
 -0.312500  0.437500  0.187500    576.000000
 -0.187500  0.437500  0.187500    576.000000
 -0.437500 -0.437500  0.187500    288.000000
 -0.312500 -0.437500  0.187500    576.000000
 -0.312500 -0.312500  0.187500    288.000000
  0.312500  0.312500  0.312500     96.000000
  0.437500  0.312500  0.312500    288.000000
 -0.437500  0.312500  0.312500    288.000000
 -0.312500  0.312500  0.312500    288.000000
  0.437500  0.437500  0.312500    288.000000
 -0.437500  0.437500  0.312500    576.000000
 -0.312500  0.437500  0.312500    576.000000
 -0.437500 -0.437500  0.312500    288.000000
  0.437500  0.437500  0.437500     96.000000
 -0.437500  0.437500  0.437500    288.000000
 
 Following cartesian coordinates:
            Coordinates               Weight
  0.015133  0.015133  0.015133     96.000000
 -0.015133  0.045400  0.045400    288.000000
 -0.045400  0.075666  0.075666    288.000000
 -0.075666  0.105932  0.105932    288.000000
  0.136199 -0.105932 -0.105932    288.000000
  0.105932 -0.075666 -0.075666    288.000000
  0.075666 -0.045400 -0.045400    288.000000
  0.045400 -0.015133 -0.015133    288.000000
  0.015133  0.015133  0.075666    288.000000
 -0.015133  0.045400  0.105932    576.000000
 -0.045400  0.075666  0.136199    576.000000
  0.166465 -0.136199 -0.075666    576.000000
  0.136199 -0.105932 -0.045400    576.000000
  0.105932 -0.075666 -0.015133    576.000000
  0.075666 -0.045400  0.015133    576.000000
  0.015133  0.015133  0.136199    288.000000
 -0.015133  0.045400  0.166465    576.000000
  0.196731 -0.166465 -0.045400    576.000000
  0.166465 -0.136199 -0.015133    576.000000
  0.136199 -0.105932  0.015133    576.000000
  0.105932 -0.075666  0.045400    576.000000
  0.015133  0.015133  0.196731    288.000000
  0.226998 -0.196731 -0.015133    576.000000
  0.196731 -0.166465  0.015133    576.000000
  0.166465 -0.136199  0.045400    576.000000
  0.136199 -0.105932  0.075666    576.000000
  0.015133  0.015133 -0.226998    288.000000
 -0.015133  0.045400 -0.196731    576.000000
 -0.045400  0.075666 -0.166465    576.000000
  0.015133  0.015133 -0.166465    288.000000
 -0.015133  0.045400 -0.136199    576.000000
  0.015133  0.015133 -0.105932    288.000000
  0.045400  0.045400  0.045400     96.000000
  0.015133  0.075666  0.075666    288.000000
 -0.015133  0.105932  0.105932    288.000000
  0.196731 -0.105932 -0.105932    288.000000
  0.166465 -0.075666 -0.075666    288.000000
  0.136199 -0.045400 -0.045400    288.000000
  0.045400  0.045400  0.105932    288.000000
  0.015133  0.075666  0.136199    576.000000
  0.226998 -0.136199 -0.075666    576.000000
  0.196731 -0.105932 -0.045400    576.000000
  0.166465 -0.075666 -0.015133    576.000000
  0.045400  0.045400  0.166465    288.000000
  0.257264 -0.166465 -0.045400    576.000000
  0.226998 -0.136199 -0.015133    576.000000
  0.196731 -0.105932  0.015133    576.000000
  0.045400  0.045400 -0.257264    288.000000
  0.015133  0.075666 -0.226998    576.000000
  0.045400  0.045400 -0.196731    288.000000
  0.075666  0.075666  0.075666     96.000000
  0.045400  0.105932  0.105932    288.000000
  0.257264 -0.105932 -0.105932    288.000000
  0.226998 -0.075666 -0.075666    288.000000
  0.075666  0.075666  0.136199    288.000000
  0.287530 -0.136199 -0.075666    576.000000
  0.257264 -0.105932 -0.045400    576.000000
  0.075666  0.075666 -0.287530    288.000000
  0.105932  0.105932  0.105932     96.000000
  0.317797 -0.105932 -0.105932    288.000000
 


--------------------------------------------------------------------------------------------------------




 Dimension of arrays:
   k-points           NKPTS =     60   k-points in BZ     NKDIM =     60   number of bands    NBANDS=      9
   number of dos      NEDOS =    301   number of ions     NIONS =      1
   non local maximal  LDIM  =      6   non local SUM 2l+1 LMDIM =     18
   total plane-waves  NPLWV =   8000
   max r-space proj   IRMAX =      1   max aug-charges    IRDMAX=  31118
   dimension x,y,z NGX =    20 NGY =   20 NGZ =   20
   dimension x,y,z NGXF=    40 NGYF=   40 NGZF=   40
   support grid    NGXF=    40 NGYF=   40 NGZF=   40
   ions per type =               1
 NGX,Y,Z   is equivalent  to a cutoff of  11.39, 11.39, 11.39 a.u.
 NGXF,Y,Z  is equivalent  to a cutoff of  22.77, 22.77, 22.77 a.u.


 I would recommend the setting:
   dimension x,y,z NGX =    19 NGY =   19 NGZ =   19
 SYSTEM =  unknown system                          
 POSCAR =  Ta                                      

 Startparameter for this run:
   NWRITE =      2    write-flag & timer
   PREC   = accura    normal or accurate (medium, high low for compatibility)
   ISTART =      0    job   : 0-new  1-cont  2-samecut
   ICHARG =      2    charge: 1-file 2-atom 10-const
   ISPIN  =      2    spin polarized calculation?
   LNONCOLLINEAR =      F non collinear calculations
   LSORBIT =      F    spin-orbit coupling
   INIWAV =      1    electr: 0-lowe 1-rand  2-diag
   LASPH  =      F    aspherical Exc in radial PAW
   METAGGA=      F    non-selfconsistent MetaGGA calc.

 Electronic Relaxation 1
   ENCUT  =  400.0 eV  29.40 Ry    5.42 a.u.   4.76  4.76  4.76*2*pi/ulx,y,z
   ENINI  =  400.0     initial cutoff
   ENAUG  =  332.1 eV  augmentation charge cutoff
   NELM   =     60;   NELMIN=  2; NELMDL= -5     # of ELM steps 
   EDIFF  = 0.1E-03   stopping-criterion for ELM
   LREAL  =      F    real-space projection
   NLSPLINE    = F    spline interpolate recip. space projectors
   LCOMPAT=      F    compatible to vasp.4.4
   GGA_COMPAT  = T    GGA compatible to vasp.4.4-vasp.4.6
   LMAXPAW     = -100 max onsite density
   LMAXMIX     =    2 max onsite mixed and CHGCAR
   VOSKOWN=      0    Vosko Wilk Nusair interpolation
   ROPT   =    0.00000
 Ionic relaxation
   EDIFFG = 0.1E-02   stopping-criterion for IOM
   NSW    =      0    number of steps for IOM
   NBLOCK =      1;   KBLOCK =      1    inner block; outer block 
   IBRION =     -1    ionic relax: 0-MD 1-quasi-New 2-CG
   NFREE  =      0    steps in history (QN), initial steepest desc. (CG)
   ISIF   =      2    stress and relaxation
   IWAVPR =     10    prediction:  0-non 1-charg 2-wave 3-comb
   ISYM   =      2    0-nonsym 1-usesym 2-fastsym
   LCORR  =      T    Harris-Foulkes like correction to forces

   POTIM  = 0.5000    time-step for ionic-motion
   TEIN   =    0.0    initial temperature
   TEBEG  =    0.0;   TEEND  =   0.0 temperature during run
   SMASS  =  -3.00    Nose mass-parameter (am)
   estimated Nose-frequenzy (Omega)   =  0.10E-29 period in steps =****** mass=  -0.195E-27a.u.
   SCALEE = 1.0000    scale energy and forces
   NPACO  =    256;   APACO  = 16.0  distance and # of slots for P.C.
   PSTRESS=    0.0 pullay stress

  Mass of Ions in am
   POMASS = 180.95
  Ionic Valenz
   ZVAL   =   5.00
  Atomic Wigner-Seitz radii
   RWIGS  =  -1.00
  virtual crystal weights 
   VCA    =   1.00
   NELECT =       5.0000    total number of electrons
   NUPDOWN=      -1.0000    fix difference up-down

 DOS related values:
   EMIN   =  10.00;   EMAX   =-10.00  energy-range for DOS
   EFERMI =   0.00
   ISMEAR =     1;   SIGMA  =   0.05  broadening in eV -4-tet -1-fermi 0-gaus

 Electronic relaxation 2 (details)
   IALGO  =     38    algorithm
   LDIAG  =      T    sub-space diagonalisation (order eigenvalues)
   LSUBROT=      T    optimize rotation matrix (better conditioning)
   TURBO    =      0    0=normal 1=particle mesh
   IRESTART =      0    0=no restart 2=restart with 2 vectors
   NREBOOT  =      0    no. of reboots
   NMIN     =      0    reboot dimension
   EREF     =   0.00    reference energy to select bands
   IMIX   =      4    mixing-type and parameters
     AMIX     =   0.40;   BMIX     =  1.00
     AMIX_MAG =   1.60;   BMIX_MAG =  1.00
     AMIN     =   0.10
     WC   =   100.;   INIMIX=   1;  MIXPRE=   1

 Intra band minimization:
   WEIMIN = 0.0000     energy-eigenvalue tresh-hold
   EBREAK =  0.28E-05  absolut break condition
   DEPER  =   0.30     relativ break condition  

   TIME   =   0.40     timestep for ELM

  volume/ion in A,a.u.               =      17.61       118.85
  Fermi-wavevector in a.u.,A,eV,Ry     =   1.075973  2.033294 15.751713  1.157718
  Thomas-Fermi vector in A             =   2.211845
 
 Write flags
   LWAVE  =      T    write WAVECAR
   LCHARG =      T    write CHGCAR
   LVTOT  =      F    write LOCPOT, total local potential
   LVHAR  =      F    write LOCPOT, Hartree potential only
   LELF   =      F    write electronic localiz. function (ELF)
   LORBIT =     11    0 simple, 1 ext, 2 COOP (PROOUT)


 Dipole corrections
   LMONO  =      F    monopole corrections only (constant potential shift)
   LDIPOL =      F    correct potential (dipole corrections)
   IDIPOL =      0    1-x, 2-y, 3-z, 4-all directions 
   EPSILON=  1.0000000 bulk dielectric constant

 Exchange correlation treatment:
   GGA     =    --    GGA type
   LEXCH   =     8    internal setting for exchange type
   VOSKOWN=      0    Vosko Wilk Nusair interpolation
   LHFCALC =     F    Hartree Fock is set to
   LHFONE  =     F    Hartree Fock one center treatment
   AEXX    =    0.0000 exact exchange contribution

 Linear response parameters
   LEPSILON=     F    determine dielectric tensor
   LRPA    =     F    only Hartree local field effects (RPA)
   LNABLA  =     F    use nabla operator in PAW spheres
   LVEL    =     F    velocity operator in full k-point grid
   LINTERFAST=   F  fast interpolation
   KINTER  =     0    interpolate to denser k-point grid
   CSHIFT  =0.1000    complex shift for real part using Kramers Kronig
   OMEGAMAX=  -1.0    maximum frequency
   RTIME   =    0.100 relaxation time in fs

 Orbital magnetization related:
   ORBITALMAG=     F  switch on orbital magnetization
   LCHIMAG   =     F  perturbation theory with respect to B field
   DQ        =  0.001000  dq finite difference perturbation B field



--------------------------------------------------------------------------------------------------------


 Static calculation
 charge density and potential will be updated during run
 spin polarized calculation
 Variant of blocked Davidson
 Davidson routine will perform the subspace rotation
 perform sub-space diagonalisation
    after iterative eigenvector-optimisation
 modified Broyden-mixing scheme, WC =      100.0
 initial mixing is a Kerker type mixing with AMIX =  0.4000 and BMIX =      1.0000
 Hartree-type preconditioning will be used
 using additional bands            6
 reciprocal scheme for non local part
 use partial core corrections
 calculate Harris-corrections to forces 
   (improved forces if not selfconsistent)
 use gradient corrections 
 use of overlap-Matrix (Vanderbilt PP)
 Methfessel and Paxton  Order N= 1 SIGMA  =   0.05


--------------------------------------------------------------------------------------------------------


  energy-cutoff  :      400.00
  volume of cell :       17.61
      direct lattice vectors                 reciprocal lattice vectors
     0.000000000  2.065000000  2.065000000    -0.242130751  0.242130751  0.242130751
     2.065000000  0.000000000  2.065000000     0.242130751 -0.242130751  0.242130751
     2.065000000  2.065000000  0.000000000     0.242130751  0.242130751 -0.242130751

  length of vectors
     2.920351006  2.920351006  2.920351006     0.419382762  0.419382762  0.419382762


 
 k-points in units of 2pi/SCALE and weight: KPOINTS created by Atomic Simulation Env
   0.01513317  0.01513317  0.01513317       0.004
  -0.01513317  0.04539952  0.04539952       0.012
  -0.04539952  0.07566586  0.07566586       0.012
  -0.07566586  0.10593220  0.10593220       0.012
   0.13619855 -0.10593220 -0.10593220       0.012
   0.10593220 -0.07566586 -0.07566586       0.012
   0.07566586 -0.04539952 -0.04539952       0.012
   0.04539952 -0.01513317 -0.01513317       0.012
   0.01513317  0.01513317  0.07566586       0.012
  -0.01513317  0.04539952  0.10593220       0.023
  -0.04539952  0.07566586  0.13619855       0.023
   0.16646489 -0.13619855 -0.07566586       0.023
   0.13619855 -0.10593220 -0.04539952       0.023
   0.10593220 -0.07566586 -0.01513317       0.023
   0.07566586 -0.04539952  0.01513317       0.023
   0.01513317  0.01513317  0.13619855       0.012
  -0.01513317  0.04539952  0.16646489       0.023
   0.19673123 -0.16646489 -0.04539952       0.023
   0.16646489 -0.13619855 -0.01513317       0.023
   0.13619855 -0.10593220  0.01513317       0.023
   0.10593220 -0.07566586  0.04539952       0.023
   0.01513317  0.01513317  0.19673123       0.012
   0.22699758 -0.19673123 -0.01513317       0.023
   0.19673123 -0.16646489  0.01513317       0.023
   0.16646489 -0.13619855  0.04539952       0.023
   0.13619855 -0.10593220  0.07566586       0.023
   0.01513317  0.01513317 -0.22699758       0.012
  -0.01513317  0.04539952 -0.19673123       0.023
  -0.04539952  0.07566586 -0.16646489       0.023
   0.01513317  0.01513317 -0.16646489       0.012
  -0.01513317  0.04539952 -0.13619855       0.023
   0.01513317  0.01513317 -0.10593220       0.012
   0.04539952  0.04539952  0.04539952       0.004
   0.01513317  0.07566586  0.07566586       0.012
  -0.01513317  0.10593220  0.10593220       0.012
   0.19673123 -0.10593220 -0.10593220       0.012
   0.16646489 -0.07566586 -0.07566586       0.012
   0.13619855 -0.04539952 -0.04539952       0.012
   0.04539952  0.04539952  0.10593220       0.012
   0.01513317  0.07566586  0.13619855       0.023
   0.22699758 -0.13619855 -0.07566586       0.023
   0.19673123 -0.10593220 -0.04539952       0.023
   0.16646489 -0.07566586 -0.01513317       0.023
   0.04539952  0.04539952  0.16646489       0.012
   0.25726392 -0.16646489 -0.04539952       0.023
   0.22699758 -0.13619855 -0.01513317       0.023
   0.19673123 -0.10593220  0.01513317       0.023
   0.04539952  0.04539952 -0.25726392       0.012
   0.01513317  0.07566586 -0.22699758       0.023
   0.04539952  0.04539952 -0.19673123       0.012
   0.07566586  0.07566586  0.07566586       0.004
   0.04539952  0.10593220  0.10593220       0.012
   0.25726392 -0.10593220 -0.10593220       0.012
   0.22699758 -0.07566586 -0.07566586       0.012
   0.07566586  0.07566586  0.13619855       0.012
   0.28753027 -0.13619855 -0.07566586       0.023
   0.25726392 -0.10593220 -0.04539952       0.023
   0.07566586  0.07566586 -0.28753027       0.012
   0.10593220  0.10593220  0.10593220       0.004
   0.31779661 -0.10593220 -0.10593220       0.012
 
 k-points in reciprocal lattice and weights: KPOINTS created by Atomic Simulation Env
   0.06250000  0.06250000  0.06250000       0.004
   0.18750000  0.06250000  0.06250000       0.012
   0.31250000  0.06250000  0.06250000       0.012
   0.43750000  0.06250000  0.06250000       0.012
  -0.43750000  0.06250000  0.06250000       0.012
  -0.31250000  0.06250000  0.06250000       0.012
  -0.18750000  0.06250000  0.06250000       0.012
  -0.06250000  0.06250000  0.06250000       0.012
   0.18750000  0.18750000  0.06250000       0.012
   0.31250000  0.18750000  0.06250000       0.023
   0.43750000  0.18750000  0.06250000       0.023
  -0.43750000  0.18750000  0.06250000       0.023
  -0.31250000  0.18750000  0.06250000       0.023
  -0.18750000  0.18750000  0.06250000       0.023
  -0.06250000  0.18750000  0.06250000       0.023
   0.31250000  0.31250000  0.06250000       0.012
   0.43750000  0.31250000  0.06250000       0.023
  -0.43750000  0.31250000  0.06250000       0.023
  -0.31250000  0.31250000  0.06250000       0.023
  -0.18750000  0.31250000  0.06250000       0.023
  -0.06250000  0.31250000  0.06250000       0.023
   0.43750000  0.43750000  0.06250000       0.012
  -0.43750000  0.43750000  0.06250000       0.023
  -0.31250000  0.43750000  0.06250000       0.023
  -0.18750000  0.43750000  0.06250000       0.023
  -0.06250000  0.43750000  0.06250000       0.023
  -0.43750000 -0.43750000  0.06250000       0.012
  -0.31250000 -0.43750000  0.06250000       0.023
  -0.18750000 -0.43750000  0.06250000       0.023
  -0.31250000 -0.31250000  0.06250000       0.012
  -0.18750000 -0.31250000  0.06250000       0.023
  -0.18750000 -0.18750000  0.06250000       0.012
   0.18750000  0.18750000  0.18750000       0.004
   0.31250000  0.18750000  0.18750000       0.012
   0.43750000  0.18750000  0.18750000       0.012
  -0.43750000  0.18750000  0.18750000       0.012
  -0.31250000  0.18750000  0.18750000       0.012
  -0.18750000  0.18750000  0.18750000       0.012
   0.31250000  0.31250000  0.18750000       0.012
   0.43750000  0.31250000  0.18750000       0.023
  -0.43750000  0.31250000  0.18750000       0.023
  -0.31250000  0.31250000  0.18750000       0.023
  -0.18750000  0.31250000  0.18750000       0.023
   0.43750000  0.43750000  0.18750000       0.012
  -0.43750000  0.43750000  0.18750000       0.023
  -0.31250000  0.43750000  0.18750000       0.023
  -0.18750000  0.43750000  0.18750000       0.023
  -0.43750000 -0.43750000  0.18750000       0.012
  -0.31250000 -0.43750000  0.18750000       0.023
  -0.31250000 -0.31250000  0.18750000       0.012
   0.31250000  0.31250000  0.31250000       0.004
   0.43750000  0.31250000  0.31250000       0.012
  -0.43750000  0.31250000  0.31250000       0.012
  -0.31250000  0.31250000  0.31250000       0.012
   0.43750000  0.43750000  0.31250000       0.012
  -0.43750000  0.43750000  0.31250000       0.023
  -0.31250000  0.43750000  0.31250000       0.023
  -0.43750000 -0.43750000  0.31250000       0.012
   0.43750000  0.43750000  0.43750000       0.004
  -0.43750000  0.43750000  0.43750000       0.012
 
 position of ions in fractional coordinates (direct lattice) 
   0.00000000  0.00000000  0.00000000
 
 position of ions in cartesian coordinates  (Angst):
   0.00000000  0.00000000  0.00000000
 


--------------------------------------------------------------------------------------------------------


 k-point  1 :  0.06250.06250.0625  plane waves:     331
 k-point  2 :  0.18750.06250.0625  plane waves:     320
 k-point  3 :  0.31250.06250.0625  plane waves:     317
 k-point  4 :  0.43750.06250.0625  plane waves:     323
 k-point  5 :  -.43750.06250.0625  plane waves:     325
 k-point  6 :  -.31250.06250.0625  plane waves:     321
 k-point  7 :  -.18750.06250.0625  plane waves:     315
 k-point  8 :  -.06250.06250.0625  plane waves:     324
 k-point  9 :  0.18750.18750.0625  plane waves:     318
 k-point 10 :  0.31250.18750.0625  plane waves:     319
 k-point 11 :  0.43750.18750.0625  plane waves:     321
 k-point 12 :  -.43750.18750.0625  plane waves:     317
 k-point 13 :  -.31250.18750.0625  plane waves:     319
 k-point 14 :  -.18750.18750.0625  plane waves:     317
 k-point 15 :  -.06250.18750.0625  plane waves:     316
 k-point 16 :  0.31250.31250.0625  plane waves:     317
 k-point 17 :  0.43750.31250.0625  plane waves:     321
 k-point 18 :  -.43750.31250.0625  plane waves:     320
 k-point 19 :  -.31250.31250.0625  plane waves:     320
 k-point 20 :  -.18750.31250.0625  plane waves:     319
 k-point 21 :  -.06250.31250.0625  plane waves:     318
 k-point 22 :  0.43750.43750.0625  plane waves:     322
 k-point 23 :  -.43750.43750.0625  plane waves:     319
 k-point 24 :  -.31250.43750.0625  plane waves:     319
 k-point 25 :  -.18750.43750.0625  plane waves:     318
 k-point 26 :  -.06250.43750.0625  plane waves:     324
 k-point 27 :  -.4375-.43750.0625  plane waves:     320
 k-point 28 :  -.3125-.43750.0625  plane waves:     322
 k-point 29 :  -.1875-.43750.0625  plane waves:     322
 k-point 30 :  -.3125-.31250.0625  plane waves:     323
 k-point 31 :  -.1875-.31250.0625  plane waves:     321
 k-point 32 :  -.1875-.18750.0625  plane waves:     316
 k-point 33 :  0.18750.18750.1875  plane waves:     320
 k-point 34 :  0.31250.18750.1875  plane waves:     319
 k-point 35 :  0.43750.18750.1875  plane waves:     317
 k-point 36 :  -.43750.18750.1875  plane waves:     324
 k-point 37 :  -.31250.18750.1875  plane waves:     321
 k-point 38 :  -.18750.18750.1875  plane waves:     322
 k-point 39 :  0.31250.31250.1875  plane waves:     319
 k-point 40 :  0.43750.31250.1875  plane waves:     318
 k-point 41 :  -.43750.31250.1875  plane waves:     322
 k-point 42 :  -.31250.31250.1875  plane waves:     317
 k-point 43 :  -.18750.31250.1875  plane waves:     323
 k-point 44 :  0.43750.43750.1875  plane waves:     320
 k-point 45 :  -.43750.43750.1875  plane waves:     320
 k-point 46 :  -.31250.43750.1875  plane waves:     319
 k-point 47 :  -.18750.43750.1875  plane waves:     321
 k-point 48 :  -.4375-.43750.1875  plane waves:     322
 k-point 49 :  -.3125-.43750.1875  plane waves:     321
 k-point 50 :  -.3125-.31250.1875  plane waves:     322
 k-point 51 :  0.31250.31250.3125  plane waves:     314
 k-point 52 :  0.43750.31250.3125  plane waves:     319
 k-point 53 :  -.43750.31250.3125  plane waves:     319
 k-point 54 :  -.31250.31250.3125  plane waves:     319
 k-point 55 :  0.43750.43750.3125  plane waves:     319
 k-point 56 :  -.43750.43750.3125  plane waves:     321
 k-point 57 :  -.31250.43750.3125  plane waves:     321
 k-point 58 :  -.4375-.43750.3125  plane waves:     318
 k-point 59 :  0.43750.43750.4375  plane waves:     323
 k-point 60 :  -.43750.43750.4375  plane waves:     323

 maximum and minimum number of plane-waves per node :       331      314

 maximum number of plane-waves:       331
 maximum index in each direction: 
   IXMAX=    5   IYMAX=    5   IZMAX=    4
   IXMIN=   -5   IYMIN=   -5   IZMIN=   -5

 WARNING: aliasing errors must be expected set NGX to  22 to avoid them
 WARNING: aliasing errors must be expected set NGY to  22 to avoid them
 NGZ is ok and might be reduce to  20
 aliasing errors are usually negligible using standard VASP settings
 and one can safely disregard these warnings

 serial   3D FFT for wavefunctions
 parallel 3D FFT for charge:
    minimum data exchange during FFTs selected (reduces bandwidth)


 total amount of memory used by VASP on root node    46650. kBytes
========================================================================

   base      :      30000. kBytes
   nonl-proj :       2865. kBytes
   fftplans  :       2284. kBytes
   grid      :       5440. kBytes
   one-center:         31. kBytes
   wavefun   :       6030. kBytes
 
 Broyden mixing: mesh for mixing (old mesh)
   NGX =  9   NGY =  9   NGZ =  9
  (NGX  = 40   NGY  = 40   NGZ  = 40)
  gives a total of    729 points

 initial charge density was supplied:
 charge density of overlapping atoms calculated
 number of electron       5.0000000 magnetization       6.0000000
 keeping initial charge density in first step


--------------------------------------------------------------------------------------------------------


 Maximum index for augmentation-charges        29853 (set IRDMAX)


--------------------------------------------------------------------------------------------------------


 First call to EWALD:  gamma=   0.681
 Maximum number of real-space cells 3x 3x 3
 Maximum number of reciprocal cells 3x 3x 3

    FEWALD:  cpu time    0.00: real time    0.00


----------------------------------------- Iteration    1(   1)  ---------------------------------------


    POTLOK:  cpu time    0.20: real time    0.20
    SETDIJ:  cpu time    0.04: real time    0.04
     EDDAV:  cpu time    3.03: real time    3.03
       DOS:  cpu time    0.01: real time    0.01
    --------------------------------------------
      LOOP:  cpu time    3.29: real time    3.29

 eigenvalue-minimisations  :  2272
 total energy-change (2. order) : 0.8671251E+01  (-0.2247443E+03)
 number of electron       5.0000000 magnetization       6.0000000
 augmentation part        5.0000000 magnetization       6.0000000

 Free energy of the ion-electron system (eV)
  ---------------------------------------------------
  alpha Z        PSCENC =        31.48826594
  Ewald energy   TEWEN  =      -199.82154373
  -1/2 Hartree   DENC   =        -2.37721154
  -exchange  EXHF       =         0.00000000
  -V(xc)+E(xc)   XCENC  =       -60.68095016
  PAW double counting   =       143.51874798      -69.33493833
  entropy T*S    EENTRO =         0.00016144
  eigenvalues    EBANDS =        35.22987835
  atomic energy  EATOM  =       130.64884137
  ---------------------------------------------------
  free energy    TOTEN  =         8.67125133 eV

  energy without entropy =        8.67108989  energy(sigma->0) =        8.67119751


--------------------------------------------------------------------------------------------------------




----------------------------------------- Iteration    1(   2)  ---------------------------------------


     EDDAV:  cpu time    3.69: real time    3.69
       DOS:  cpu time    0.01: real time    0.01
    --------------------------------------------
      LOOP:  cpu time    3.69: real time    3.70

 eigenvalue-minimisations  :  2941
 total energy-change (2. order) :-0.1046985E+02  (-0.9298436E+01)
 number of electron       5.0000000 magnetization       6.0000000
 augmentation part        5.0000000 magnetization       6.0000000

 Free energy of the ion-electron system (eV)
  ---------------------------------------------------
  alpha Z        PSCENC =        31.48826594
  Ewald energy   TEWEN  =      -199.82154373
  -1/2 Hartree   DENC   =        -2.37721154
  -exchange  EXHF       =         0.00000000
  -V(xc)+E(xc)   XCENC  =       -60.68095016
  PAW double counting   =       143.51874798      -69.33493833
  entropy T*S    EENTRO =         0.00023819
  eigenvalues    EBANDS =        24.75994888
  atomic energy  EATOM  =       130.64884137
  ---------------------------------------------------
  free energy    TOTEN  =        -1.79860139 eV

  energy without entropy =       -1.79883958  energy(sigma->0) =       -1.79868078


--------------------------------------------------------------------------------------------------------




----------------------------------------- Iteration    1(   3)  ---------------------------------------


     EDDAV:  cpu time    3.29: real time    3.29
       DOS:  cpu time    0.01: real time    0.01
    --------------------------------------------
      LOOP:  cpu time    3.30: real time    3.31

 eigenvalue-minimisations  :  2636
 total energy-change (2. order) :-0.1832217E+00  (-0.1806639E+00)
 number of electron       5.0000000 magnetization       6.0000000
 augmentation part        5.0000000 magnetization       6.0000000

 Free energy of the ion-electron system (eV)
  ---------------------------------------------------
  alpha Z        PSCENC =        31.48826594
  Ewald energy   TEWEN  =      -199.82154373
  -1/2 Hartree   DENC   =        -2.37721154
  -exchange  EXHF       =         0.00000000
  -V(xc)+E(xc)   XCENC  =       -60.68095016
  PAW double counting   =       143.51874798      -69.33493833
  entropy T*S    EENTRO =        -0.00007147
  eigenvalues    EBANDS =        24.57703687
  atomic energy  EATOM  =       130.64884137
  ---------------------------------------------------
  free energy    TOTEN  =        -1.98182306 eV

  energy without entropy =       -1.98175159  energy(sigma->0) =       -1.98179924


--------------------------------------------------------------------------------------------------------




----------------------------------------- Iteration    1(   4)  ---------------------------------------


     EDDAV:  cpu time    3.64: real time    3.64
       DOS:  cpu time    0.01: real time    0.01
    --------------------------------------------
      LOOP:  cpu time    3.65: real time    3.67

 eigenvalue-minimisations  :  2965
 total energy-change (2. order) :-0.4016920E-03  (-0.4015841E-03)
 number of electron       5.0000000 magnetization       6.0000000
 augmentation part        5.0000000 magnetization       6.0000000

 Free energy of the ion-electron system (eV)
  ---------------------------------------------------
  alpha Z        PSCENC =        31.48826594
  Ewald energy   TEWEN  =      -199.82154373
  -1/2 Hartree   DENC   =        -2.37721154
  -exchange  EXHF       =         0.00000000
  -V(xc)+E(xc)   XCENC  =       -60.68095016
  PAW double counting   =       143.51874798      -69.33493833
  entropy T*S    EENTRO =        -0.00006927
  eigenvalues    EBANDS =        24.57663298
  atomic energy  EATOM  =       130.64884137
  ---------------------------------------------------
  free energy    TOTEN  =        -1.98222475 eV

  energy without entropy =       -1.98215548  energy(sigma->0) =       -1.98220166


--------------------------------------------------------------------------------------------------------




----------------------------------------- Iteration    1(   5)  ---------------------------------------


     EDDAV:  cpu time    3.29: real time    3.29
       DOS:  cpu time    0.01: real time    0.01
    CHARGE:  cpu time    0.19: real time    0.19
    MIXING:  cpu time    0.00: real time    0.00
    --------------------------------------------
      LOOP:  cpu time    3.49: real time    3.50

 eigenvalue-minimisations  :  2629
 total energy-change (2. order) :-0.2110762E-06  (-0.2095431E-06)
 number of electron       5.0000000 magnetization       2.1010091
 augmentation part        0.4515270 magnetization      -0.7869010

 Broyden mixing:
  rms(total) = 0.75870E+00    rms(broyden)= 0.75869E+00
  rms(prec ) = 0.97806E+00
  weight for this iteration     100.00

 Free energy of the ion-electron system (eV)
  ---------------------------------------------------
  alpha Z        PSCENC =        31.48826594
  Ewald energy   TEWEN  =      -199.82154373
  -1/2 Hartree   DENC   =        -2.37721154
  -exchange  EXHF       =         0.00000000
  -V(xc)+E(xc)   XCENC  =       -60.68095016
  PAW double counting   =       143.51874798      -69.33493833
  entropy T*S    EENTRO =        -0.00006927
  eigenvalues    EBANDS =        24.57663277
  atomic energy  EATOM  =       130.64884137
  ---------------------------------------------------
  free energy    TOTEN  =        -1.98222497 eV

  energy without entropy =       -1.98215569  energy(sigma->0) =       -1.98220187


--------------------------------------------------------------------------------------------------------




----------------------------------------- Iteration    1(   6)  ---------------------------------------


    POTLOK:  cpu time    0.20: real time    0.20
    SETDIJ:  cpu time    0.05: real time    0.05
     EDDAV:  cpu time    3.13: real time    3.13
       DOS:  cpu time    0.01: real time    0.01
    CHARGE:  cpu time    0.21: real time    0.21
    MIXING:  cpu time    0.00: real time    0.00
    --------------------------------------------
      LOOP:  cpu time    3.60: real time    3.62

 eigenvalue-minimisations  :  2449
 total energy-change (2. order) :-0.9297396E+01  (-0.2636474E+00)
 number of electron       5.0000000 magnetization       1.6757771
 augmentation part        0.3742500 magnetization       0.8961350

 Broyden mixing:
  rms(total) = 0.39949E+00    rms(broyden)= 0.39947E+00
  rms(prec ) = 0.10811E+01
  weight for this iteration     100.00

 eigenvalues of (default mixing * dielectric matrix)
  average eigenvalue GAMMA=   1.4748
  1.4748

 Free energy of the ion-electron system (eV)
  ---------------------------------------------------
  alpha Z        PSCENC =        31.48826594
  Ewald energy   TEWEN  =      -199.82154373
  -1/2 Hartree   DENC   =        -1.87821780
  -exchange  EXHF       =         0.00000000
  -V(xc)+E(xc)   XCENC  =       -66.03126304
  PAW double counting   =       165.41080162      -91.50046180
  entropy T*S    EENTRO =         0.00013928
  eigenvalues    EBANDS =        20.40381700
  atomic energy  EATOM  =       130.64884137
  ---------------------------------------------------
  free energy    TOTEN  =       -11.27962116 eV

  energy without entropy =      -11.27976044  energy(sigma->0) =      -11.27966759


--------------------------------------------------------------------------------------------------------




----------------------------------------- Iteration    1(   7)  ---------------------------------------


    POTLOK:  cpu time    0.20: real time    0.20
    SETDIJ:  cpu time    0.05: real time    0.05
     EDDAV:  cpu time    3.27: real time    3.27
       DOS:  cpu time    0.01: real time    0.01
    CHARGE:  cpu time    0.19: real time    0.19
    MIXING:  cpu time    0.01: real time    0.00
    --------------------------------------------
      LOOP:  cpu time    3.73: real time    3.74

 eigenvalue-minimisations  :  2626
 total energy-change (2. order) :-0.1648547E+00  (-0.9100919E-02)
 number of electron       5.0000000 magnetization       0.2448057
 augmentation part        0.3721207 magnetization      -0.3553193

 Broyden mixing:
  rms(total) = 0.34263E+00    rms(broyden)= 0.34263E+00
  rms(prec ) = 0.99341E+00
  weight for this iteration     100.00

 eigenvalues of (default mixing * dielectric matrix)
  average eigenvalue GAMMA=   1.1357
  0.9198  1.3516

 Free energy of the ion-electron system (eV)
  ---------------------------------------------------
  alpha Z        PSCENC =        31.48826594
  Ewald energy   TEWEN  =      -199.82154373
  -1/2 Hartree   DENC   =        -1.69473434
  -exchange  EXHF       =         0.00000000
  -V(xc)+E(xc)   XCENC  =       -66.14915794
  PAW double counting   =       169.28251634      -95.43611522
  entropy T*S    EENTRO =         0.00022157
  eigenvalues    EBANDS =        20.23723013
  atomic energy  EATOM  =       130.64884137
  ---------------------------------------------------
  free energy    TOTEN  =       -11.44447587 eV

  energy without entropy =      -11.44469744  energy(sigma->0) =      -11.44454973


--------------------------------------------------------------------------------------------------------




----------------------------------------- Iteration    1(   8)  ---------------------------------------


    POTLOK:  cpu time    0.20: real time    0.20
    SETDIJ:  cpu time    0.05: real time    0.05
     EDDAV:  cpu time    3.03: real time    3.03
       DOS:  cpu time    0.01: real time    0.01
    CHARGE:  cpu time    0.21: real time    0.21
    MIXING:  cpu time    0.00: real time    0.00
    --------------------------------------------
      LOOP:  cpu time    3.51: real time    3.52

 eigenvalue-minimisations  :  2337
 total energy-change (2. order) :-0.1420616E+00  (-0.5694829E-01)
 number of electron       5.0000000 magnetization      -0.0159703
 augmentation part        0.3982642 magnetization      -0.0591781

 Broyden mixing:
  rms(total) = 0.12282E+00    rms(broyden)= 0.12282E+00
  rms(prec ) = 0.16264E+00
  weight for this iteration     100.00

 eigenvalues of (default mixing * dielectric matrix)
  average eigenvalue GAMMA=   1.1843
  1.4257  1.4257  0.7015

 Free energy of the ion-electron system (eV)
  ---------------------------------------------------
  alpha Z        PSCENC =        31.48826594
  Ewald energy   TEWEN  =      -199.82154373
  -1/2 Hartree   DENC   =        -0.60079351
  -exchange  EXHF       =         0.00000000
  -V(xc)+E(xc)   XCENC  =       -65.91945584
  PAW double counting   =       182.61030839     -109.19470781
  entropy T*S    EENTRO =        -0.00020058
  eigenvalues    EBANDS =        19.20274826
  atomic energy  EATOM  =       130.64884137
  ---------------------------------------------------
  free energy    TOTEN  =       -11.58653750 eV

  energy without entropy =      -11.58633692  energy(sigma->0) =      -11.58647064


--------------------------------------------------------------------------------------------------------




----------------------------------------- Iteration    1(   9)  ---------------------------------------


    POTLOK:  cpu time    0.20: real time    0.20
    SETDIJ:  cpu time    0.05: real time    0.05
     EDDAV:  cpu time    3.09: real time    3.09
       DOS:  cpu time    0.01: real time    0.01
    CHARGE:  cpu time    0.19: real time    0.19
    MIXING:  cpu time    0.00: real time    0.00
    --------------------------------------------
      LOOP:  cpu time    3.55: real time    3.57

 eigenvalue-minimisations  :  2423
 total energy-change (2. order) : 0.8284740E-02  (-0.4421634E-02)
 number of electron       5.0000000 magnetization       0.0193147
 augmentation part        0.4011678 magnetization       0.0192607

 Broyden mixing:
  rms(total) = 0.19871E-01    rms(broyden)= 0.19870E-01
  rms(prec ) = 0.58036E-01
  weight for this iteration     100.00

 eigenvalues of (default mixing * dielectric matrix)
  average eigenvalue GAMMA=   1.1899
  1.5847  1.5847  0.9257  0.6645

 Free energy of the ion-electron system (eV)
  ---------------------------------------------------
  alpha Z        PSCENC =        31.48826594
  Ewald energy   TEWEN  =      -199.82154373
  -1/2 Hartree   DENC   =        -0.53722162
  -exchange  EXHF       =         0.00000000
  -V(xc)+E(xc)   XCENC  =       -65.88734446
  PAW double counting   =       188.89081362     -115.53529103
  entropy T*S    EENTRO =         0.00031257
  eigenvalues    EBANDS =        19.17491457
  atomic energy  EATOM  =       130.64884137
  ---------------------------------------------------
  free energy    TOTEN  =       -11.57825276 eV

  energy without entropy =      -11.57856532  energy(sigma->0) =      -11.57835695


--------------------------------------------------------------------------------------------------------




----------------------------------------- Iteration    1(  10)  ---------------------------------------


    POTLOK:  cpu time    0.20: real time    0.20
    SETDIJ:  cpu time    0.05: real time    0.05
     EDDAV:  cpu time    3.16: real time    3.16
       DOS:  cpu time    0.01: real time    0.01
    CHARGE:  cpu time    0.21: real time    0.21
    MIXING:  cpu time    0.01: real time    0.00
    --------------------------------------------
      LOOP:  cpu time    3.63: real time    3.65

 eigenvalue-minimisations  :  2475
 total energy-change (2. order) : 0.4818790E-03  (-0.1324596E-03)
 number of electron       5.0000000 magnetization      -0.0247674
 augmentation part        0.4005416 magnetization      -0.0261553

 Broyden mixing:
  rms(total) = 0.15446E-01    rms(broyden)= 0.15446E-01
  rms(prec ) = 0.38647E-01
  weight for this iteration     100.00

 eigenvalues of (default mixing * dielectric matrix)
  average eigenvalue GAMMA=   1.1558
  1.5854  1.5854  1.1199  0.8371  0.6511

 Free energy of the ion-electron system (eV)
  ---------------------------------------------------
  alpha Z        PSCENC =        31.48826594
  Ewald energy   TEWEN  =      -199.82154373
  -1/2 Hartree   DENC   =        -0.56025117
  -exchange  EXHF       =         0.00000000
  -V(xc)+E(xc)   XCENC  =       -65.89715349
  PAW double counting   =       191.36068938     -118.01471036
  entropy T*S    EENTRO =         0.00032787
  eigenvalues    EBANDS =        19.21776331
  atomic energy  EATOM  =       130.64884137
  ---------------------------------------------------
  free energy    TOTEN  =       -11.57777088 eV

  energy without entropy =      -11.57809874  energy(sigma->0) =      -11.57788017


--------------------------------------------------------------------------------------------------------




----------------------------------------- Iteration    1(  11)  ---------------------------------------


    POTLOK:  cpu time    0.20: real time    0.20
    SETDIJ:  cpu time    0.05: real time    0.05
     EDDAV:  cpu time    3.12: real time    3.13
       DOS:  cpu time    0.01: real time    0.01
    CHARGE:  cpu time    0.19: real time    0.19
    MIXING:  cpu time    0.00: real time    0.00
    --------------------------------------------
      LOOP:  cpu time    3.58: real time    3.60

 eigenvalue-minimisations  :  2466
 total energy-change (2. order) : 0.3184144E-03  (-0.7883777E-04)
 number of electron       5.0000000 magnetization       0.0119148
 augmentation part        0.4005211 magnetization       0.0130381

 Broyden mixing:
  rms(total) = 0.93165E-02    rms(broyden)= 0.93165E-02
  rms(prec ) = 0.98433E-02
  weight for this iteration     100.00

 eigenvalues of (default mixing * dielectric matrix)
  average eigenvalue GAMMA=   1.3009
  2.2328  1.6007  1.6007  1.0444  0.6883  0.6387

 Free energy of the ion-electron system (eV)
  ---------------------------------------------------
  alpha Z        PSCENC =        31.48826594
  Ewald energy   TEWEN  =      -199.82154373
  -1/2 Hartree   DENC   =        -0.57620425
  -exchange  EXHF       =         0.00000000
  -V(xc)+E(xc)   XCENC  =       -65.89267950
  PAW double counting   =       197.42747115     -124.11795567
  entropy T*S    EENTRO =         0.00036932
  eigenvalues    EBANDS =        19.26598291
  atomic energy  EATOM  =       130.64884137
  ---------------------------------------------------
  free energy    TOTEN  =       -11.57745247 eV

  energy without entropy =      -11.57782178  energy(sigma->0) =      -11.57757557


--------------------------------------------------------------------------------------------------------




----------------------------------------- Iteration    1(  12)  ---------------------------------------


    POTLOK:  cpu time    0.20: real time    0.20
    SETDIJ:  cpu time    0.05: real time    0.05
     EDDAV:  cpu time    2.99: real time    2.99
       DOS:  cpu time    0.01: real time    0.01
    CHARGE:  cpu time    0.21: real time    0.21
    MIXING:  cpu time    0.00: real time    0.01
    --------------------------------------------
      LOOP:  cpu time    3.46: real time    3.48

 eigenvalue-minimisations  :  2298
 total energy-change (2. order) : 0.1276340E-03  (-0.2206313E-04)
 number of electron       5.0000000 magnetization      -0.0013625
 augmentation part        0.4003575 magnetization      -0.0028143

 Broyden mixing:
  rms(total) = 0.30724E-02    rms(broyden)= 0.30724E-02
  rms(prec ) = 0.64471E-02
  weight for this iteration     100.00

 eigenvalues of (default mixing * dielectric matrix)
  average eigenvalue GAMMA=   1.2589
  2.5874  1.5783  1.5783  1.0396  0.7427  0.6669  0.6189

 Free energy of the ion-electron system (eV)
  ---------------------------------------------------
  alpha Z        PSCENC =        31.48826594
  Ewald energy   TEWEN  =      -199.82154373
  -1/2 Hartree   DENC   =        -0.58184312
  -exchange  EXHF       =         0.00000000
  -V(xc)+E(xc)   XCENC  =       -65.89537952
  PAW double counting   =       197.87477472     -124.56517747
  entropy T*S    EENTRO =         0.00036906
  eigenvalues    EBANDS =        19.27436790
  atomic energy  EATOM  =       130.64884137
  ---------------------------------------------------
  free energy    TOTEN  =       -11.57732483 eV

  energy without entropy =      -11.57769389  energy(sigma->0) =      -11.57744785


--------------------------------------------------------------------------------------------------------




----------------------------------------- Iteration    1(  13)  ---------------------------------------


    POTLOK:  cpu time    0.20: real time    0.20
    SETDIJ:  cpu time    0.05: real time    0.05
     EDDAV:  cpu time    1.96: real time    1.96
       DOS:  cpu time    0.01: real time    0.01
    --------------------------------------------
      LOOP:  cpu time    2.22: real time    2.23

 eigenvalue-minimisations  :  1159
 total energy-change (2. order) :-0.9316364E-05  (-0.2684069E-05)
 number of electron       5.0000000 magnetization      -0.0013625
 augmentation part        0.4003575 magnetization      -0.0028143

 Free energy of the ion-electron system (eV)
  ---------------------------------------------------
  alpha Z        PSCENC =        31.48826594
  Ewald energy   TEWEN  =      -199.82154373
  -1/2 Hartree   DENC   =        -0.57752091
  -exchange  EXHF       =         0.00000000
  -V(xc)+E(xc)   XCENC  =       -65.89230696
  PAW double counting   =       197.92737305     -124.61889368
  entropy T*S    EENTRO =         0.00037071
  eigenvalues    EBANDS =        19.26808006
  atomic energy  EATOM  =       130.64884137
  ---------------------------------------------------
  free energy    TOTEN  =       -11.57733415 eV

  energy without entropy =      -11.57770486  energy(sigma->0) =      -11.57745772


--------------------------------------------------------------------------------------------------------




 average (electrostatic) potential at core
  the test charge radii are     1.2538
  (the norm of the test charge is              1.0000)
       1 -34.6754
 
 
 
 E-fermi :   6.3002     XC(G=0): -12.5176     alpha+bet :-13.9031


 spin component 1

 k-point   1 :       0.0625    0.0625    0.0625
  band No.  band energies     occupation 
      1      -1.8732      1.00000
      2       6.6261      0.00000
      3       6.8564      0.00000
      4       6.8564      0.00000
      5       9.9512      0.00000
      6       9.9512      0.00000
      7      19.3438      0.00000
      8      20.1937      0.00000
      9      23.3029      0.00000

 k-point   2 :       0.1875    0.0625    0.0625
  band No.  band energies     occupation 
      1      -1.0400      1.00000
      2       5.9881      1.00000
      3       7.1881      0.00000
      4       7.2175      0.00000
      5       9.3084      0.00000
      6      10.0818      0.00000
      7      20.1929      0.00000
      8      20.8106      0.00000
      9      21.7546      0.00000

 k-point   3 :       0.3125    0.0625    0.0625
  band No.  band energies     occupation 
      1       0.5462      1.00000
      2       5.4638      1.00000
      3       7.0357      0.00000
      4       7.2724      0.00000
      5       9.6876      0.00000
      6      10.9492      0.00000
      7      19.1472      0.00000
      8      20.1969      0.00000
      9      23.4160      0.00000

 k-point   4 :       0.4375    0.0625    0.0625
  band No.  band energies     occupation 
      1       1.5052      1.00000
      2       6.2292      1.03097
      3       6.6118      0.00000
      4       6.7840      0.00000
      5      11.4360      0.00000
      6      12.4921      0.00000
      7      17.6983      0.00000
      8      20.1588      0.00000
      9      20.3411      0.00000

 k-point   5 :      -0.4375    0.0625    0.0625
  band No.  band energies     occupation 
      1       1.6180      1.00000
      2       6.2019      1.00887
      3       6.6618      0.00000
      4       7.1562      0.00000
      5      12.6090      0.00000
      6      12.7147      0.00000
      7      17.1535      0.00000
      8      18.9933      0.00000
      9      20.2009      0.00000

 k-point   6 :      -0.3125    0.0625    0.0625
  band No.  band energies     occupation 
      1       1.3165      1.00000
      2       5.8308      1.00000
      3       6.6381      0.00000
      4       6.9940      0.00000
      5      11.0636      0.00000
      6      11.8030      0.00000
      7      18.0903      0.00000
      8      20.1926      0.00000
      9      21.4722      0.00000

 k-point   7 :      -0.1875    0.0625    0.0625
  band No.  band energies     occupation 
      1       0.0056      1.00000
      2       5.4956      1.00000
      3       7.2016      0.00000
      4       7.3755      0.00000
      5       9.4131      0.00000
      6      10.4539      0.00000
      7      19.7984      0.00000
      8      20.2008      0.00000
      9      23.1531      0.00000

 k-point   8 :      -0.0625    0.0625    0.0625
  band No.  band energies     occupation 
      1      -1.4432      1.00000
      2       6.2109      1.01498
      3       7.0902      0.00000
      4       7.1049      0.00000
      5       9.3927      0.00000
      6      10.1364      0.00000
      7      20.1935      0.00000
      8      20.2262      0.00000
      9      22.5222      0.00000

 k-point   9 :       0.1875    0.1875    0.0625
  band No.  band energies     occupation 
      1      -0.6375      1.00000
      2       5.5093      1.00000
      3       7.5097      0.00000
      4       7.5979      0.00000
      5       8.5642      0.00000
      6      10.4903      0.00000
      7      20.1935      0.00000
      8      21.7373      0.00000
      9      22.3331      0.00000

 k-point  10 :       0.3125    0.1875    0.0625
  band No.  band energies     occupation 
      1       0.7181      1.00000
      2       4.8358      1.00000
      3       6.8160      0.00000
      4       8.2059      0.00000
      5       8.9999      0.00000
      6      11.2837      0.00000
      7      20.1903      0.00000
      8      21.2004      0.00000
      9      24.1270      0.00000

 k-point  11 :       0.4375    0.1875    0.0625
  band No.  band energies     occupation 
      1       2.0633      1.00000
      2       4.9687      1.00000
      3       5.9554      1.00000
      4       7.8207      0.00000
      5      11.0119      0.00000
      6      12.8423      0.00000
      7      18.7904      0.00000
      8      20.2014      0.00000
      9      21.8923      0.00000

 k-point  12 :      -0.4375    0.1875    0.0625
  band No.  band energies     occupation 
      1       2.4384      1.00000
      2       5.0841      1.00000
      3       6.5562      0.00000
      4       7.4423      0.00000
      5      12.3086      0.00000
      6      13.9535      0.00000
      7      16.4686      0.00000
      8      20.1996      0.00000
      9      20.8775      0.00000

 k-point  13 :      -0.3125    0.1875    0.0625
  band No.  band energies     occupation 
      1       2.3544      1.00000
      2       5.3187      1.00000
      3       5.9349      1.00000
      4       7.5424      0.00000
      5      10.9805      0.00000
      6      13.7256      0.00000
      7      17.9667      0.00000
      8      20.2005      0.00000
      9      21.3672      0.00000

 k-point  14 :      -0.1875    0.1875    0.0625
  band No.  band energies     occupation 
      1       1.2915      1.00000
      2       4.9838      1.00000
      3       6.4153     -0.00268
      4       8.0679      0.00000
      5       9.0121      0.00000
      6      12.1269      0.00000
      7      20.1667      0.00000
      8      20.4109      0.00000
      9      23.8279      0.00000

 k-point  15 :      -0.0625    0.1875    0.0625
  band No.  band energies     occupation 
      1      -0.2809      1.00000
      2       5.4770      1.00000
      3       7.2449      0.00000
      4       7.6178      0.00000
      5       8.8330      0.00000
      6      10.5527      0.00000
      7      20.1915      0.00000
      8      21.0035      0.00000
      9      22.5220      0.00000

 k-point  16 :       0.3125    0.3125    0.0625
  band No.  band energies     occupation 
      1       1.3923      1.00000
      2       4.0056      1.00000
      3       6.7210      0.00000
      4       9.2648      0.00000
      5       9.6796      0.00000
      6      11.5522      0.00000
      7      20.1919      0.00000
      8      22.5908      0.00000
      9      23.8368      0.00000

 k-point  17 :       0.4375    0.3125    0.0625
  band No.  band energies     occupation 
      1       2.2245      1.00000
      2       3.6815      1.00000
      3       6.3917     -0.01331
      4       9.8526      0.00000
      5      11.1308      0.00000
      6      12.9229      0.00000
      7      19.6831      0.00000
      8      20.2136      0.00000
      9      21.9523      0.00000

 k-point  18 :      -0.4375    0.3125    0.0625
  band No.  band energies     occupation 
      1       2.9188      1.00000
      2       4.0485      1.00000
      3       6.1808      1.00188
      4       9.1806      0.00000
      5      12.4188      0.00000
      6      14.9618      0.00000
      7      16.1029      0.00000
      8      20.1965      0.00000
      9      21.9681      0.00000

 k-point  19 :      -0.3125    0.3125    0.0625
  band No.  band energies     occupation 
      1       3.6737      1.00000
      2       4.2582      1.00000
      3       5.6462      1.00000
      4       8.6665      0.00000
      5      11.2299      0.00000
      6      14.0838      0.00000
      7      18.5760      0.00000
      8      20.1978      0.00000
      9      20.8200      0.00000

 k-point  20 :      -0.1875    0.3125    0.0625
  band No.  band energies     occupation 
      1       2.8471      1.00000
      2       4.9987      1.00000
      3       5.2808      1.00000
      4       8.2170      0.00000
      5      10.0111      0.00000
      6      13.9779      0.00000
      7      18.9617      0.00000
      8      20.2047      0.00000
      9      22.7258      0.00000

 k-point  21 :      -0.0625    0.3125    0.0625
  band No.  band energies     occupation 
      1       1.2728      1.00000
      2       5.3086      1.00000
      3       6.5453      0.00000
      4       7.4020      0.00000
      5      10.0837      0.00000
      6      11.9119      0.00000
      7      19.0845      0.00000
      8      20.1978      0.00000
      9      22.6727      0.00000

 k-point  22 :       0.4375    0.4375    0.0625
  band No.  band energies     occupation 
      1       1.8367      1.00000
      2       3.0043      1.00000
      3       8.1311      0.00000
      4      11.4663      0.00000
      5      12.3772      0.00000
      6      12.6994      0.00000
      7      19.0092      0.00000
      8      19.9182      0.00000
      9      20.1902      0.00000

 k-point  23 :      -0.4375    0.4375    0.0625
  band No.  band energies     occupation 
      1       2.0604      1.00000
      2       3.1129      1.00000
      3       8.1410      0.00000
      4      11.2003      0.00000
      5      13.0856      0.00000
      6      14.6706      0.00000
      7      16.7330      0.00000
      8      18.9480      0.00000
      9      20.1911      0.00000

 k-point  24 :      -0.3125    0.4375    0.0625
  band No.  band energies     occupation 
      1       2.8652      1.00000
      2       3.9112      1.00000
      3       6.6548      0.00000
      4       9.6505      0.00000
      5      12.3457      0.00000
      6      14.7186      0.00000
      7      16.9653      0.00000
      8      20.1793      0.00000
      9      20.6153      0.00000

 k-point  25 :      -0.1875    0.4375    0.0625
  band No.  band energies     occupation 
      1       3.1117      1.00000
      2       4.5190      1.00000
      3       6.1355      1.00002
      4       8.0794      0.00000
      5      11.8250      0.00000
      6      14.4204      0.00000
      7      16.7647      0.00000
      8      20.1987      0.00000
      9      21.9979      0.00000

 k-point  26 :      -0.0625    0.4375    0.0625
  band No.  band energies     occupation 
      1       1.8809      1.00000
      2       5.7842      1.00000
      3       6.6969      0.00000
      4       6.9788      0.00000
      5      12.0043      0.00000
      6      13.1755      0.00000
      7      17.2748      0.00000
      8      19.9517      0.00000
      9      20.2047      0.00000

 k-point  27 :      -0.4375   -0.4375    0.0625
  band No.  band energies     occupation 
      1       1.7044      1.00000
      2       2.7935      1.00000
      3       9.1242      0.00000
      4      12.1835      0.00000
      5      13.1831      0.00000
      6      13.5757      0.00000
      7      17.5345      0.00000
      8      18.5799      0.00000
      9      20.1114      0.00000

 k-point  28 :      -0.3125   -0.4375    0.0625
  band No.  band energies     occupation 
      1       2.1995      1.00000
      2       3.3058      1.00000
      3       7.2696      0.00000
      4      10.7296      0.00000
      5      12.3320      0.00000
      6      13.7646      0.00000
      7      17.9431      0.00000
      8      20.1282      0.00000
      9      20.2100      0.00000

 k-point  29 :      -0.1875   -0.4375    0.0625
  band No.  band energies     occupation 
      1       2.6959      1.00000
      2       4.4397      1.00000
      3       5.8161      1.00000
      4       8.4639      0.00000
      5      12.0725      0.00000
      6      13.7059      0.00000
      7      17.4586      0.00000
      8      20.1994      0.00000
      9      22.3609      0.00000

 k-point  30 :      -0.3125   -0.3125    0.0625
  band No.  band energies     occupation 
      1       1.8716      1.00000
      2       3.4161      1.00000
      3       7.0517      0.00000
      4      10.3623      0.00000
      5      10.9595      0.00000
      6      12.1440      0.00000
      7      20.1855      0.00000
      8      21.0470      0.00000
      9      21.8555      0.00000

 k-point  31 :      -0.1875   -0.3125    0.0625
  band No.  band energies     occupation 
      1       1.7013      1.00000
      2       4.2093      1.00000
      3       6.2624      0.97784
      4       8.9531      0.00000
      5       9.9107      0.00000
      6      12.1050      0.00000
      7      20.1863      0.00000
      8      21.1499      0.00000
      9      23.8813      0.00000

 k-point  32 :      -0.1875   -0.1875    0.0625
  band No.  band energies     occupation 
      1       0.4075      1.00000
      2       4.7293      1.00000
      3       7.2238      0.00000
      4       8.3254      0.00000
      5       8.6778      0.00000
      6      10.9793      0.00000
      7      20.1930      0.00000
      8      22.4298      0.00000
      9      23.9414      0.00000

 k-point  33 :       0.1875    0.1875    0.1875
  band No.  band energies     occupation 
      1      -0.6777      1.00000
      2       5.8418      1.00000
      3       7.2348      0.00000
      4       7.2348      0.00000
      5       9.7376      0.00000
      6       9.7376      0.00000
      7      20.1405      0.00000
      8      20.2258      0.00000
      9      22.1772      0.00000

 k-point  34 :       0.3125    0.1875    0.1875
  band No.  band energies     occupation 
      1       0.3918      1.00000
      2       5.3113      1.00000
      3       6.9594      0.00000
      4       7.7870      0.00000
      5       8.7405      0.00000
      6      11.1629      0.00000
      7      20.1816      0.00000
      8      20.4801      0.00000
      9      23.3917      0.00000

 k-point  35 :       0.4375    0.1875    0.1875
  band No.  band energies     occupation 
      1       2.0378      1.00000
      2       5.0709      1.00000
      3       5.9421      1.00000
      4       7.9344      0.00000
      5       9.2896      0.00000
      6      13.1698      0.00000
      7      19.7819      0.00000
      8      20.2182      0.00000
      9      22.7522      0.00000

 k-point  36 :      -0.4375    0.1875    0.1875
  band No.  band energies     occupation 
      1       2.6978      1.00000
      2       5.0436      1.00000
      3       6.1716      1.00083
      4       7.6174      0.00000
      5      11.3201      0.00000
      6      14.1133      0.00000
      7      17.3576      0.00000
      8      20.1997      0.00000
      9      21.6026      0.00000

 k-point  37 :      -0.3125    0.1875    0.1875
  band No.  band energies     occupation 
      1       2.5300      1.00000
      2       4.8149      1.00000
      3       6.2302      1.03178
      4       7.8005      0.00000
      5      12.7265      0.00000
      6      13.4686      0.00000
      7      16.7161      0.00000
      8      20.1991      0.00000
      9      21.4179      0.00000

 k-point  38 :      -0.1875    0.1875    0.1875
  band No.  band energies     occupation 
      1       1.8330      1.00000
      2       4.4867      1.00000
      3       6.1361      1.00002
      4       8.2707      0.00000
      5      10.8298      0.00000
      6      12.1284      0.00000
      7      19.8663      0.00000
      8      20.2194      0.00000
      9      22.9335      0.00000

 k-point  39 :       0.3125    0.3125    0.1875
  band No.  band energies     occupation 
      1       0.9115      1.00000
      2       5.0121      1.00000
      3       6.7157      0.00000
      4       7.7141      0.00000
      5       9.7760      0.00000
      6      11.3033      0.00000
      7      19.9385      0.00000
      8      20.2096      0.00000
      9      23.6955      0.00000

 k-point  40 :       0.4375    0.3125    0.1875
  band No.  band energies     occupation 
      1       2.2410      1.00000
      2       4.5778      1.00000
      3       5.7187      1.00000
      4       8.5879      0.00000
      5       9.8820      0.00000
      6      13.1134      0.00000
      7      19.8679      0.00000
      8      20.2268      0.00000
      9      23.0170      0.00000

 k-point  41 :      -0.4375    0.3125    0.1875
  band No.  band energies     occupation 
      1       3.5580      1.00000
      2       4.4875      1.00000
      3       5.0573      1.00000
      4       8.7585      0.00000
      5      11.0187      0.00000
      6      14.3906      0.00000
      7      18.3154      0.00000
      8      20.2006      0.00000
      9      21.4172      0.00000

 k-point  42 :      -0.3125    0.3125    0.1875
  band No.  band energies     occupation 
      1       3.5340      1.00000
      2       4.1497      1.00000
      3       5.7689      1.00000
      4       8.6314      0.00000
      5      11.9724      0.00000
      6      15.6313      0.00000
      7      15.9381      0.00000
      8      20.1973      0.00000
      9      22.0399      0.00000

 k-point  43 :      -0.1875    0.3125    0.1875
  band No.  band energies     occupation 
      1       2.8556      1.00000
      2       4.1727      1.00000
      3       5.5164      1.00000
      4       9.3019      0.00000
      5      11.0209      0.00000
      6      13.9589      0.00000
      7      18.6120      0.00000
      8      20.2021      0.00000
      9      21.8258      0.00000

 k-point  44 :       0.4375    0.4375    0.1875
  band No.  band energies     occupation 
      1       2.3974      1.00000
      2       3.9815      1.00000
      3       6.1461      1.00006
      4       9.0219      0.00000
      5      12.3095      0.00000
      6      12.7342      0.00000
      7      18.4669      0.00000
      8      20.2008      0.00000
      9      22.7221      0.00000

 k-point  45 :      -0.4375    0.4375    0.1875
  band No.  band energies     occupation 
      1       2.8518      1.00000
      2       3.8701      1.00000
      3       6.1177      1.00000
      4       9.8255      0.00000
      5      12.1483      0.00000
      6      14.7996      0.00000
      7      17.4314      0.00000
      8      20.1266      0.00000
      9      20.2213      0.00000

 k-point  46 :      -0.3125    0.4375    0.1875
  band No.  band energies     occupation 
      1       3.3052      1.00000
      2       4.5428      1.00000
      3       5.6232      1.00000
      4       8.7311      0.00000
      5      13.0136      0.00000
      6      16.2196      0.00000
      7      16.9785      0.00000
      8      18.7429      0.00000
      9      20.2030      0.00000

 k-point  47 :      -0.1875    0.4375    0.1875
  band No.  band energies     occupation 
      1       3.5649      1.00000
      2       4.4678      1.00000
      3       5.1929      1.00000
      4       8.9745      0.00000
      5      12.0867      0.00000
      6      15.0693      0.00000
      7      17.6748      0.00000
      8      20.0399      0.00000
      9      20.2164      0.00000

 k-point  48 :      -0.4375   -0.4375    0.1875
  band No.  band energies     occupation 
      1       2.3348      1.00000
      2       3.4192      1.00000
      3       7.5789      0.00000
      4      10.6154      0.00000
      5      12.7242      0.00000
      6      15.1150      0.00000
      7      15.8825      0.00000
      8      20.1846      0.00000
      9      20.9007      0.00000

 k-point  49 :      -0.3125   -0.4375    0.1875
  band No.  band energies     occupation 
      1       2.6872      1.00000
      2       3.7206      1.00000
      3       6.8546      0.00000
      4       9.8114      0.00000
      5      13.0288      0.00000
      6      15.8387      0.00000
      7      16.5103      0.00000
      8      18.9254      0.00000
      9      20.2010      0.00000

 k-point  50 :      -0.3125   -0.3125    0.1875
  band No.  band energies     occupation 
      1       2.4463      1.00000
      2       3.6041      1.00000
      3       6.8517      0.00000
      4       9.8847      0.00000
      5      12.9200      0.00000
      6      14.0031      0.00000
      7      16.7039      0.00000
      8      20.1957      0.00000
      9      21.4805      0.00000

 k-point  51 :       0.3125    0.3125    0.3125
  band No.  band energies     occupation 
      1       0.8560      1.00000
      2       5.6979      1.00000
      3       6.9939      0.00000
      4       6.9939      0.00000
      5      10.7696      0.00000
      6      10.7696      0.00000
      7      18.2800      0.00000
      8      20.1948      0.00000
      9      22.6852      0.00000

 k-point  52 :       0.4375    0.3125    0.3125
  band No.  band energies     occupation 
      1       1.7653      1.00000
      2       5.5655      1.00000
      3       6.2315      1.03267
      4       7.2663      0.00000
      5      10.3233      0.00000
      6      12.9012      0.00000
      7      18.6579      0.00000
      8      20.1982      0.00000
      9      21.5430      0.00000

 k-point  53 :      -0.4375    0.3125    0.3125
  band No.  band energies     occupation 
      1       3.3451      1.00000
      2       4.7413      1.00000
      3       5.4448      1.00000
      4       8.2504      0.00000
      5      10.4667      0.00000
      6      14.1602      0.00000
      7      18.6434      0.00000
      8      20.2019      0.00000
      9      21.9016      0.00000

 k-point  54 :      -0.3125    0.3125    0.3125
  band No.  band energies     occupation 
      1       3.2129      1.00000
      2       4.1800      1.00000
      3       6.2309      1.03224
      4       9.1652      0.00000
      5      11.7083      0.00000
      6      13.8997      0.00000
      7      18.1521      0.00000
      8      20.1877      0.00000
      9      20.6830      0.00000

 k-point  55 :       0.4375    0.4375    0.3125
  band No.  band energies     occupation 
      1       1.9005      1.00000
      2       5.4909      1.00000
      3       6.3170      0.23349
      4       7.2717      0.00000
      5      12.0289      0.00000
      6      12.5444      0.00000
      7      17.8426      0.00000
      8      20.1958      0.00000
      9      20.7189      0.00000

 k-point  56 :      -0.4375    0.4375    0.3125
  band No.  band energies     occupation 
      1       2.9961      1.00000
      2       4.6279      1.00000
      3       5.8656      1.00000
      4       8.0978      0.00000
      5      11.7248      0.00000
      6      14.4250      0.00000
      7      16.9227      0.00000
      8      20.1991      0.00000
      9      22.1159      0.00000

 k-point  57 :      -0.3125    0.4375    0.3125
  band No.  band energies     occupation 
      1       3.5440      1.00000
      2       4.2783      1.00000
      3       5.6823      1.00000
      4       8.8538      0.00000
      5      12.1382      0.00000
      6      14.8559      0.00000
      7      17.7316      0.00000
      8      20.1009      0.00000
      9      20.2535      0.00000

 k-point  58 :      -0.4375   -0.4375    0.3125
  band No.  band energies     occupation 
      1       3.0323      1.00000
      2       4.3195      1.00000
      3       6.2077      1.01253
      4       8.5074      0.00000
      5      12.3137      0.00000
      6      14.3620      0.00000
      7      16.4200      0.00000
      8      20.1978      0.00000
      9      22.0273      0.00000

 k-point  59 :       0.4375    0.4375    0.4375
  band No.  band energies     occupation 
      1       1.4351      1.00000
      2       6.5776      0.00000
      3       6.5776      0.00000
      4       6.9324      0.00000
      5      12.3095      0.00000
      6      12.3095      0.00000
      7      17.3511      0.00000
      8      19.2295      0.00000
      9      20.2043      0.00000

 k-point  60 :      -0.4375    0.4375    0.4375
  band No.  band energies     occupation 
      1       2.0566      1.00000
      2       5.5852      1.00000
      3       6.8648      0.00000
      4       7.0250      0.00000
      5      12.1949      0.00000
      6      13.5660      0.00000
      7      16.8189      0.00000
      8      20.0288      0.00000
      9      20.2003      0.00000

 spin component 2

 k-point   1 :       0.0625    0.0625    0.0625
  band No.  band energies     occupation 
      1      -1.8744      1.00000
      2       6.6253      0.00000
      3       6.8556      0.00000
      4       6.8556      0.00000
      5       9.9509      0.00000
      6       9.9509      0.00000
      7      19.3410      0.00000
      8      20.1943      0.00000
      9      23.3021      0.00000

 k-point   2 :       0.1875    0.0625    0.0625
  band No.  band energies     occupation 
      1      -1.0412      1.00000
      2       5.9872      1.00000
      3       7.1874      0.00000
      4       7.2168      0.00000
      5       9.3081      0.00000
      6      10.0815      0.00000
      7      20.1934      0.00000
      8      20.8083      0.00000
      9      21.7534      0.00000

 k-point   3 :       0.3125    0.0625    0.0625
  band No.  band energies     occupation 
      1       0.5450      1.00000
      2       5.4627      1.00000
      3       7.0351      0.00000
      4       7.2718      0.00000
      5       9.6871      0.00000
      6      10.9488      0.00000
      7      19.1461      0.00000
      8      20.1974      0.00000
      9      23.4143      0.00000

 k-point   4 :       0.4375    0.0625    0.0625
  band No.  band energies     occupation 
      1       1.5040      1.00000
      2       6.2283      1.03030
      3       6.6110      0.00000
      4       6.7834      0.00000
      5      11.4356      0.00000
      6      12.4917      0.00000
      7      17.6975      0.00000
      8      20.1589      0.00000
      9      20.3401      0.00000

 k-point   5 :      -0.4375    0.0625    0.0625
  band No.  band energies     occupation 
      1       1.6167      1.00000
      2       6.2013      1.00857
      3       6.6613      0.00000
      4       7.1552      0.00000
      5      12.6086      0.00000
      6      12.7143      0.00000
      7      17.1529      0.00000
      8      18.9916      0.00000
      9      20.2014      0.00000

 k-point   6 :      -0.3125    0.0625    0.0625
  band No.  band energies     occupation 
      1       1.3152      1.00000
      2       5.8297      1.00000
      3       6.6375      0.00000
      4       6.9934      0.00000
      5      11.0631      0.00000
      6      11.8026      0.00000
      7      18.0894      0.00000
      8      20.1931      0.00000
      9      21.4708      0.00000

 k-point   7 :      -0.1875    0.0625    0.0625
  band No.  band energies     occupation 
      1       0.0043      1.00000
      2       5.4945      1.00000
      3       7.2010      0.00000
      4       7.3748      0.00000
      5       9.4127      0.00000
      6      10.4535      0.00000
      7      19.7973      0.00000
      8      20.2013      0.00000
      9      23.1511      0.00000

 k-point   8 :      -0.0625    0.0625    0.0625
  band No.  band energies     occupation 
      1      -1.4445      1.00000
      2       6.2100      1.01428
      3       7.0895      0.00000
      4       7.1041      0.00000
      5       9.3924      0.00000
      6      10.1362      0.00000
      7      20.1941      0.00000
      8      20.2235      0.00000
      9      22.5212      0.00000

 k-point   9 :       0.1875    0.1875    0.0625
  band No.  band energies     occupation 
      1      -0.6387      1.00000
      2       5.5083      1.00000
      3       7.5090      0.00000
      4       7.5971      0.00000
      5       8.5637      0.00000
[...]
      2       3.9804      1.00000
      3       6.1451      1.00005
      4       9.0214      0.00000
      5      12.3088      0.00000
      6      12.7339      0.00000
      7      18.4662      0.00000
      8      20.2014      0.00000
      9      22.7257      0.00000

 k-point  45 :      -0.4375    0.4375    0.1875
  band No.  band energies     occupation 
      1       2.8511      1.00000
      2       3.8689      1.00000
      3       6.1166      1.00000
      4       9.8251      0.00000
      5      12.1477      0.00000
      6      14.7990      0.00000
      7      17.4307      0.00000
      8      20.1261      0.00000
      9      20.2216      0.00000

 k-point  46 :      -0.3125    0.4375    0.1875
  band No.  band energies     occupation 
      1       3.3047      1.00000
      2       4.5415      1.00000
      3       5.6219      1.00000
      4       8.7306      0.00000
      5      13.0130      0.00000
      6      16.2189      0.00000
      7      16.9777      0.00000
      8      18.7422      0.00000
      9      20.2035      0.00000

 k-point  47 :      -0.1875    0.4375    0.1875
  band No.  band energies     occupation 
      1       3.5643      1.00000
      2       4.4666      1.00000
      3       5.1917      1.00000
      4       8.9740      0.00000
      5      12.0861      0.00000
      6      15.0686      0.00000
      7      17.6742      0.00000
      8      20.0393      0.00000
      9      20.2168      0.00000

 k-point  48 :      -0.4375   -0.4375    0.1875
  band No.  band energies     occupation 
      1       2.3342      1.00000
      2       3.4180      1.00000
      3       7.5776      0.00000
      4      10.6150      0.00000
      5      12.7237      0.00000
      6      15.1141      0.00000
      7      15.8819      0.00000
      8      20.1851      0.00000
      9      20.9025      0.00000

 k-point  49 :      -0.3125   -0.4375    0.1875
  band No.  band energies     occupation 
      1       2.6866      1.00000
      2       3.7193      1.00000
      3       6.8533      0.00000
      4       9.8110      0.00000
      5      13.0282      0.00000
      6      15.8380      0.00000
      7      16.5096      0.00000
      8      18.9247      0.00000
      9      20.2015      0.00000

 k-point  50 :      -0.3125   -0.3125    0.1875
  band No.  band energies     occupation 
      1       2.4456      1.00000
      2       3.6029      1.00000
      3       6.8505      0.00000
      4       9.8842      0.00000
      5      12.9196      0.00000
      6      14.0024      0.00000
      7      16.7032      0.00000
      8      20.1962      0.00000
      9      21.4798      0.00000

 k-point  51 :       0.3125    0.3125    0.3125
  band No.  band energies     occupation 
      1       0.8548      1.00000
      2       5.6968      1.00000
      3       6.9933      0.00000
      4       6.9933      0.00000
      5      10.7692      0.00000
      6      10.7692      0.00000
      7      18.2790      0.00000
      8      20.1953      0.00000
      9      22.6837      0.00000

 k-point  52 :       0.4375    0.3125    0.3125
  band No.  band energies     occupation 
      1       1.7640      1.00000
      2       5.5644      1.00000
      3       6.2309      1.03222
      4       7.2658      0.00000
      5      10.3227      0.00000
      6      12.9009      0.00000
      7      18.6572      0.00000
      8      20.1987      0.00000
      9      21.5414      0.00000

 k-point  53 :      -0.4375    0.3125    0.3125
  band No.  band energies     occupation 
      1       3.3438      1.00000
      2       4.7408      1.00000
      3       5.4436      1.00000
      4       8.2500      0.00000
      5      10.4661      0.00000
      6      14.1597      0.00000
      7      18.6429      0.00000
      8      20.2024      0.00000
      9      21.9008      0.00000

 k-point  54 :      -0.3125    0.3125    0.3125
  band No.  band energies     occupation 
      1       3.2120      1.00000
      2       4.1791      1.00000
      3       6.2296      1.03131
      4       9.1648      0.00000
      5      11.7077      0.00000
      6      13.8989      0.00000
      7      18.1515      0.00000
      8      20.1882      0.00000
      9      20.6825      0.00000

 k-point  55 :       0.4375    0.4375    0.3125
  band No.  band energies     occupation 
      1       1.8992      1.00000
      2       5.4902      1.00000
      3       6.3160      0.24694
      4       7.2712      0.00000
      5      12.0284      0.00000
      6      12.5441      0.00000
      7      17.8419      0.00000
      8      20.1963      0.00000
      9      20.7174      0.00000

 k-point  56 :      -0.4375    0.4375    0.3125
  band No.  band energies     occupation 
      1       2.9949      1.00000
      2       4.6273      1.00000
      3       5.8644      1.00000
      4       8.0973      0.00000
      5      11.7243      0.00000
      6      14.4245      0.00000
      7      16.9221      0.00000
      8      20.1997      0.00000
      9      22.1146      0.00000

 k-point  57 :      -0.3125    0.4375    0.3125
  band No.  band energies     occupation 
      1       3.5434      1.00000
      2       4.2771      1.00000
      3       5.6810      1.00000
      4       8.8533      0.00000
      5      12.1376      0.00000
      6      14.8552      0.00000
      7      17.7309      0.00000
      8      20.1007      0.00000
      9      20.2536      0.00000

 k-point  58 :      -0.4375   -0.4375    0.3125
  band No.  band energies     occupation 
      1       3.0313      1.00000
      2       4.3188      1.00000
      3       6.2064      1.01169
      4       8.5070      0.00000
      5      12.3132      0.00000
      6      14.3613      0.00000
      7      16.4194      0.00000
      8      20.1983      0.00000
      9      22.0264      0.00000

 k-point  59 :       0.4375    0.4375    0.4375
  band No.  band energies     occupation 
      1       1.4337      1.00000
      2       6.5771      0.00000
      3       6.5771      0.00000
      4       6.9314      0.00000
      5      12.3092      0.00000
      6      12.3092      0.00000
      7      17.3504      0.00000
      8      19.2280      0.00000
      9      20.2048      0.00000

 k-point  60 :      -0.4375    0.4375    0.4375
  band No.  band energies     occupation 
      1       2.0552      1.00000
      2       5.5847      1.00000
      3       6.8637      0.00000
      4       7.0245      0.00000
      5      12.1945      0.00000
      6      13.5656      0.00000
      7      16.8183      0.00000
      8      20.0271      0.00000
      9      20.2008      0.00000


--------------------------------------------------------------------------------------------------------


 soft charge-density along one line, spin component           1
         0         1         2         3         4         5         6         7         8         9
 total charge-density along one line
 
 soft charge-density along one line, spin component           2
         0         1         2         3         4         5         6         7         8         9
 total charge-density along one line
 
 pseudopotential strength for first ion, spin component:           1
 -6.508   0.000   0.000   0.000   0.000   0.094   0.000   0.000
  0.000  -6.508   0.000   0.000   0.000   0.000   0.094   0.000
  0.000   0.000  -6.520   0.000   0.000   0.000   0.000   0.094
  0.000   0.000   0.000  -6.508   0.000   0.000   0.000   0.000
  0.000   0.000   0.000   0.000  -6.520   0.000   0.000   0.000
  0.094   0.000   0.000   0.000   0.000   0.071   0.000   0.000
  0.000   0.094   0.000   0.000   0.000   0.000   0.071   0.000
  0.000   0.000   0.094   0.000   0.000   0.000   0.000   0.071
  0.000   0.000   0.000   0.094   0.000   0.000   0.000   0.000
  0.000   0.000   0.000   0.000   0.094   0.000   0.000   0.000
  0.000   0.000   0.000   0.000   0.000   0.000   0.000   0.000
  0.000   0.000   0.000   0.000   0.000   0.000   0.000   0.000
  0.000   0.000   0.000   0.000   0.000   0.000   0.000   0.000
  0.000   0.000   0.000   0.000   0.000   0.000   0.000   0.000
  0.000   0.000   0.000   0.000   0.000   0.000   0.000   0.000
  0.000   0.000   0.000   0.000   0.000   0.000   0.000   0.000
  0.000   0.000   0.000   0.000   0.000   0.000   0.000   0.000
  0.000   0.000   0.000   0.000   0.000   0.000   0.000   0.000
 pseudopotential strength for first ion, spin component:           2
 -6.508   0.000   0.000   0.000   0.000   0.094   0.000   0.000
  0.000  -6.508   0.000   0.000   0.000   0.000   0.094   0.000
  0.000   0.000  -6.520   0.000   0.000   0.000   0.000   0.094
  0.000   0.000   0.000  -6.508   0.000   0.000   0.000   0.000
  0.000   0.000   0.000   0.000  -6.520   0.000   0.000   0.000
  0.094   0.000   0.000   0.000   0.000   0.071   0.000   0.000
  0.000   0.094   0.000   0.000   0.000   0.000   0.071   0.000
  0.000   0.000   0.094   0.000   0.000   0.000   0.000   0.071
  0.000   0.000   0.000   0.094   0.000   0.000   0.000   0.000
  0.000   0.000   0.000   0.000   0.094   0.000   0.000   0.000
  0.000   0.000   0.000   0.000   0.000   0.000   0.000   0.000
  0.000   0.000   0.000   0.000   0.000   0.000   0.000   0.000
  0.000   0.000   0.000   0.000   0.000   0.000   0.000   0.000
  0.000   0.000   0.000   0.000   0.000   0.000   0.000   0.000
  0.000   0.000   0.000   0.000   0.000   0.000   0.000   0.000
  0.000   0.000   0.000   0.000   0.000   0.000   0.000   0.000
  0.000   0.000   0.000   0.000   0.000   0.000   0.000   0.000
  0.000   0.000   0.000   0.000   0.000   0.000   0.000   0.000
 total augmentation occupancy for first ion, spin component:           1
  0.777   0.000   0.000   0.000   0.000  -0.584   0.000   0.000   0.000   0.000   0.000   0.000   0.000   0.000   0.000   0.000
  0.000   0.777   0.000   0.000   0.000   0.000  -0.584   0.000   0.000   0.000   0.000   0.000   0.000   0.000   0.000   0.000
  0.000   0.000   0.548   0.000   0.000   0.000   0.000  -0.455   0.000   0.000   0.000   0.000   0.000   0.000   0.000   0.000
  0.000   0.000   0.000   0.777   0.000   0.000   0.000   0.000  -0.584   0.000   0.000   0.000   0.000   0.000   0.000   0.000
  0.000   0.000   0.000   0.000   0.548   0.000   0.000   0.000   0.000  -0.455   0.000   0.000   0.000   0.000   0.000   0.000
 -0.584   0.000   0.000   0.000   0.000   0.503   0.000   0.000   0.000   0.000   0.000   0.000   0.000   0.000   0.000   0.000
  0.000  -0.584   0.000   0.000   0.000   0.000   0.503   0.000   0.000   0.000   0.000   0.000   0.000   0.000   0.000   0.000
  0.000   0.000  -0.455   0.000   0.000   0.000   0.000   0.431   0.000   0.000   0.000   0.000   0.000   0.000   0.000   0.000
  0.000   0.000   0.000  -0.584   0.000   0.000   0.000   0.000   0.503   0.000   0.000   0.000   0.000   0.000   0.000   0.000
  0.000   0.000   0.000   0.000  -0.455   0.000   0.000   0.000   0.000   0.431   0.000   0.000   0.000   0.000   0.000   0.000
  0.000   0.000   0.000   0.000   0.000   0.000   0.000   0.000   0.000   0.000   1.484  -0.300   0.000   0.000   0.000   0.000
  0.000   0.000   0.000   0.000   0.000   0.000   0.000   0.000   0.000   0.000  -0.300   0.066   0.000   0.000   0.000   0.000
  0.000   0.000   0.000   0.000   0.000   0.000   0.000   0.000   0.000   0.000   0.000   0.000   0.336   0.000   0.000   0.012
  0.000   0.000   0.000   0.000   0.000   0.000   0.000   0.000   0.000   0.000   0.000   0.000   0.000   0.336   0.000   0.000
  0.000   0.000   0.000   0.000   0.000   0.000   0.000   0.000   0.000   0.000   0.000   0.000   0.000   0.000   0.336   0.000
  0.000   0.000   0.000   0.000   0.000   0.000   0.000   0.000   0.000   0.000   0.000   0.000   0.012   0.000   0.000   0.001
  0.000   0.000   0.000   0.000   0.000   0.000   0.000   0.000   0.000   0.000   0.000   0.000   0.000   0.012   0.000   0.000
  0.000   0.000   0.000   0.000   0.000   0.000   0.000   0.000   0.000   0.000   0.000   0.000   0.000   0.000   0.012   0.000
 total augmentation occupancy for first ion, spin component:           2
  0.000   0.000   0.000   0.000   0.000   0.000   0.000   0.000   0.000   0.000   0.000   0.000   0.000   0.000   0.000   0.000
  0.000   0.000   0.000   0.000   0.000   0.000   0.000   0.000   0.000   0.000   0.000   0.000   0.000   0.000   0.000   0.000
  0.000   0.000   0.000   0.000   0.000   0.000   0.000   0.000   0.000   0.000   0.000   0.000   0.000   0.000   0.000   0.000
  0.000   0.000   0.000   0.000   0.000   0.000   0.000   0.000   0.000   0.000   0.000   0.000   0.000   0.000   0.000   0.000
  0.000   0.000   0.000   0.000   0.000   0.000   0.000   0.000   0.000   0.000   0.000   0.000   0.000   0.000   0.000   0.000
  0.000   0.000   0.000   0.000   0.000   0.000   0.000   0.000   0.000   0.000   0.000   0.000   0.000   0.000   0.000   0.000
  0.000   0.000   0.000   0.000   0.000   0.000   0.000   0.000   0.000   0.000   0.000   0.000   0.000   0.000   0.000   0.000
  0.000   0.000   0.000   0.000   0.000   0.000   0.000   0.000   0.000   0.000   0.000   0.000   0.000   0.000   0.000   0.000
  0.000   0.000   0.000   0.000   0.000   0.000   0.000   0.000   0.000   0.000   0.000   0.000   0.000   0.000   0.000   0.000
  0.000   0.000   0.000   0.000   0.000   0.000   0.000   0.000   0.000   0.000   0.000   0.000   0.000   0.000   0.000   0.000
  0.000   0.000   0.000   0.000   0.000   0.000   0.000   0.000   0.000   0.000   0.000  -0.002   0.000   0.000   0.000   0.000
  0.000   0.000   0.000   0.000   0.000   0.000   0.000   0.000   0.000   0.000  -0.002   0.001   0.000   0.000   0.000   0.000
  0.000   0.000   0.000   0.000   0.000   0.000   0.000   0.000   0.000   0.000   0.000   0.000   0.000   0.000   0.000   0.000
  0.000   0.000   0.000   0.000   0.000   0.000   0.000   0.000   0.000   0.000   0.000   0.000   0.000   0.000   0.000   0.000
  0.000   0.000   0.000   0.000   0.000   0.000   0.000   0.000   0.000   0.000   0.000   0.000   0.000   0.000   0.000   0.000
  0.000   0.000   0.000   0.000   0.000   0.000   0.000   0.000   0.000   0.000   0.000   0.000   0.000   0.000   0.000   0.000
  0.000   0.000   0.000   0.000   0.000   0.000   0.000   0.000   0.000   0.000   0.000   0.000   0.000   0.000   0.000   0.000
  0.000   0.000   0.000   0.000   0.000   0.000   0.000   0.000   0.000   0.000   0.000   0.000   0.000   0.000   0.000   0.000


------------------------ aborting loop because EDIFF is reached ----------------------------------------


 


 total charge     
 
# of ion     s       p       d       tot
----------------------------------------
  1        0.752   0.775   3.331   4.858
 


 magnetization (x)
 
# of ion     s       p       d       tot
----------------------------------------
  1        0.000   0.000   0.000   0.000
 
    CHARGE:  cpu time    0.20: real time    0.21
    FORLOC:  cpu time    0.00: real time    0.00
    FORNL :  cpu time    0.39: real time    0.39
    STRESS:  cpu time    0.75: real time    0.75
    FORCOR:  cpu time    0.20: real time    0.20
    FORHAR:  cpu time    0.02: real time    0.02
    MIXING:  cpu time    0.00: real time    0.01

  FORCE on cell =-STRESS in cart. coord.  units (eV):
  Direction    XX          YY          ZZ          XY          YZ          ZX
  --------------------------------------------------------------------------------------
  Alpha Z    31.48827    31.48827    31.48827
  Ewald     -66.60718   -66.60718   -66.60718     0.00000     0.00000     0.00000
  Hartree     0.19235     0.19235     0.19235     0.00000     0.00000     0.00000
  E(xc)     -22.68321   -22.68321   -22.68321     0.00000     0.00000     0.00000
  Local       3.47240     3.47240     3.47240     0.00000     0.00000     0.00000
  n-local    -5.96639    -2.64454    -7.58393     2.05201    -1.97551     0.00906
  augment     2.90975     2.90975     2.90975     0.00000     0.00000     0.00000
  Kinetic    60.28614    56.37494    57.43840    -2.04979     2.10879    -0.24117
  Fock        0.00000     0.00000     0.00000     0.00000     0.00000     0.00000
  -------------------------------------------------------------------------------------
  Total       1.40725     1.40725     1.40725     0.00000     0.00000     0.00000
  in kB     128.02419   128.02419   128.02419     0.00000     0.00000     0.00000
  external pressure =      128.02 kB  Pullay stress =        0.00 kB


 VOLUME and BASIS-vectors are now :
 -----------------------------------------------------------------------------
  energy-cutoff  :      400.00
  volume of cell :       17.61
      direct lattice vectors                 reciprocal lattice vectors
     0.000000000  2.065000000  2.065000000    -0.242130751  0.242130751  0.242130751
     2.065000000  0.000000000  2.065000000     0.242130751 -0.242130751  0.242130751
     2.065000000  2.065000000  0.000000000     0.242130751  0.242130751 -0.242130751

  length of vectors
     2.920351006  2.920351006  2.920351006     0.419382762  0.419382762  0.419382762


 FORCES acting on ions
    electron-ion (+dipol)            ewald-force                    non-local-force                 convergence-correction
 -----------------------------------------------------------------------------------------------
   -.172E-14 0.259E-15 -.343E-15   -.321E-16 -.116E-15 -.807E-15   0.000E+00 0.000E+00 0.000E+00   0.368E-15 -.309E-15 -.436E-15
 -----------------------------------------------------------------------------------------------
   -.172E-14 0.259E-15 -.343E-15   -.321E-16 -.116E-15 -.807E-15   0.000E+00 0.000E+00 0.000E+00   0.368E-15 -.309E-15 -.436E-15
 
 
 POSITION                                       TOTAL-FORCE (eV/Angst)
 -----------------------------------------------------------------------------------
      0.00000      0.00000      0.00000         0.000000      0.000000      0.000000
 -----------------------------------------------------------------------------------
    total drift:                                0.000000      0.000000      0.000000


--------------------------------------------------------------------------------------------------------



  FREE ENERGIE OF THE ION-ELECTRON SYSTEM (eV)
  ---------------------------------------------------
  free  energy   TOTEN  =       -11.577334 eV

  energy  without entropy=      -11.577705  energy(sigma->0) =      -11.577458
 


--------------------------------------------------------------------------------------------------------


    POTLOK:  cpu time    0.25: real time    0.25


--------------------------------------------------------------------------------------------------------


 writing wavefunctions
     LOOP+:  cpu time   46.85: real time   47.16
    4ORBIT:  cpu time    0.00: real time    0.00
 


 total charge     
 
# of ion     s       p       d       tot
----------------------------------------
  1        0.752   0.775   3.331   4.858
 


 magnetization (x)
 
# of ion     s       p       d       tot
----------------------------------------
  1        0.000   0.000   0.000   0.000
 

 total amount of memory used by VASP on root node    46650. kBytes
========================================================================

   base      :      30000. kBytes
   nonl-proj :       2865. kBytes
   fftplans  :       2284. kBytes
   grid      :       5440. kBytes
   one-center:         31. kBytes
   wavefun   :       6030. kBytes
 
  
  
 General timing and accounting informations for this job:
 ========================================================
  
                  Total CPU time used (sec):       47.700
                            User time (sec):       47.598
                          System time (sec):        0.102
                         Elapsed time (sec):       48.203
  
                   Maximum memory used (kb):           0.
                   Average memory used (kb):           0.
  
                          Minor page faults:        12596
                          Major page faults:            0
                 Voluntary context switches:          619
