PROCAR lm decomposed
# of k-points:   60         # of bands:   9         # of ions:   1

 k-point    1 :    0.06250000 0.06250000 0.06250000     weight = 0.00390625

band   1 # energy   -1.87316998 # occ.  1.00000000
 
ion      s     py     pz     px    dxy    dyz    dz2    dxz    dx2    tot
  1  0.880  0.004  0.004  0.004  0.000  0.000  0.000  0.000  0.000  0.893
 
band   2 # energy    6.62608896 # occ.  0.00000000
 
ion      s     py     pz     px    dxy    dyz    dz2    dxz    dx2    tot
  1  0.000  0.002  0.002  0.002  0.337  0.337  0.000  0.337  0.000  1.019
 
band   3 # energy    6.85639296 # occ.  0.00000000
 
ion      s     py     pz     px    dxy    dyz    dz2    dxz    dx2    tot
  1  0.000  0.001  0.001  0.000  0.393  0.280  0.001  0.348  0.000  1.023
 
band   4 # energy    6.85639296 # occ.  0.00000000
 
ion      s     py     pz     px    dxy    dyz    dz2    dxz    dx2    tot
  1  0.000  0.000  0.000  0.001  0.287  0.400  0.000  0.333  0.001  1.023
 
band   5 # energy    9.95119852 # occ.  0.00000000
 
ion      s     py     pz     px    dxy    dyz    dz2    dxz    dx2    tot
  1  0.000  0.000  0.000  0.000  0.001  0.000  0.727  0.000  0.266  0.994
 
band   6 # energy    9.95119852 # occ.  0.00000000
 
ion      s     py     pz     px    dxy    dyz    dz2    dxz    dx2    tot
  1  0.000  0.000  0.000  0.000  0.000  0.000  0.266  0.000  0.727  0.994
 
band   7 # energy   19.34380171 # occ.  0.00000000
 
ion      s     py     pz     px    dxy    dyz    dz2    dxz    dx2    tot
  1  0.000  0.000  0.000  0.000  0.005  0.005  0.000  0.005  0.000  0.016
 
band   8 # energy   20.19372043 # occ.  0.00000000
 
ion      s     py     pz     px    dxy    dyz    dz2    dxz    dx2    tot
  1 43.925  0.000  0.000  0.000  0.000  0.000  0.000  0.000  0.000 43.925
 
band   9 # energy   23.30294589 # occ.  0.00000000
 
ion      s     py     pz     px    dxy    dyz    dz2    dxz    dx2    tot
  1  0.042  0.034  0.034  0.034  0.003  0.003  0.000  0.003  0.000  0.150
 

 k-point    2 :    0.18750000 0.06250000 0.06250000     weight = 0.01171875

band   1 # energy   -1.04002281 # occ.  1.00000000
 
ion      s     py     pz     px    dxy    dyz    dz2    dxz    dx2    tot
  1  0.824  0.036  0.036  0.004  0.001  0.007  0.000  0.001  0.001  0.910
 
band   2 # energy    5.98814220 # occ.  1.00000000
 
ion      s     py     pz     px    dxy    dyz    dz2    dxz    dx2    tot
  1  0.000  0.004  0.004  0.027  0.462  0.040  0.000  0.462  0.000  0.998
 
band   3 # energy    7.18814432 # occ.  0.00000000
 
ion      s     py     pz     px    dxy    dyz    dz2    dxz    dx2    tot
  1  0.000  0.011  0.011  0.001  0.021  0.869  0.018  0.021  0.055  1.008
 
band   4 # energy    7.21754411 # occ.  0.00000000
 
ion      s     py     pz     px    dxy    dyz    dz2    dxz    dx2    tot
  1  0.000  0.000  0.000  0.000  0.495  0.000  0.013  0.495  0.004  1.010
 
band   5 # energy    9.30837685 # occ.  0.00000000
 
ion      s     py     pz     px    dxy    dyz    dz2    dxz    dx2    tot
  1  0.000  0.000  0.000  0.000  0.009  0.000  0.713  0.009  0.238  0.969
 
band   6 # energy   10.08177597 # occ.  0.00000000
 
ion      s     py     pz     px    dxy    dyz    dz2    dxz    dx2    tot
  1  0.002  0.001  0.001  0.000  0.001  0.067  0.226  0.001  0.677  0.978
 
band   7 # energy   20.19285795 # occ.  0.00000000
 
ion      s     py     pz     px    dxy    dyz    dz2    dxz    dx2    tot
  1 43.777  0.000  0.000  0.000  0.000  0.000  0.000  0.000  0.000 43.777
 
band   8 # energy   20.81059641 # occ.  0.00000000
 
ion      s     py     pz     px    dxy    dyz    dz2    dxz    dx2    tot
  1  0.078  0.005  0.005  0.004  0.021  0.000  0.001  0.021  0.002  0.138
 
band   9 # energy   21.75460913 # occ.  0.00000000
 
ion      s     py     pz     px    dxy    dyz    dz2    dxz    dx2    tot
  1  0.146  0.027  0.027  0.007  0.021  0.030  0.004  0.021  0.013  0.296
 

 k-point    3 :    0.31250000 0.06250000 0.06250000     weight = 0.01171875

band   1 # energy    0.54620499 # occ.  1.00000000
 
ion      s     py     pz     px    dxy    dyz    dz2    dxz    dx2    tot
  1  0.670  0.064  0.064  0.015  0.039  0.061  0.001  0.039  0.002  0.954
 
band   2 # energy    5.46376253 # occ.  1.00000000
 
ion      s     py     pz     px    dxy    dyz    dz2    dxz    dx2    tot
  1  0.018  0.052  0.052  0.090  0.337  0.083  0.001  0.337  0.002  0.973
 
band   3 # energy    7.03569292 # occ.  0.00000000
 
ion      s     py     pz     px    dxy    dyz    dz2    dxz    dx2    tot
  1  0.000  0.010  0.010  0.002  0.055  0.479  0.094  0.055  0.283  0.988
 
band   4 # energy    7.27240217 # occ.  0.00000000
 
ion      s     py     pz     px    dxy    dyz    dz2    dxz    dx2    tot
  1  0.000  0.000  0.000  0.000  0.292  0.000  0.305  0.292  0.102  0.992
 
band   5 # energy    9.68756192 # occ.  0.00000000
 
ion      s     py     pz     px    dxy    dyz    dz2    dxz    dx2    tot
  1  0.000  0.005  0.005  0.000  0.198  0.000  0.409  0.198  0.136  0.951
 
band   6 # energy   10.94919761 # occ.  0.00000000
 
ion      s     py     pz     px    dxy    dyz    dz2    dxz    dx2    tot
  1  0.005  0.012  0.012  0.001  0.022  0.311  0.144  0.022  0.433  0.961
 
band   7 # energy   19.14716966 # occ.  0.00000000
 
ion      s     py     pz     px    dxy    dyz    dz2    dxz    dx2    tot
  1  0.078  0.018  0.018  0.019  0.007  0.035  0.004  0.007  0.012  0.197
 
band   8 # energy   20.19687431 # occ.  0.00000000
 
ion      s     py     pz     px    dxy    dyz    dz2    dxz    dx2    tot
  1 43.891  0.000  0.000  0.000  0.000  0.000  0.000  0.000  0.000 43.891
 
band   9 # energy   23.41601503 # occ.  0.00000000
 
ion      s     py     pz     px    dxy    dyz    dz2    dxz    dx2    tot
  1  0.178  0.055  0.055  0.045  0.141  0.107  0.000  0.141  0.000  0.721
 

 k-point    4 :    0.43750000 0.06250000 0.06250000     weight = 0.01171875

band   1 # energy    1.50524994 # occ.  1.00000000
 
ion      s     py     pz     px    dxy    dyz    dz2    dxz    dx2    tot
  1  0.432  0.026  0.026  0.001  0.172  0.187  0.000  0.172  0.001  1.016
 
band   2 # energy    6.22916525 # occ.  1.03096523
 
ion      s     py     pz     px    dxy    dyz    dz2    dxz    dx2    tot
  1  0.029  0.167  0.167  0.141  0.030  0.127  0.057  0.030  0.170  0.916
 
band   3 # energy    6.61176859 # occ.  0.00000000
 
ion      s     py     pz     px    dxy    dyz    dz2    dxz    dx2    tot
  1  0.018  0.032  0.032  0.082  0.158  0.181  0.084  0.158  0.251  0.995
 
band   4 # energy    6.78397339 # occ.  0.00000000
 
ion      s     py     pz     px    dxy    dyz    dz2    dxz    dx2    tot
  1  0.000  0.000  0.000  0.000  0.198  0.000  0.448  0.198  0.149  0.993
 
band   5 # energy   11.43600900 # occ.  0.00000000
 
ion      s     py     pz     px    dxy    dyz    dz2    dxz    dx2    tot
  1  0.000  0.006  0.006  0.000  0.291  0.000  0.269  0.291  0.090  0.952
 
band   6 # energy   12.49207424 # occ.  0.00000000
 
ion      s     py     pz     px    dxy    dyz    dz2    dxz    dx2    tot
  1  0.006  0.020  0.020  0.001  0.051  0.417  0.102  0.051  0.306  0.973
 
band   7 # energy   17.69833821 # occ.  0.00000000
 
ion      s     py     pz     px    dxy    dyz    dz2    dxz    dx2    tot
  1  0.207  0.015  0.015  0.014  0.060  0.111  0.002  0.060  0.007  0.490
 
band   8 # energy   20.15877271 # occ.  0.00000000
 
ion      s     py     pz     px    dxy    dyz    dz2    dxz    dx2    tot
  1 32.799  0.014  0.014  0.008  0.016  0.007  0.000  0.016  0.000 32.872
 
band   9 # energy   20.34114862 # occ.  0.00000000
 
ion      s     py     pz     px    dxy    dyz    dz2    dxz    dx2    tot
  1 11.481  0.050  0.050  0.030  0.068  0.035  0.000  0.068  0.001 11.783
 

 k-point    5 :   -0.43750000 0.06250000 0.06250000     weight = 0.01171875

band   1 # energy    1.61797770 # occ.  1.00000000
 
ion      s     py     pz     px    dxy    dyz    dz2    dxz    dx2    tot
  1  0.362  0.000  0.000  0.012  0.213  0.233  0.000  0.213  0.000  1.034
 
band   2 # energy    6.20187162 # occ.  1.00887465
 
ion      s     py     pz     px    dxy    dyz    dz2    dxz    dx2    tot
  1  0.000  0.043  0.043  0.021  0.055  0.145  0.149  0.055  0.447  0.957
 
band   3 # energy    6.66184180 # occ.  0.00000000
 
ion      s     py     pz     px    dxy    dyz    dz2    dxz    dx2    tot
  1  0.000  0.002  0.002  0.000  0.194  0.000  0.452  0.194  0.151  0.996
 
band   4 # energy    7.15619538 # occ.  0.00000000
 
ion      s     py     pz     px    dxy    dyz    dz2    dxz    dx2    tot
  1  0.004  0.229  0.229  0.249  0.018  0.166  0.005  0.018  0.015  0.933
 
band   5 # energy   12.60895848 # occ.  0.00000000
 
ion      s     py     pz     px    dxy    dyz    dz2    dxz    dx2    tot
  1  0.000  0.000  0.000  0.000  0.306  0.000  0.277  0.306  0.092  0.981
 
band   6 # energy   12.71470224 # occ.  0.00000000
 
ion      s     py     pz     px    dxy    dyz    dz2    dxz    dx2    tot
  1  0.000  0.015  0.015  0.034  0.099  0.350  0.089  0.099  0.266  0.965
 
band   7 # energy   17.15346623 # occ.  0.00000000
 
ion      s     py     pz     px    dxy    dyz    dz2    dxz    dx2    tot
  1  0.420  0.001  0.001  0.002  0.167  0.131  0.000  0.167  0.000  0.889
 
band   8 # energy   18.99333516 # occ.  0.00000000
 
ion      s     py     pz     px    dxy    dyz    dz2    dxz    dx2    tot
  1  0.007  0.018  0.018  0.024  0.000  0.026  0.002  0.000  0.005  0.100
 
band   9 # energy   20.20088317 # occ.  0.00000000
 
ion      s     py     pz     px    dxy    dyz    dz2    dxz    dx2    tot
  1 44.194  0.000  0.000  0.000  0.000  0.000  0.000  0.000  0.000 44.195
 

 k-point    6 :   -0.31250000 0.06250000 0.06250000     weight = 0.01171875

band   1 # energy    1.31645795 # occ.  1.00000000
 
ion      s     py     pz     px    dxy    dyz    dz2    dxz    dx2    tot
  1  0.503  0.014  0.014  0.062  0.131  0.139  0.001  0.131  0.003  0.998
 
band   2 # energy    5.83076028 # occ.  1.00000000
 
ion      s     py     pz     px    dxy    dyz    dz2    dxz    dx2    tot
  1  0.045  0.157  0.157  0.132  0.089  0.215  0.013  0.089  0.039  0.935
 
band   3 # energy    6.63809745 # occ.  0.00000000
 
ion      s     py     pz     px    dxy    dyz    dz2    dxz    dx2    tot
  1  0.006  0.001  0.001  0.003  0.065  0.325  0.131  0.065  0.393  0.990
 
band   4 # energy    6.99400937 # occ.  0.00000000
 
ion      s     py     pz     px    dxy    dyz    dz2    dxz    dx2    tot
  1  0.000  0.006  0.006  0.000  0.239  0.000  0.378  0.239  0.126  0.995
 
band   5 # energy   11.06359064 # occ.  0.00000000
 
ion      s     py     pz     px    dxy    dyz    dz2    dxz    dx2    tot
  1  0.005  0.004  0.004  0.043  0.140  0.244  0.092  0.140  0.277  0.948
 
band   6 # energy   11.80297544 # occ.  0.00000000
 
ion      s     py     pz     px    dxy    dyz    dz2    dxz    dx2    tot
  1  0.000  0.006  0.006  0.000  0.245  0.000  0.348  0.245  0.116  0.965
 
band   7 # energy   18.09027080 # occ.  0.00000000
 
ion      s     py     pz     px    dxy    dyz    dz2    dxz    dx2    tot
  1  0.127  0.018  0.018  0.015  0.061  0.021  0.002  0.061  0.006  0.329
 
band   8 # energy   20.19260906 # occ.  0.00000000
 
ion      s     py     pz     px    dxy    dyz    dz2    dxz    dx2    tot
  1 43.586  0.000  0.000  0.000  0.000  0.000  0.000  0.000  0.000 43.587
 
band   9 # energy   21.47217213 # occ.  0.00000000
 
ion      s     py     pz     px    dxy    dyz    dz2    dxz    dx2    tot
  1  0.679  0.067  0.067  0.091  0.091  0.116  0.001  0.091  0.004  1.205
 

 k-point    7 :   -0.18750000 0.06250000 0.06250000     weight = 0.01171875

band   1 # energy    0.00555156 # occ.  1.00000000
 
ion      s     py     pz     px    dxy    dyz    dz2    dxz    dx2    tot
  1  0.734  0.025  0.025  0.083  0.024  0.016  0.001  0.024  0.003  0.935
 
band   2 # energy    5.49558344 # occ.  1.00000000
 
ion      s     py     pz     px    dxy    dyz    dz2    dxz    dx2    tot
  1  0.007  0.043  0.043  0.023  0.144  0.578  0.000  0.144  0.001  0.983
 
band   3 # energy    7.20160566 # occ.  0.00000000
 
ion      s     py     pz     px    dxy    dyz    dz2    dxz    dx2    tot
  1  0.000  0.002  0.002  0.005  0.195  0.267  0.081  0.195  0.242  0.988
 
band   4 # energy    7.37550505 # occ.  0.00000000
 
ion      s     py     pz     px    dxy    dyz    dz2    dxz    dx2    tot
  1  0.000  0.010  0.010  0.000  0.377  0.000  0.170  0.377  0.057  1.000
 
band   5 # energy    9.41309019 # occ.  0.00000000
 
ion      s     py     pz     px    dxy    dyz    dz2    dxz    dx2    tot
  1  0.005  0.001  0.001  0.017  0.101  0.108  0.156  0.101  0.467  0.956
 
band   6 # energy   10.45385484 # occ.  0.00000000
 
ion      s     py     pz     px    dxy    dyz    dz2    dxz    dx2    tot
  1  0.000  0.004  0.004  0.000  0.108  0.000  0.557  0.108  0.186  0.965
 
band   7 # energy   19.79840812 # occ.  0.00000000
 
ion      s     py     pz     px    dxy    dyz    dz2    dxz    dx2    tot
  1  0.465  0.020  0.020  0.017  0.012  0.000  0.004  0.012  0.011  0.560
 
band   8 # energy   20.20078191 # occ.  0.00000000
 
ion      s     py     pz     px    dxy    dyz    dz2    dxz    dx2    tot
  1 43.507  0.000  0.000  0.000  0.000  0.000  0.000  0.000  0.000 43.508
 
band   9 # energy   23.15314709 # occ.  0.00000000
 
ion      s     py     pz     px    dxy    dyz    dz2    dxz    dx2    tot
  1  0.075  0.019  0.019  0.017  0.078  0.131  0.000  0.078  0.001  0.419
 

 k-point    8 :   -0.06250000 0.06250000 0.06250000     weight = 0.01171875

band   1 # energy   -1.44324110 # occ.  1.00000000
 
ion      s     py     pz     px    dxy    dyz    dz2    dxz    dx2    tot
  1  0.852  0.004  0.004  0.038  0.001  0.000  0.000  0.001  0.001  0.901
 
band   2 # energy    6.21094193 # occ.  1.01498225
 
ion      s     py     pz     px    dxy    dyz    dz2    dxz    dx2    tot
  1  0.000  0.005  0.005  0.001  0.064  0.868  0.000  0.064  0.000  1.007
 
band   3 # energy    7.09023392 # occ.  0.00000000
 
ion      s     py     pz     px    dxy    dyz    dz2    dxz    dx2    tot
  1  0.000  0.004  0.004  0.003  0.430  0.137  0.002  0.430  0.006  1.015
 
band   4 # energy    7.10485871 # occ.  0.00000000
 
ion      s     py     pz     px    dxy    dyz    dz2    dxz    dx2    tot
  1  0.000  0.007  0.007  0.000  0.496  0.000  0.007  0.496  0.002  1.015
 
band   5 # energy    9.39273965 # occ.  0.00000000
 
ion      s     py     pz     px    dxy    dyz    dz2    dxz    dx2    tot
  1  0.001  0.000  0.000  0.001  0.003  0.001  0.241  0.003  0.722  0.973
 
band   6 # energy   10.13641864 # occ.  0.00000000
 
ion      s     py     pz     px    dxy    dyz    dz2    dxz    dx2    tot
  1  0.000  0.000  0.000  0.000  0.005  0.000  0.736  0.005  0.245  0.991
 
band   7 # energy   20.19353300 # occ.  0.00000000
 
ion      s     py     pz     px    dxy    dyz    dz2    dxz    dx2    tot
  1 43.667  0.000  0.000  0.000  0.000  0.000  0.000  0.000  0.000 43.667
 
band   8 # energy   20.22618557 # occ.  0.00000000
 
ion      s     py     pz     px    dxy    dyz    dz2    dxz    dx2    tot
  1  0.226  0.000  0.000  0.000  0.004  0.042  0.000  0.004  0.000  0.276
 
band   9 # energy   22.52216615 # occ.  0.00000000
 
ion      s     py     pz     px    dxy    dyz    dz2    dxz    dx2    tot
  1  0.095  0.018  0.018  0.040  0.008  0.003  0.006  0.008  0.019  0.214
 

 k-point    9 :    0.18750000 0.18750000 0.06250000     weight = 0.01171875

band   1 # energy   -0.63752631 # occ.  1.00000000
 
ion      s     py     pz     px    dxy    dyz    dz2    dxz    dx2    tot
  1  0.793  0.004  0.100  0.004  0.000  0.002  0.011  0.002  0.000  0.916
 
band   2 # energy    5.50928765 # occ.  1.00000000
 
ion      s     py     pz     px    dxy    dyz    dz2    dxz    dx2    tot
  1  0.000  0.005  0.000  0.005  0.948  0.020  0.000  0.020  0.000  0.998
 
band   3 # energy    7.50968386 # occ.  0.00000000
 
ion      s     py     pz     px    dxy    dyz    dz2    dxz    dx2    tot
  1  0.000  0.014  0.001  0.014  0.043  0.401  0.119  0.401  0.000  0.993
 
band   4 # energy    7.59785859 # occ.  0.00000000
 
ion      s     py     pz     px    dxy    dyz    dz2    dxz    dx2    tot
  1  0.000  0.017  0.000  0.017  0.000  0.470  0.000  0.470  0.027  1.001
 
band   5 # energy    8.56415354 # occ.  0.00000000
 
ion      s     py     pz     px    dxy    dyz    dz2    dxz    dx2    tot
  1  0.010  0.002  0.009  0.002  0.005  0.057  0.811  0.057  0.000  0.953
 
band   6 # energy   10.49030966 # occ.  0.00000000
 
ion      s     py     pz     px    dxy    dyz    dz2    dxz    dx2    tot
  1  0.000  0.000  0.000  0.000  0.000  0.013  0.000  0.013  0.959  0.986
 
band   7 # energy   20.19347051 # occ.  0.00000000
 
ion      s     py     pz     px    dxy    dyz    dz2    dxz    dx2    tot
  1 43.851  0.000  0.000  0.000  0.000  0.000  0.000  0.000  0.000 43.851
 
band   8 # energy   21.73732967 # occ.  0.00000000
 
ion      s     py     pz     px    dxy    dyz    dz2    dxz    dx2    tot
  1  0.025  0.003  0.003  0.003  0.080  0.000  0.012  0.000  0.000  0.126
 
band   9 # energy   22.33307151 # occ.  0.00000000
 
ion      s     py     pz     px    dxy    dyz    dz2    dxz    dx2    tot
  1  0.116  0.014  0.022  0.014  0.026  0.016  0.070  0.016  0.000  0.295
 

 k-point   10 :    0.31250000 0.18750000 0.06250000     weight = 0.02343750

band   1 # energy    0.71814843 # occ.  1.00000000
 
ion      s     py     pz     px    dxy    dyz    dz2    dxz    dx2    tot
  1  0.668  0.026  0.162  0.002  0.004  0.029  0.043  0.005  0.000  0.939
 
band   2 # energy    4.83577413 # occ.  1.00000000
 
ion      s     py     pz     px    dxy    dyz    dz2    dxz    dx2    tot
  1  0.001  0.006  0.003  0.040  0.862  0.007  0.002  0.076  0.000  0.997
 
band   3 # energy    6.81603483 # occ.  0.00000000
 
ion      s     py     pz     px    dxy    dyz    dz2    dxz    dx2    tot
  1  0.013  0.022  0.003  0.000  0.019  0.297  0.553  0.014  0.029  0.950
 
band   4 # energy    8.20593758 # occ.  0.00000000
 
ion      s     py     pz     px    dxy    dyz    dz2    dxz    dx2    tot
  1  0.002  0.012  0.005  0.026  0.043  0.163  0.052  0.526  0.150  0.980
 
band   5 # energy    8.99993705 # occ.  0.00000000
 
ion      s     py     pz     px    dxy    dyz    dz2    dxz    dx2    tot
  1  0.012  0.016  0.036  0.015  0.052  0.196  0.253  0.282  0.101  0.963
 
band   6 # energy   11.28370450 # occ.  0.00000000
 
ion      s     py     pz     px    dxy    dyz    dz2    dxz    dx2    tot
  1  0.005  0.013  0.007  0.000  0.000  0.227  0.020  0.011  0.692  0.975
 
band   7 # energy   20.19028582 # occ.  0.00000000
 
ion      s     py     pz     px    dxy    dyz    dz2    dxz    dx2    tot
  1 43.548  0.000  0.000  0.000  0.000  0.000  0.000  0.000  0.000 43.550
 
band   8 # energy   21.20044741 # occ.  0.00000000
 
ion      s     py     pz     px    dxy    dyz    dz2    dxz    dx2    tot
  1  0.449  0.056  0.022  0.014  0.000  0.071  0.073  0.010  0.012  0.707
 
band   9 # energy   24.12702096 # occ.  0.00000000
 
ion      s     py     pz     px    dxy    dyz    dz2    dxz    dx2    tot
  1  0.030  0.027  0.011  0.004  0.179  0.032  0.000  0.038  0.001  0.324
 

 k-point   11 :    0.43750000 0.18750000 0.06250000     weight = 0.02343750

band   1 # energy    2.06330035 # occ.  1.00000000
 
ion      s     py     pz     px    dxy    dyz    dz2    dxz    dx2    tot
  1  0.437  0.022  0.135  0.000  0.147  0.118  0.058  0.071  0.000  0.987
 
band   2 # energy    4.96866234 # occ.  1.00000000
 
ion      s     py     pz     px    dxy    dyz    dz2    dxz    dx2    tot
  1  0.018  0.098  0.050  0.117  0.391  0.028  0.177  0.064  0.007  0.951
 
band   3 # energy    5.95539465 # occ.  1.00000000
 
ion      s     py     pz     px    dxy    dyz    dz2    dxz    dx2    tot
  1  0.037  0.001  0.032  0.010  0.256  0.199  0.394  0.006  0.038  0.973
 
band   4 # energy    7.82066330 # occ.  0.00000000
 
ion      s     py     pz     px    dxy    dyz    dz2    dxz    dx2    tot
  1  0.001  0.014  0.014  0.013  0.022  0.118  0.064  0.276  0.452  0.974
 
band   5 # energy   11.01185759 # occ.  0.00000000
 
ion      s     py     pz     px    dxy    dyz    dz2    dxz    dx2    tot
  1  0.007  0.011  0.072  0.033  0.113  0.013  0.171  0.424  0.102  0.946
 
band   6 # energy   12.84231453 # occ.  0.00000000
 
ion      s     py     pz     px    dxy    dyz    dz2    dxz    dx2    tot
  1  0.020  0.027  0.038  0.003  0.009  0.440  0.058  0.030  0.360  0.986
 
band   7 # energy   18.79042450 # occ.  0.00000000
 
ion      s     py     pz     px    dxy    dyz    dz2    dxz    dx2    tot
  1  0.199  0.078  0.053  0.048  0.027  0.125  0.013  0.091  0.015  0.650
 
band   8 # energy   20.20142120 # occ.  0.00000000
 
ion      s     py     pz     px    dxy    dyz    dz2    dxz    dx2    tot
  1 44.014  0.000  0.000  0.000  0.000  0.001  0.000  0.000  0.000 44.016
 
band   9 # energy   21.89233225 # occ.  0.00000000
 
ion      s     py     pz     px    dxy    dyz    dz2    dxz    dx2    tot
  1  0.172  0.041  0.081  0.015  0.057  0.003  0.082  0.018  0.001  0.470
 

 k-point   12 :   -0.43750000 0.18750000 0.06250000     weight = 0.02343750

band   1 # energy    2.43841009 # occ.  1.00000000
 
ion      s     py     pz     px    dxy    dyz    dz2    dxz    dx2    tot
  1  0.298  0.000  0.051  0.020  0.296  0.207  0.011  0.144  0.001  1.027
 
band   2 # energy    5.08412411 # occ.  1.00000000
 
ion      s     py     pz     px    dxy    dyz    dz2    dxz    dx2    tot
  1  0.000  0.108  0.016  0.051  0.018  0.059  0.581  0.010  0.064  0.907
 
band   3 # energy    6.55618146 # occ.  0.00000000
 
ion      s     py     pz     px    dxy    dyz    dz2    dxz    dx2    tot
  1  0.006  0.097  0.188  0.152  0.327  0.195  0.008  0.006  0.006  0.985
 
band   4 # energy    7.44229237 # occ.  0.00000000
 
ion      s     py     pz     px    dxy    dyz    dz2    dxz    dx2    tot
  1  0.000  0.005  0.014  0.012  0.016  0.059  0.068  0.244  0.556  0.975
 
band   5 # energy   12.30858147 # occ.  0.00000000
 
ion      s     py     pz     px    dxy    dyz    dz2    dxz    dx2    tot
  1  0.014  0.002  0.007  0.000  0.078  0.160  0.049  0.409  0.243  0.962
 
band   6 # energy   13.95346674 # occ.  0.00000000
 
ion      s     py     pz     px    dxy    dyz    dz2    dxz    dx2    tot
  1  0.001  0.052  0.136  0.094  0.174  0.200  0.224  0.001  0.066  0.947
 
band   7 # energy   16.46858022 # occ.  0.00000000
 
ion      s     py     pz     px    dxy    dyz    dz2    dxz    dx2    tot
  1  0.465  0.002  0.000  0.001  0.078  0.130  0.009  0.193  0.010  0.889
 
band   8 # energy   20.19955069 # occ.  0.00000000
 
ion      s     py     pz     px    dxy    dyz    dz2    dxz    dx2    tot
  1 44.132  0.000  0.000  0.000  0.000  0.000  0.000  0.000  0.000 44.133
 
band   9 # energy   20.87746757 # occ.  0.00000000
 
ion      s     py     pz     px    dxy    dyz    dz2    dxz    dx2    tot
  1  0.011  0.003  0.041  0.014  0.039  0.030  0.063  0.001  0.005  0.208
 

 k-point   13 :   -0.31250000 0.18750000 0.06250000     weight = 0.02343750

band   1 # energy    2.35440433 # occ.  1.00000000
 
ion      s     py     pz     px    dxy    dyz    dz2    dxz    dx2    tot
  1  0.376  0.033  0.007  0.087  0.221  0.167  0.003  0.108  0.008  1.009
 
band   2 # energy    5.31871114 # occ.  1.00000000
 
ion      s     py     pz     px    dxy    dyz    dz2    dxz    dx2    tot
  1  0.005  0.128  0.064  0.065  0.091  0.025  0.411  0.026  0.091  0.906
 
band   3 # energy    5.93491664 # occ.  1.00000000
 
ion      s     py     pz     px    dxy    dyz    dz2    dxz    dx2    tot
  1  0.033  0.023  0.131  0.054  0.167  0.394  0.108  0.077  0.008  0.995
 
band   4 # energy    7.54238408 # occ.  0.00000000
 
ion      s     py     pz     px    dxy    dyz    dz2    dxz    dx2    tot
  1  0.001  0.001  0.002  0.027  0.017  0.074  0.071  0.207  0.571  0.971
 
band   5 # energy   10.98048542 # occ.  0.00000000
 
ion      s     py     pz     px    dxy    dyz    dz2    dxz    dx2    tot
  1  0.000  0.000  0.010  0.028  0.001  0.219  0.005  0.432  0.249  0.944
 
band   6 # energy   13.72557413 # occ.  0.00000000
 
ion      s     py     pz     px    dxy    dyz    dz2    dxz    dx2    tot
  1  0.065  0.031  0.016  0.052  0.472  0.013  0.335  0.007  0.000  0.992
 
band   7 # energy   17.96667727 # occ.  0.00000000
 
ion      s     py     pz     px    dxy    dyz    dz2    dxz    dx2    tot
  1  0.263  0.072  0.037  0.064  0.083  0.059  0.067  0.095  0.000  0.741
 
band   8 # energy   20.20047556 # occ.  0.00000000
 
ion      s     py     pz     px    dxy    dyz    dz2    dxz    dx2    tot
  1 44.102  0.000  0.000  0.000  0.001  0.000  0.000  0.000  0.000 44.104
 
band   9 # energy   21.36720371 # occ.  0.00000000
 
ion      s     py     pz     px    dxy    dyz    dz2    dxz    dx2    tot
  1  0.081  0.030  0.011  0.057  0.011  0.043  0.029  0.020  0.015  0.298
 

 k-point   14 :   -0.18750000 0.18750000 0.06250000     weight = 0.02343750

band   1 # energy    1.29151078 # occ.  1.00000000
 
ion      s     py     pz     px    dxy    dyz    dz2    dxz    dx2    tot
  1  0.618  0.067  0.001  0.144  0.084  0.010  0.011  0.008  0.010  0.954
 
band   2 # energy    4.98375645 # occ.  1.00000000
 
ion      s     py     pz     px    dxy    dyz    dz2    dxz    dx2    tot
  1  0.004  0.010  0.098  0.008  0.004  0.649  0.002  0.216  0.001  0.993
 
band   3 # energy    6.41533258 # occ. -0.00267827
 
ion      s     py     pz     px    dxy    dyz    dz2    dxz    dx2    tot
  1  0.003  0.035  0.000  0.004  0.374  0.019  0.401  0.000  0.111  0.948
 
band   4 # energy    8.06794713 # occ.  0.00000000
 
ion      s     py     pz     px    dxy    dyz    dz2    dxz    dx2    tot
  1  0.002  0.003  0.005  0.016  0.051  0.093  0.037  0.271  0.491  0.969
 
band   5 # energy    9.01213959 # occ.  0.00000000
 
ion      s     py     pz     px    dxy    dyz    dz2    dxz    dx2    tot
  1  0.003  0.001  0.009  0.019  0.018  0.176  0.005  0.412  0.316  0.958
 
band   6 # energy   12.12688806 # occ.  0.00000000
 
ion      s     py     pz     px    dxy    dyz    dz2    dxz    dx2    tot
  1  0.022  0.028  0.000  0.027  0.400  0.001  0.491  0.003  0.008  0.980
 
band   7 # energy   20.16671540 # occ.  0.00000000
 
ion      s     py     pz     px    dxy    dyz    dz2    dxz    dx2    tot
  1 37.769  0.008  0.001  0.006  0.012  0.000  0.009  0.001  0.000 37.807
 
band   8 # energy   20.41088621 # occ.  0.00000000
 
ion      s     py     pz     px    dxy    dyz    dz2    dxz    dx2    tot
  1  6.284  0.053  0.009  0.033  0.097  0.001  0.074  0.006  0.004  6.561
 
band   9 # energy   23.82790340 # occ.  0.00000000
 
ion      s     py     pz     px    dxy    dyz    dz2    dxz    dx2    tot
  1  0.168  0.115  0.019  0.106  0.051  0.087  0.007  0.058  0.011  0.620
 

 k-point   15 :   -0.06250000 0.18750000 0.06250000     weight = 0.02343750

band   1 # energy   -0.28093970 # occ.  1.00000000
 
ion      s     py     pz     px    dxy    dyz    dz2    dxz    dx2    tot
  1  0.766  0.031  0.003  0.094  0.018  0.002  0.003  0.003  0.004  0.924
 
band   2 # energy    5.47699403 # occ.  1.00000000
 
ion      s     py     pz     px    dxy    dyz    dz2    dxz    dx2    tot
  1  0.001  0.005  0.038  0.003  0.017  0.747  0.000  0.182  0.000  0.994
 
band   3 # energy    7.24487081 # occ.  0.00000000
 
ion      s     py     pz     px    dxy    dyz    dz2    dxz    dx2    tot
  1  0.000  0.026  0.000  0.007  0.654  0.037  0.198  0.006  0.057  0.985
 
band   4 # energy    7.61777197 # occ.  0.00000000
 
ion      s     py     pz     px    dxy    dyz    dz2    dxz    dx2    tot
  1  0.000  0.002  0.013  0.000  0.038  0.169  0.008  0.706  0.060  0.996
 
band   5 # energy    8.83303929 # occ.  0.00000000
 
ion      s     py     pz     px    dxy    dyz    dz2    dxz    dx2    tot
  1  0.005  0.002  0.001  0.012  0.078  0.026  0.022  0.053  0.760  0.959
 
band   6 # energy   10.55273909 # occ.  0.00000000
 
ion      s     py     pz     px    dxy    dyz    dz2    dxz    dx2    tot
  1  0.003  0.006  0.000  0.003  0.149  0.000  0.733  0.007  0.071  0.973
 
band   7 # energy   20.19145114 # occ.  0.00000000
 
ion      s     py     pz     px    dxy    dyz    dz2    dxz    dx2    tot
  1 43.601  0.000  0.000  0.000  0.000  0.000  0.000  0.000  0.000 43.602
 
band   8 # energy   21.00346237 # occ.  0.00000000
 
ion      s     py     pz     px    dxy    dyz    dz2    dxz    dx2    tot
  1  0.378  0.028  0.009  0.020  0.030  0.002  0.034  0.001  0.011  0.514
 
band   9 # energy   22.52196061 # occ.  0.00000000
 
ion      s     py     pz     px    dxy    dyz    dz2    dxz    dx2    tot
  1  0.030  0.008  0.000  0.006  0.021  0.097  0.006  0.038  0.001  0.208
 

 k-point   16 :    0.31250000 0.31250000 0.06250000     weight = 0.01171875

band   1 # energy    1.39227682 # occ.  1.00000000
 
ion      s     py     pz     px    dxy    dyz    dz2    dxz    dx2    tot
  1  0.518  0.003  0.196  0.003  0.001  0.003  0.212  0.003  0.000  0.939
 
band   2 # energy    4.00564951 # occ.  1.00000000
 
ion      s     py     pz     px    dxy    dyz    dz2    dxz    dx2    tot
  1  0.000  0.005  0.000  0.005  0.995  0.004  0.001  0.004  0.000  1.012
 
band   3 # energy    6.72101982 # occ.  0.00000000
 
ion      s     py     pz     px    dxy    dyz    dz2    dxz    dx2    tot
  1  0.098  0.002  0.127  0.002  0.002  0.036  0.642  0.036  0.000  0.946
 
band   4 # energy    9.26481749 # occ.  0.00000000
 
ion      s     py     pz     px    dxy    dyz    dz2    dxz    dx2    tot
  1  0.000  0.041  0.000  0.041  0.000  0.390  0.000  0.390  0.102  0.964
 
band   5 # energy    9.67960778 # occ.  0.00000000
 
ion      s     py     pz     px    dxy    dyz    dz2    dxz    dx2    tot
  1  0.009  0.043  0.026  0.043  0.010  0.391  0.046  0.391  0.000  0.960
 
band   6 # energy   11.55224944 # occ.  0.00000000
 
ion      s     py     pz     px    dxy    dyz    dz2    dxz    dx2    tot
  1  0.000  0.003  0.000  0.003  0.000  0.049  0.000  0.049  0.877  0.980
 