<?xml version="1.0" encoding="ISO-8859-1"?>
<modeling>
 <generator>
  <i name="program" type="string">vasp </i>
  <i name="version" type="string">5.2.12  </i>
  <i name="subversion" type="string">11Nov11 complex                                                      parallel </i>
  <i name="platform" type="string">LinuxIFC </i>
  <i name="date" type="string">2012 10 17 </i>
  <i name="time" type="string">11:07:02 </i>
 </generator>
 <incar>
  <i type="int" name="ISTART">     0</i>
  <i type="string" name="PREC">accurate</i>
  <i type="int" name="ISPIN">     2</i>
  <i name="ENCUT">    400.00000000</i>
  <v name="MAGMOM">      6.00000000</v>
  <i type="logical" name="LREAL"> F  </i>
  <i type="int" name="ISMEAR">     1</i>
  <i name="SIGMA">      0.05000000</i>
  <i type="logical" name="LORBIT"> F  </i>
 </incar>
 <kpoints>
  <generation param="Monkhorst-Pack">
   <v type="int" name="divisions">       8        8        8 </v>
   <v name="usershift">      0.00000000       0.00000000       0.00000000 </v>
   <v name="genvec1">      0.12500000       0.00000000       0.00000000 </v>
   <v name="genvec2">      0.00000000       0.12500000       0.00000000 </v>
   <v name="genvec3">      0.00000000       0.00000000       0.12500000 </v>
   <v name="shift">      0.50000000       0.50000000       0.50000000 </v>
  </generation>
  <varray name="kpointlist" >
   <v>       0.06250000       0.06250000       0.06250000 </v>
   <v>       0.18750000       0.06250000       0.06250000 </v>
   <v>       0.31250000       0.06250000       0.06250000 </v>
   <v>       0.43750000       0.06250000       0.06250000 </v>
   <v>      -0.43750000       0.06250000       0.06250000 </v>
   <v>      -0.31250000       0.06250000       0.06250000 </v>
   <v>      -0.18750000       0.06250000       0.06250000 </v>
   <v>      -0.06250000       0.06250000       0.06250000 </v>
   <v>       0.18750000       0.18750000       0.06250000 </v>
   <v>       0.31250000       0.18750000       0.06250000 </v>
   <v>       0.43750000       0.18750000       0.06250000 </v>
   <v>      -0.43750000       0.18750000       0.06250000 </v>
   <v>      -0.31250000       0.18750000       0.06250000 </v>
   <v>      -0.18750000       0.18750000       0.06250000 </v>
   <v>      -0.06250000       0.18750000       0.06250000 </v>
   <v>       0.31250000       0.31250000       0.06250000 </v>
   <v>       0.43750000       0.31250000       0.06250000 </v>
   <v>      -0.43750000       0.31250000       0.06250000 </v>
   <v>      -0.31250000       0.31250000       0.06250000 </v>
   <v>      -0.18750000       0.31250000       0.06250000 </v>
   <v>      -0.06250000       0.31250000       0.06250000 </v>
   <v>       0.43750000       0.43750000       0.06250000 </v>
   <v>      -0.43750000       0.43750000       0.06250000 </v>
   <v>      -0.31250000       0.43750000       0.06250000 </v>
   <v>      -0.18750000       0.43750000       0.06250000 </v>
   <v>      -0.06250000       0.43750000       0.06250000 </v>
   <v>      -0.43750000      -0.43750000       0.06250000 </v>
   <v>      -0.31250000      -0.43750000       0.06250000 </v>
   <v>      -0.18750000      -0.43750000       0.06250000 </v>
   <v>      -0.31250000      -0.31250000       0.06250000 </v>
   <v>      -0.18750000      -0.31250000       0.06250000 </v>
   <v>      -0.18750000      -0.18750000       0.06250000 </v>
   <v>       0.18750000       0.18750000       0.18750000 </v>
   <v>       0.31250000       0.18750000       0.18750000 </v>
   <v>       0.43750000       0.18750000       0.18750000 </v>
   <v>      -0.43750000       0.18750000       0.18750000 </v>
   <v>      -0.31250000       0.18750000       0.18750000 </v>
   <v>      -0.18750000       0.18750000       0.18750000 </v>
   <v>       0.31250000       0.31250000       0.18750000 </v>
   <v>       0.43750000       0.31250000       0.18750000 </v>
   <v>      -0.43750000       0.31250000       0.18750000 </v>
   <v>      -0.31250000       0.31250000       0.18750000 </v>
   <v>      -0.18750000       0.31250000       0.18750000 </v>
   <v>       0.43750000       0.43750000       0.18750000 </v>
   <v>      -0.43750000       0.43750000       0.18750000 </v>
   <v>      -0.31250000       0.43750000       0.18750000 </v>
   <v>      -0.18750000       0.43750000       0.18750000 </v>
   <v>      -0.43750000      -0.43750000       0.18750000 </v>
   <v>      -0.31250000      -0.43750000       0.18750000 </v>
   <v>      -0.31250000      -0.31250000       0.18750000 </v>
   <v>       0.31250000       0.31250000       0.31250000 </v>
   <v>       0.43750000       0.31250000       0.31250000 </v>
   <v>      -0.43750000       0.31250000       0.31250000 </v>
   <v>      -0.31250000       0.31250000       0.31250000 </v>
   <v>       0.43750000       0.43750000       0.31250000 </v>
   <v>      -0.43750000       0.43750000       0.31250000 </v>
   <v>      -0.31250000       0.43750000       0.31250000 </v>
   <v>      -0.43750000      -0.43750000       0.31250000 </v>
   <v>       0.43750000       0.43750000       0.43750000 </v>
   <v>      -0.43750000       0.43750000       0.43750000 </v>
  </varray>
  <varray name="weights" >
   <v>       0.00390625 </v>
   <v>       0.01171875 </v>
   <v>       0.01171875 </v>
   <v>       0.01171875 </v>
   <v>       0.01171875 </v>
   <v>       0.01171875 </v>
   <v>       0.01171875 </v>
   <v>       0.01171875 </v>
   <v>       0.01171875 </v>
   <v>       0.02343750 </v>
   <v>       0.02343750 </v>
   <v>       0.02343750 </v>
   <v>       0.02343750 </v>
   <v>       0.02343750 </v>
   <v>       0.02343750 </v>
   <v>       0.01171875 </v>
   <v>       0.02343750 </v>
   <v>       0.02343750 </v>
   <v>       0.02343750 </v>
   <v>       0.02343750 </v>
   <v>       0.02343750 </v>
   <v>       0.01171875 </v>
   <v>       0.02343750 </v>
   <v>       0.02343750 </v>
   <v>       0.02343750 </v>
   <v>       0.02343750 </v>
   <v>       0.01171875 </v>
   <v>       0.02343750 </v>
   <v>       0.02343750 </v>
   <v>       0.01171875 </v>
   <v>       0.02343750 </v>
   <v>       0.01171875 </v>
   <v>       0.00390625 </v>
   <v>       0.01171875 </v>
   <v>       0.01171875 </v>
   <v>       0.01171875 </v>
   <v>       0.01171875 </v>
   <v>       0.01171875 </v>
   <v>       0.01171875 </v>
   <v>       0.02343750 </v>
   <v>       0.02343750 </v>
   <v>       0.02343750 </v>
   <v>       0.02343750 </v>
   <v>       0.01171875 </v>
   <v>       0.02343750 </v>
   <v>       0.02343750 </v>
   <v>       0.02343750 </v>
   <v>       0.01171875 </v>
   <v>       0.02343750 </v>
   <v>       0.01171875 </v>
   <v>       0.00390625 </v>
   <v>       0.01171875 </v>
   <v>       0.01171875 </v>
   <v>       0.01171875 </v>
   <v>       0.01171875 </v>
   <v>       0.02343750 </v>
   <v>       0.02343750 </v>
   <v>       0.01171875 </v>
   <v>       0.00390625 </v>
   <v>       0.01171875 </v>
  </varray>
 </kpoints>
 <parameters>
  <separator name="general" >
   <i type="string" name="SYSTEM">unknown system</i>
   <i type="logical" name="LCOMPAT"> F  </i>
  </separator>
  <separator name="electronic" >
   <i type="string" name="PREC">accura</i>
   <i name="ENMAX">    400.00000000</i>
   <i name="ENAUG">    332.07500000</i>
   <i name="EDIFF">      0.00010000</i>
   <i type="int" name="IALGO">    38</i>
   <i type="int" name="IWAVPR">    10</i>
   <i type="int" name="NBANDS">     9</i>
   <i name="NELECT">      5.00000000</i>
   <i type="int" name="TURBO">     0</i>
   <i type="int" name="IRESTART">     0</i>
   <i type="int" name="NREBOOT">     0</i>
   <i type="int" name="NMIN">     0</i>
   <i name="EREF">      0.00000000</i>
   <separator name="electronic smearing" >
    <i type="int" name="ISMEAR">     1</i>
    <i name="SIGMA">      0.05000000</i>
    <i name="KSPACING">      0.50000000</i>
    <i type="logical" name="KGAMMA"> T  </i>
   </separator>
   <separator name="electronic projectors" >
    <i type="logical" name="LREAL"> F  </i>
    <v name="ROPT">      0.00000000</v>
    <i type="int" name="LMAXPAW">  -100</i>
    <i type="int" name="LMAXMIX">     2</i>
    <i type="logical" name="NLSPLINE"> F  </i>
   </separator>
   <separator name="electronic startup" >
    <i type="int" name="ISTART">     0</i>
    <i type="int" name="ICHARG">     2</i>
    <i type="int" name="INIWAV">     1</i>
   </separator>
   <separator name="electronic spin" >
    <i type="int" name="ISPIN">     2</i>
    <i type="logical" name="LNONCOLLINEAR"> F  </i>
    <v name="MAGMOM">      6.00000000</v>
    <i name="NUPDOWN">     -1.00000000</i>
    <i type="logical" name="LSORBIT"> F  </i>
    <v name="SAXIS">      0.00000000      0.00000000      1.00000000</v>
    <i type="logical" name="LSPIRAL"> F  </i>
    <v name="QSPIRAL">      0.00000000      0.00000000      0.00000000</v>
    <i type="logical" name="LZEROZ"> F  </i>
   </separator>
   <separator name="electronic exchange-correlation" >
    <i type="logical" name="LASPH"> F  </i>
    <i type="logical" name="LMETAGGA"> F  </i>
   </separator>
   <separator name="electronic convergence" >
    <i type="int" name="NELM">    60</i>
    <i type="int" name="NELMDL">    -5</i>
    <i type="int" name="NELMIN">     2</i>
    <i name="ENINI">    400.00000000</i>
    <separator name="electronic convergence detail" >
     <i type="logical" name="LDIAG"> T  </i>
     <i type="logical" name="LSUBROT"> T  </i>
     <i name="WEIMIN">      0.00000000</i>
     <i name="EBREAK">      0.00000278</i>
     <i name="DEPER">      0.30000000</i>
     <i type="int" name="NRMM">     4</i>
     <i name="TIME">      0.40000000</i>
    </separator>
   </separator>
   <separator name="electronic mixer" >
    <i name="AMIX">      0.40000000</i>
    <i name="BMIX">      1.00000000</i>
    <i name="AMIN">      0.10000000</i>
    <i name="AMIX_MAG">      1.60000000</i>
    <i name="BMIX_MAG">      1.00000000</i>
    <separator name="electronic mixer details" >
     <i type="int" name="IMIX">     4</i>
     <i type="int" name="MAXMIX">   -45</i>
     <i name="WC">    100.00000000</i>
     <i type="int" name="INIMIX">     1</i>
     <i type="int" name="MIXPRE">     1</i>
     <i type="int" name="MREMOVE">     5</i>
    </separator>
   </separator>
   <separator name="electronic dipolcorrection" >
    <i type="logical" name="LDIPOL"> F  </i>
    <i type="logical" name="LMONO"> F  </i>
    <i type="int" name="IDIPOL">     0</i>
    <i name="EPSILON">      1.00000000</i>
    <v name="DIPOL">   -100.00000000   -100.00000000   -100.00000000</v>
    <i name="EFIELD">      0.00000000</i>
   </separator>
  </separator>
  <separator name="grids" >
   <i type="int" name="NGX">    20</i>
   <i type="int" name="NGY">    20</i>
   <i type="int" name="NGZ">    20</i>
   <i type="int" name="NGXF">    40</i>
   <i type="int" name="NGYF">    40</i>
   <i type="int" name="NGZF">    40</i>
   <i type="logical" name="ADDGRID"> F  </i>
  </separator>
  <separator name="ionic" >
   <i type="int" name="NSW">     0</i>
   <i type="int" name="IBRION">    -1</i>
   <i type="int" name="ISIF">     2</i>
   <i name="PSTRESS">      0.00000000</i>
   <i name="EDIFFG">      0.00100000</i>
   <i type="int" name="NFREE">     0</i>
   <i name="POTIM">      0.50000000</i>
   <i name="SMASS">     -3.00000000</i>
   <i name="SCALEE">      1.00000000</i>
  </separator>
  <separator name="ionic md" >
   <i name="TEBEG">      0.00010000</i>
   <i name="TEEND">      0.00010000</i>
   <i type="int" name="NBLOCK">     1</i>
   <i type="int" name="KBLOCK">     1</i>
   <i type="int" name="NPACO">   256</i>
   <i name="APACO">     16.00000000</i>
  </separator>
  <separator name="symmetry" >
   <i type="int" name="ISYM">     2</i>
   <i name="SYMPREC">      0.00001000</i>
  </separator>
  <separator name="dos" >
   <i type="logical" name="LORBIT"> F  </i>
   <v name="RWIGS">     -1.00000000</v>
   <i type="int" name="NEDOS">   301</i>
   <i name="EMIN">     10.00000000</i>
   <i name="EMAX">    -10.00000000</i>
   <i name="EFERMI">      0.00000000</i>
  </separator>
  <separator name="writing" >
   <i type="int" name="NWRITE">     2</i>
   <i type="logical" name="LWAVE"> T  </i>
   <i type="logical" name="LCHARG"> T  </i>
   <i type="logical" name="LPARD"> F  </i>
   <i type="logical" name="LVTOT"> F  </i>
   <i type="logical" name="LVHAR"> F  </i>
   <i type="logical" name="LELF"> F  </i>
   <i type="logical" name="LOPTICS"> F  </i>
   <v name="STM">      0.00000000      0.00000000      0.00000000      0.00000000      0.00000000      0.00000000      0.00000000</v>
  </separator>
  <separator name="performance" >
   <i type="int" name="NPAR">     1</i>
   <i type="int" name="NSIM">     4</i>
   <i type="int" name="NBLK">    -1</i>
   <i type="logical" name="LPLANE"> T  </i>
   <i type="logical" name="LSCALAPACK"> F  </i>
   <i type="logical" name="LSCAAWARE"> F  </i>
   <i type="logical" name="LSCALU"> F  </i>
   <i type="logical" name="LASYNC"> F  </i>
   <i type="logical" name="LORBITALREAL"> F  </i>
  </separator>
  <separator name="miscellaneous" >
   <i type="int" name="IDIOT">     3</i>
   <i type="logical" name="LMUSIC"> F  </i>
   <v name="POMASS">    180.94800000</v>
   <v name="DARWINR">      0.00000000</v>
   <v name="DARWINV">      1.00000000</v>
   <i type="logical" name="LCORR"> T  </i>
  </separator>
  <i type="logical" name="GGA_COMPAT"> T  </i>
  <i type="logical" name="LBERRY"> F  </i>
  <i type="int" name="ICORELEVEL">     0</i>
  <i type="logical" name="LDAU"> F  </i>
  <i type="int" name="I_CONSTRAINED_M">     0</i>
  <separator name="electronic exchange-correlation" >
   <i type="string" name="GGA">--</i>
   <i type="int" name="VOSKOWN">     0</i>
   <i type="logical" name="LHFCALC"> F  </i>
   <i type="string" name="PRECFOCK"></i>
   <i type="logical" name="LHFONE"> F  </i>
   <i type="logical" name="LRHFCALC"> F  </i>
   <i type="logical" name="LTHOMAS"> F  </i>
   <i type="logical" name="LMODELHF"> F  </i>
   <i name="ENCUT4O">     -1.00000000</i>
   <i type="int" name="EXXOEP">     0</i>
   <i type="int" name="FOURORBIT">     0</i>
   <i name="AEXX">      0.00000000</i>
   <i name="HFALPHA">      0.00000000</i>
   <i name="ALDAX">      1.00000000</i>
   <i name="AGGAX">      1.00000000</i>
   <i name="ALDAC">      1.00000000</i>
   <i name="AGGAC">      1.00000000</i>
   <i type="int" name="NKREDX">     1</i>
   <i type="int" name="NKREDY">     1</i>
   <i type="int" name="NKREDZ">     1</i>
   <i type="logical" name="SHIFTRED"> F  </i>
   <i type="logical" name="ODDONLY"> F  </i>
   <i type="logical" name="EVENONLY"> F  </i>
   <i type="int" name="LMAXFOCK">     0</i>
   <i type="int" name="NMAXFOCKAE">     0</i>
   <i type="logical" name="LFOCKAEDFT"> F  </i>
   <i name="HFSCREEN">      0.00000000</i>
   <i name="HFSCREENC">      0.00000000</i>
  </separator>
  <separator name="vdW DFT" >
   <i type="logical" name="LUSE_VDW"> F  </i>
   <i name="Zab_VDW">     -0.84910000</i>
   <i name="PARAM1">      0.12340000</i>
   <i name="PARAM2">      1.00000000</i>
   <i name="PARAM3">      0.00000000</i>
  </separator>
  <separator name="model GW" >
   <i type="int" name="MODEL_GW">     0</i>
   <i name="MODEL_EPS0">     10.56674955</i>
   <i name="MODEL_ALPHA">      1.00000000</i>
  </separator>
  <separator name="linear response parameters" >
   <i type="logical" name="LEPSILON"> F  </i>
   <i type="logical" name="LRPA"> F  </i>
   <i type="logical" name="LNABLA"> F  </i>
   <i type="logical" name="LVEL"> F  </i>
   <i type="int" name="KINTER">     0</i>
   <i name="CSHIFT">      0.10000000</i>
   <i name="OMEGAMAX">     -1.00000000</i>
  </separator>
  <separator name="orbital magnetization" >
   <i type="logical" name="NUCIND"> F  </i>
   <v name="MAGPOS">      0.00000000      0.00000000      0.00000000</v>
   <i type="logical" name="LNICSALL"> T  </i>
   <i type="logical" name="ORBITALMAG"> F  </i>
   <i type="logical" name="LMAGBLOCH"> F  </i>
   <i type="logical" name="LCHIMAG"> F  </i>
   <i type="logical" name="LGAUGE"> T  </i>
   <i type="int" name="MAGATOM">     0</i>
   <v name="MAGDIPOL">      0.00000000      0.00000000      0.00000000</v>
   <v name="AVECCONST">      0.00000000      0.00000000      0.00000000</v>
  </separator>
  <separator name="response functions" >
   <i type="logical" name="LADDER"> F  </i>
   <i type="logical" name="LHARTREE"> T  </i>
   <i type="int" name="IBSE">     0</i>
   <i type="logical" name="LTCTE"> F  </i>
   <i type="logical" name="LTETE"> F  </i>
   <i type="logical" name="LFXCEPS"> F  </i>
   <i type="logical" name="L2ORDER"> F  </i>
   <i type="logical" name="LUSEW"> F  </i>
   <i name="ENCUTGW">     -2.00000000</i>
   <i name="ENCUTGWSOFT">     -2.00000000</i>
   <i name="ENCUTLF">     -1.00000000</i>
   <i type="int" name="LMAXMP2">    -1</i>
   <i name="SCISSOR">      0.00000000</i>
   <i type="int" name="NOMEGA">     0</i>
   <i type="int" name="NOMEGAR">     0</i>
   <i type="int" name="NBANDSGW">    -1</i>
   <i type="int" name="NBANDSO">    -1</i>
   <i type="int" name="NBANDSV">    -1</i>
   <i name="OPTEMAX">      0.00000000</i>
   <i type="int" name="NELM">     1</i>
   <i type="int" name="DIM">     3</i>
   <i type="int" name="ANTIRES">     0</i>
   <i name="OMEGAMAX">    -30.00000000</i>
   <i name="OMEGATL">   -200.00000000</i>
   <i type="int" name="OMEGAGRID">     0</i>
   <i name="CSHIFT">     -0.10000000</i>
   <i type="logical" name="SELFENERGY"> F  </i>
   <i type="logical" name="LSPECTRAL"> F  </i>
   <i type="logical" name="ODDONLYGW"> F  </i>
   <i type="logical" name="EVENONLYGW"> F  </i>
   <i type="int" name="NKREDLFX">     1</i>
   <i type="int" name="NKREDLFY">     1</i>
   <i type="int" name="NKREDLFZ">     1</i>
   <i type="int" name="MAXMEM">  1800</i>
   <i type="int" name="TELESCOPE">     0</i>
  </separator>
 </parameters>
 <atominfo>
  <atoms>       1 </atoms>
  <types>       1 </types>
  <array name="atoms" >
   <dimension dim="1">ion</dimension>
   <field type="string">element</field>
   <field type="int">atomtype</field>
   <set>
    <rc><c>Ta</c><c>   1</c></rc>
   </set>
  </array>
  <array name="atomtypes" >
   <dimension dim="1">type</dimension>
   <field type="int">atomspertype</field>
   <field type="string">element</field>
   <field>mass</field>
   <field>valence</field>
   <field type="string">pseudopotential</field>
   <set>
    <rc><c>   1</c><c>Ta</c><c>    180.94800000</c><c>      5.00000000</c><c>  PAW_PBE Ta 17Jan2003                  </c></rc>
   </set>
  </array>
 </atominfo>
 <structure name="initialpos" >
  <crystal>
   <varray name="basis" >
    <v>       0.00000000       2.06500000       2.06500000 </v>
    <v>       2.06500000       0.00000000       2.06500000 </v>
    <v>       2.06500000       2.06500000       0.00000000 </v>
   </varray>
   <i name="volume">     17.61124925 </i>
   <varray name="rec_basis" >
    <v>      -0.24213075       0.24213075       0.24213075 </v>
    <v>       0.24213075      -0.24213075       0.24213075 </v>
    <v>       0.24213075       0.24213075      -0.24213075 </v>
   </varray>
  </crystal>
  <varray name="positions" >
   <v>       0.00000000       0.00000000       0.00000000 </v>
  </varray>
 </structure>
 <calculation>
  <scstep>
   <time name="dav">    3.03    3.03</time>
   <time name="total">    3.29    3.29</time>
   <energy>
    <i name="alphaZ">     31.48826594 </i>
    <i name="ewald">   -199.82154373 </i>
    <i name="hartreedc">     -2.37721154 </i>
    <i name="XCdc">    -60.68095016 </i>
    <i name="pawpsdc">    143.51874798 </i>
    <i name="pawaedc">    -69.33493833 </i>
    <i name="eentropy">      0.00016144 </i>
    <i name="bandstr">     35.22987835 </i>
    <i name="atom">    130.64884137 </i>
    <i name="e_fr_energy">      8.67125133 </i>
    <i name="e_wo_entrp">      8.67108989 </i>
    <i name="e_0_energy">      8.67119751 </i>
   </energy>
  </scstep>
  <scstep>
   <time name="dav">    3.69    3.69</time>
   <time name="total">    3.69    3.70</time>
   <energy>
    <i name="e_fr_energy">     -1.79860139 </i>
    <i name="e_wo_entrp">     -1.79883958 </i>
    <i name="e_0_energy">     -1.79868078 </i>
   </energy>
  </scstep>
  <scstep>
   <time name="dav">    3.29    3.29</time>
   <time name="total">    3.30    3.31</time>
   <energy>
    <i name="e_fr_energy">     -1.98182306 </i>
    <i name="e_wo_entrp">     -1.98175159 </i>
    <i name="e_0_energy">     -1.98179924 </i>
   </energy>
  </scstep>
  <scstep>
   <time name="dav">    3.64    3.64</time>
   <time name="total">    3.65    3.67</time>
   <energy>
    <i name="e_fr_energy">     -1.98222475 </i>
    <i name="e_wo_entrp">     -1.98215548 </i>
    <i name="e_0_energy">     -1.98220166 </i>
   </energy>
  </scstep>
  <scstep>
   <time name="dav">    3.29    3.29</time>
   <time name="total">    3.49    3.50</time>
   <energy>
    <i name="e_fr_energy">     -1.98222497 </i>
    <i name="e_wo_entrp">     -1.98215569 </i>
    <i name="e_0_energy">     -1.98220187 </i>
   </energy>
  </scstep>
  <scstep>
   <time name="dav">    3.13    3.13</time>
   <time name="total">    3.60    3.62</time>
   <energy>
    <i name="e_fr_energy">    -11.27962116 </i>
    <i name="e_wo_entrp">    -11.27976044 </i>
    <i name="e_0_energy">    -11.27966759 </i>
   </energy>
  </scstep>
  <scstep>
   <time name="dav">    3.27    3.27</time>
   <time name="total">    3.73    3.74</time>
   <energy>
    <i name="e_fr_energy">    -11.44447587 </i>
    <i name="e_wo_entrp">    -11.44469744 </i>
    <i name="e_0_energy">    -11.44454973 </i>
   </energy>
  </scstep>
  <scstep>
   <time name="dav">    3.03    3.03</time>
   <time name="total">    3.51    3.52</time>
   <energy>
    <i name="e_fr_energy">    -11.58653750 </i>
    <i name="e_wo_entrp">    -11.58633692 </i>
    <i name="e_0_energy">    -11.58647064 </i>
   </energy>
  </scstep>
  <scstep>
   <time name="dav">    3.09    3.09</time>
   <time name="total">    3.55    3.57</time>
   <energy>
    <i name="e_fr_energy">    -11.57825276 </i>
    <i name="e_wo_entrp">    -11.57856532 </i>
    <i name="e_0_energy">    -11.57835695 </i>
   </energy>
  </scstep>
  <scstep>
   <time name="dav">    3.16    3.16</time>
   <time name="total">    3.63    3.65</time>
   <energy>
    <i name="e_fr_energy">    -11.57777088 </i>
    <i name="e_wo_entrp">    -11.57809874 </i>
    <i name="e_0_energy">    -11.57788017 </i>
   </energy>
  </scstep>
  <scstep>
   <time name="dav">    3.12    3.13</time>
   <time name="total">    3.58    3.60</time>
   <energy>
    <i name="e_fr_energy">    -11.57745247 </i>
    <i name="e_wo_entrp">    -11.57782178 </i>
    <i name="e_0_energy">    -11.57757557 </i>
   </energy>
  </scstep>
  <scstep>
   <time name="dav">    2.99    2.99</time>
   <time name="total">    3.46    3.48</time>
   <energy>
    <i name="e_fr_energy">    -11.57732483 </i>
    <i name="e_wo_entrp">    -11.57769389 </i>
    <i name="e_0_energy">    -11.57744785 </i>
   </energy>
  </scstep>
  <scstep>
   <time name="dav">    1.96    1.96</time>
   <time name="total">    2.22    2.23</time>
   <energy>
    <i name="alphaZ">     31.48826594 </i>
    <i name="ewald">   -199.82154373 </i>
    <i name="hartreedc">     -0.57752091 </i>
    <i name="XCdc">    -65.89230696 </i>
    <i name="pawpsdc">    197.92737305 </i>
    <i name="pawaedc">   -124.61889368 </i>
    <i name="eentropy">      0.00037071 </i>
    <i name="bandstr">     19.26808006 </i>
    <i name="atom">    130.64884137 </i>
    <i name="e_fr_energy">    -11.57733415 </i>
    <i name="e_wo_entrp">    -11.57770486 </i>
    <i name="e_0_energy">    -11.57745772 </i>
   </energy>
  </scstep>
  <parameters_embedded>
   <separator name="dft+d2" >
    <i type="logical" name="LVDW"> F  </i>
   </separator>
  </parameters_embedded>
  <structure>
   <crystal>
    <varray name="basis" >
     <v>       0.00000000       2.06500000       2.06500000 </v>
     <v>       2.06500000       0.00000000       2.06500000 </v>
     <v>       2.06500000       2.06500000       0.00000000 </v>
    </varray>
    <i name="volume">     17.61124925 </i>
    <varray name="rec_basis" >
     <v>      -0.24213075       0.24213075       0.24213075 </v>
     <v>       0.24213075      -0.24213075       0.24213075 </v>
     <v>       0.24213075       0.24213075      -0.24213075 </v>
    </varray>
   </crystal>
   <varray name="positions" >
    <v>       0.00000000       0.00000000       0.00000000 </v>
   </varray>
  </structure>
  <varray name="forces" >
   <v>       0.00000000       0.00000000       0.00000000 </v>
  </varray>
  <varray name="stress" >
   <v>     128.02419288       0.00000000       0.00000000 </v>
   <v>       0.00000000     128.02419288       0.00000000 </v>
   <v>       0.00000000       0.00000000     128.02419288 </v>
  </varray>
  <energy>
   <i name="e_fr_energy">    -11.57733415 </i>
   <i name="e_wo_entrp">    -11.57745772 </i>
   <i name="e_0_energy">      0.00037071 </i>
  </energy>
  <time name="totalsc">   46.85   47.16</time>
  <eigenvalues>
   <array>
    <dimension dim="1">band</dimension>
    <dimension dim="2">kpoint</dimension>
    <dimension dim="3">spin</dimension>
    <field>eigene</field>
    <field>occ</field>
    <set>
     <set comment="spin 1">
      <set comment="kpoint 1">
       <r>   -1.8732    1.0000 </r>
       <r>    6.6261    0.0000 </r>
       <r>    6.8564    0.0000 </r>
       <r>    6.8564    0.0000 </r>
       <r>    9.9512    0.0000 </r>
       <r>    9.9512    0.0000 </r>
       <r>   19.3438    0.0000 </r>
       <r>   20.1937    0.0000 </r>
       <r>   23.3029    0.0000 </r>
      </set>
      <set comment="kpoint 2">
       <r>   -1.0400    1.0000 </r>
       <r>    5.9881    1.0000 </r>
       <r>    7.1881    0.0000 </r>
       <r>    7.2175    0.0000 </r>
       <r>    9.3084    0.0000 </r>
       <r>   10.0818    0.0000 </r>
       <r>   20.1929    0.0000 </r>
       <r>   20.8106    0.0000 </r>
       <r>   21.7546    0.0000 </r>
      </set>
      <set comment="kpoint 3">
       <r>    0.5462    1.0000 </r>
       <r>    5.4638    1.0000 </r>
       <r>    7.0357    0.0000 </r>
       <r>    7.2724    0.0000 </r>
       <r>    9.6876    0.0000 </r>
       <r>   10.9492    0.0000 </r>
       <r>   19.1472    0.0000 </r>
       <r>   20.1969    0.0000 </r>
       <r>   23.4160    0.0000 </r>
      </set>
      <set comment="kpoint 4">
       <r>    1.5052    1.0000 </r>
       <r>    6.2292    1.0310 </r>
       <r>    6.6118    0.0000 </r>
       <r>    6.7840    0.0000 </r>
       <r>   11.4360    0.0000 </r>
       <r>   12.4921    0.0000 </r>
       <r>   17.6983    0.0000 </r>
       <r>   20.1588    0.0000 </r>
       <r>   20.3411    0.0000 </r>
      </set>
      <set comment="kpoint 5">
       <r>    1.6180    1.0000 </r>
       <r>    6.2019    1.0089 </r>
       <r>    6.6618    0.0000 </r>
       <r>    7.1562    0.0000 </r>
       <r>   12.6090    0.0000 </r>
       <r>   12.7147    0.0000 </r>
       <r>   17.1535    0.0000 </r>
       <r>   18.9933    0.0000 </r>
       <r>   20.2009    0.0000 </r>
      </set>
      <set comment="kpoint 6">
       <r>    1.3165    1.0000 </r>
       <r>    5.8308    1.0000 </r>
       <r>    6.6381    0.0000 </r>
       <r>    6.9940    0.0000 </r>
       <r>   11.0636    0.0000 </r>
       <r>   11.8030    0.0000 </r>
       <r>   18.0903    0.0000 </r>
       <r>   20.1926    0.0000 </r>
       <r>   21.4722    0.0000 </r>
      </set>
      <set comment="kpoint 7">
       <r>    0.0056    1.0000 </r>
       <r>    5.4956    1.0000 </r>
       <r>    7.2016    0.0000 </r>
       <r>    7.3755    0.0000 </r>
       <r>    9.4131    0.0000 </r>
       <r>   10.4539    0.0000 </r>
       <r>   19.7984    0.0000 </r>
       <r>   20.2008    0.0000 </r>
       <r>   23.1531    0.0000 </r>
      </set>
      <set comment="kpoint 8">
       <r>   -1.4432    1.0000 </r>
       <r>    6.2109    1.0150 </r>
       <r>    7.0902    0.0000 </r>
       <r>    7.1049    0.0000 </r>
       <r>    9.3927    0.0000 </r>
       <r>   10.1364    0.0000 </r>
       <r>   20.1935    0.0000 </r>
       <r>   20.2262    0.0000 </r>
       <r>   22.5222    0.0000 </r>
      </set>
      <set comment="kpoint 9">
       <r>   -0.6375    1.0000 </r>
       <r>    5.5093    1.0000 </r>
       <r>    7.5097    0.0000 </r>
       <r>    7.5979    0.0000 </r>
       <r>    8.5642    0.0000 </r>
       <r>   10.4903    0.0000 </r>
       <r>   20.1935    0.0000 </r>
       <r>   21.7373    0.0000 </r>
       <r>   22.3331    0.0000 </r>
      </set>
      <set comment="kpoint 10">
       <r>    0.7181    1.0000 </r>
       <r>    4.8358    1.0000 </r>
       <r>    6.8160    0.0000 </r>
       <r>    8.2059    0.0000 </r>
       <r>    8.9999    0.0000 </r>
       <r>   11.2837    0.0000 </r>
       <r>   20.1903    0.0000 </r>
       <r>   21.2004    0.0000 </r>
       <r>   24.1270    0.0000 </r>
      </set>
      <set comment="kpoint 11">
       <r>    2.0633    1.0000 </r>
       <r>    4.9687    1.0000 </r>
       <r>    5.9554    1.0000 </r>
       <r>    7.8207    0.0000 </r>
       <r>   11.0119    0.0000 </r>
       <r>   12.8423    0.0000 </r>
       <r>   18.7904    0.0000 </r>
       <r>   20.2014    0.0000 </r>
       <r>   21.8923    0.0000 </r>
      </set>
      <set comment="kpoint 12">
       <r>    2.4384    1.0000 </r>
       <r>    5.0841    1.0000 </r>
       <r>    6.5562    0.0000 </r>
       <r>    7.4423    0.0000 </r>
       <r>   12.3086    0.0000 </r>
       <r>   13.9535    0.0000 </r>
       <r>   16.4686    0.0000 </r>
       <r>   20.1996    0.0000 </r>
       <r>   20.8775    0.0000 </r>
      </set>
      <set comment="kpoint 13">
       <r>    2.3544    1.0000 </r>
       <r>    5.3187    1.0000 </r>
       <r>    5.9349    1.0000 </r>
       <r>    7.5424    0.0000 </r>
       <r>   10.9805    0.0000 </r>
       <r>   13.7256    0.0000 </r>
       <r>   17.9667    0.0000 </r>
       <r>   20.2005    0.0000 </r>
       <r>   21.3672    0.0000 </r>
      </set>
      <set comment="kpoint 14">
       <r>    1.2915    1.0000 </r>
       <r>    4.9838    1.0000 </r>
       <r>    6.4153   -0.0027 </r>
       <r>    8.0679    0.0000 </r>
       <r>    9.0121    0.0000 </r>
       <r>   12.1269    0.0000 </r>
       <r>   20.1667    0.0000 </r>
       <r>   20.4109    0.0000 </r>
       <r>   23.8279    0.0000 </r>
      </set>
      <set comment="kpoint 15">
       <r>   -0.2809    1.0000 </r>
       <r>    5.4770    1.0000 </r>
       <r>    7.2449    0.0000 </r>
       <r>    7.6178    0.0000 </r>
       <r>    8.8330    0.0000 </r>
       <r>   10.5527    0.0000 </r>
       <r>   20.1915    0.0000 </r>
       <r>   21.0035    0.0000 </r>
       <r>   22.5220    0.0000 </r>
      </set>
      <set comment="kpoint 16">
       <r>    1.3923    1.0000 </r>
       <r>    4.0056    1.0000 </r>
       <r>    6.7210    0.0000 </r>
       <r>    9.2648    0.0000 </r>
       <r>    9.6796    0.0000 </r>
       <r>   11.5522    0.0000 </r>
       <r>   20.1919    0.0000 </r>
       <r>   22.5908    0.0000 </r>
       <r>   23.8368    0.0000 </r>
      </set>
      <set comment="kpoint 17">
       <r>    2.2245    1.0000 </r>
       <r>    3.6815    1.0000 </r>
       <r>    6.3917   -0.0133 </r>
       <r>    9.8526    0.0000 </r>
       <r>   11.1308    0.0000 </r>
       <r>   12.9229    0.0000 </r>
       <r>   19.6831    0.0000 </r>
       <r>   20.2136    0.0000 </r>
       <r>   21.9523    0.0000 </r>
      </set>
      <set comment="kpoint 18">
       <r>    2.9188    1.0000 </r>
       <r>    4.0485    1.0000 </r>
       <r>    6.1808    1.0019 </r>
       <r>    9.1806    0.0000 </r>
       <r>   12.4188    0.0000 </r>
       <r>   14.9618    0.0000 </r>
       <r>   16.1029    0.0000 </r>
       <r>   20.1965    0.0000 </r>
       <r>   21.9681    0.0000 </r>
      </set>
      <set comment="kpoint 19">
       <r>    3.6737    1.0000 </r>
       <r>    4.2582    1.0000 </r>
       <r>    5.6462    1.0000 </r>
       <r>    8.6665    0.0000 </r>
       <r>   11.2299    0.0000 </r>
       <r>   14.0838    0.0000 </r>
       <r>   18.5760    0.0000 </r>
       <r>   20.1978    0.0000 </r>
       <r>   20.8200    0.0000 </r>
      </set>
      <set comment="kpoint 20">
       <r>    2.8471    1.0000 </r>
       <r>    4.9987    1.0000 </r>
       <r>    5.2808    1.0000 </r>
       <r>    8.2170    0.0000 </r>
       <r>   10.0111    0.0000 </r>
       <r>   13.9779    0.0000 </r>
       <r>   18.9617    0.0000 </r>
       <r>   20.2047    0.0000 </r>
       <r>   22.7258    0.0000 </r>
      </set>
      <set comment="kpoint 21">
       <r>    1.2728    1.0000 </r>
       <r>    5.3086    1.0000 </r>
       <r>    6.5453    0.0000 </r>
       <r>    7.4020    0.0000 </r>
       <r>   10.0837    0.0000 </r>
       <r>   11.9119    0.0000 </r>
       <r>   19.0845    0.0000 </r>
       <r>   20.1978    0.0000 </r>
       <r>   22.6727    0.0000 </r>
      </set>
      <set comment="kpoint 22">
       <r>    1.8367    1.0000 </r>
       <r>    3.0043    1.0000 </r>
       <r>    8.1311    0.0000 </r>
       <r>   11.4663    0.0000 </r>
       <r>   12.3772    0.0000 </r>
       <r>   12.6994    0.0000 </r>
       <r>   19.0092    0.0000 </r>
       <r>   19.9182    0.0000 </r>
       <r>   20.1902    0.0000 </r>
      </set>
      <set comment="kpoint 23">
       <r>    2.0604    1.0000 </r>
       <r>    3.1129    1.0000 </r>
       <r>    8.1410    0.0000 </r>
       <r>   11.2003    0.0000 </r>
       <r>   13.0856    0.0000 </r>
       <r>   14.6706    0.0000 </r>
       <r>   16.7330    0.0000 </r>
       <r>   18.9480    0.0000 </r>
       <r>   20.1911    0.0000 </r>
      </set>
      <set comment="kpoint 24">
       <r>    2.8652    1.0000 </r>
       <r>    3.9112    1.0000 </r>
       <r>    6.6548    0.0000 </r>
       <r>    9.6505    0.0000 </r>
       <r>   12.3457    0.0000 </r>
       <r>   14.7186    0.0000 </r>
       <r>   16.9653    0.0000 </r>
       <r>   20.1793    0.0000 </r>
       <r>   20.6153    0.0000 </r>
      </set>
      <set comment="kpoint 25">
       <r>    3.1117    1.0000 </r>
       <r>    4.5190    1.0000 </r>
       <r>    6.1355    1.0000 </r>
       <r>    8.0794    0.0000 </r>
       <r>   11.8250    0.0000 </r>
       <r>   14.4204    0.0000 </r>
       <r>   16.7647    0.0000 </r>
       <r>   20.1987    0.0000 </r>
       <r>   21.9979    0.0000 </r>
      </set>
      <set comment="kpoint 26">
       <r>    1.8809    1.0000 </r>
       <r>    5.7842    1.0000 </r>
       <r>    6.6969    0.0000 </r>
       <r>    6.9788    0.0000 </r>
       <r>   12.0043    0.0000 </r>
       <r>   13.1755    0.0000 </r>
       <r>   17.2748    0.0000 </r>
       <r>   19.9517    0.0000 </r>
       <r>   20.2047    0.0000 </r>
      </set>
      <set comment="kpoint 27">
       <r>    1.7044    1.0000 </r>
       <r>    2.7935    1.0000 </r>
       <r>    9.1242    0.0000 </r>
       <r>   12.1835    0.0000 </r>
       <r>   13.1831    0.0000 </r>
       <r>   13.5757    0.0000 </r>
       <r>   17.5345    0.0000 </r>
       <r>   18.5799    0.0000 </r>
       <r>   20.1114    0.0000 </r>
      </set>
      <set comment="kpoint 28">
       <r>    2.1995    1.0000 </r>
       <r>    3.3058    1.0000 </r>
       <r>    7.2696    0.0000 </r>
       <r>   10.7296    0.0000 </r>
       <r>   12.3320    0.0000 </r>
       <r>   13.7646    0.0000 </r>
       <r>   17.9431    0.0000 </r>
       <r>   20.1282    0.0000 </r>
       <r>   20.2100    0.0000 </r>
      </set>
      <set comment="kpoint 29">
       <r>    2.6959    1.0000 </r>
       <r>    4.4397    1.0000 </r>
       <r>    5.8161    1.0000 </r>
       <r>    8.4639    0.0000 </r>
       <r>   12.0725    0.0000 </r>
       <r>   13.7059    0.0000 </r>
       <r>   17.4586    0.0000 </r>
       <r>   20.1994    0.0000 </r>
       <r>   22.3609    0.0000 </r>
      </set>
      <set comment="kpoint 30">
       <r>    1.8716    1.0000 </r>
       <r>    3.4161    1.0000 </r>
       <r>    7.0517    0.0000 </r>
       <r>   10.3623    0.0000 </r>
       <r>   10.9595    0.0000 </r>
       <r>   12.1440    0.0000 </r>
       <r>   20.1855    0.0000 </r>
       <r>   21.0470    0.0000 </r>
       <r>   21.8555    0.0000 </r>
      </set>
      <set comment="kpoint 31">
       <r>    1.7013    1.0000 </r>
       <r>    4.2093    1.0000 </r>
       <r>    6.2624    0.9778 </r>
       <r>    8.9531    0.0000 </r>
       <r>    9.9107    0.0000 </r>
       <r>   12.1050    0.0000 </r>
       <r>   20.1863    0.0000 </r>
       <r>   21.1499    0.0000 </r>
       <r>   23.8813    0.0000 </r>
      </set>
      <set comment="kpoint 32">
       <r>    0.4075    1.0000 </r>
       <r>    4.7293    1.0000 </r>
       <r>    7.2238    0.0000 </r>
       <r>    8.3254    0.0000 </r>
       <r>    8.6778    0.0000 </r>
       <r>   10.9793    0.0000 </r>
       <r>   20.1930    0.0000 </r>
       <r>   22.4298    0.0000 </r>
       <r>   23.9414    0.0000 </r>
      </set>
      <set comment="kpoint 33">
       <r>   -0.6777    1.0000 </r>
       <r>    5.8418    1.0000 </r>
       <r>    7.2348    0.0000 </r>
       <r>    7.2348    0.0000 </r>
       <r>    9.7376    0.0000 </r>
       <r>    9.7376    0.0000 </r>
       <r>   20.1405    0.0000 </r>
       <r>   20.2258    0.0000 </r>
       <r>   22.1772    0.0000 </r>
      </set>
      <set comment="kpoint 34">
       <r>    0.3918    1.0000 </r>
       <r>    5.3113    1.0000 </r>
       <r>    6.9594    0.0000 </r>
       <r>    7.7870    0.0000 </r>
       <r>    8.7405    0.0000 </r>
       <r>   11.1629    0.0000 </r>
       <r>   20.1816    0.0000 </r>
       <r>   20.4801    0.0000 </r>
       <r>   23.3917    0.0000 </r>
      </set>
      <set comment="kpoint 35">
       <r>    2.0378    1.0000 </r>
       <r>    5.0709    1.0000 </r>
       <r>    5.9421    1.0000 </r>
       <r>    7.9344    0.0000 </r>
       <r>    9.2896    0.0000 </r>
       <r>   13.1698    0.0000 </r>
       <r>   19.7819    0.0000 </r>
       <r>   20.2182    0.0000 </r>
       <r>   22.7522    0.0000 </r>
      </set>
      <set comment="kpoint 36">
       <r>    2.6978    1.0000 </r>
       <r>    5.0436    1.0000 </r>
       <r>    6.1716    1.0008 </r>
       <r>    7.6174    0.0000 </r>
       <r>   11.3201    0.0000 </r>
       <r>   14.1133    0.0000 </r>
       <r>   17.3576    0.0000 </r>
       <r>   20.1997    0.0000 </r>
       <r>   21.6026    0.0000 </r>
      </set>
      <set comment="kpoint 37">
       <r>    2.5300    1.0000 </r>
       <r>    4.8149    1.0000 </r>
       <r>    6.2302    1.0318 </r>
       <r>    7.8005    0.0000 </r>
       <r>   12.7265    0.0000 </r>
       <r>   13.4686    0.0000 </r>
       <r>   16.7161    0.0000 </r>
       <r>   20.1991    0.0000 </r>
       <r>   21.4179    0.0000 </r>
      </set>
      <set comment="kpoint 38">
       <r>    1.8330    1.0000 </r>
       <r>    4.4867    1.0000 </r>
       <r>    6.1361    1.0000 </r>
       <r>    8.2707    0.0000 </r>
       <r>   10.8298    0.0000 </r>
       <r>   12.1284    0.0000 </r>
       <r>   19.8663    0.0000 </r>
       <r>   20.2194    0.0000 </r>
       <r>   22.9335    0.0000 </r>
      </set>
      <set comment="kpoint 39">
       <r>    0.9115    1.0000 </r>
       <r>    5.0121    1.0000 </r>
       <r>    6.7157    0.0000 </r>
       <r>    7.7141    0.0000 </r>
       <r>    9.7760    0.0000 </r>
       <r>   11.3033    0.0000 </r>
       <r>   19.9385    0.0000 </r>
       <r>   20.2096    0.0000 </r>
       <r>   23.6955    0.0000 </r>
      </set>
      <set comment="kpoint 40">
       <r>    2.2410    1.0000 </r>
       <r>    4.5778    1.0000 </r>
       <r>    5.7187    1.0000 </r>
       <r>    8.5879    0.0000 </r>
       <r>    9.8820    0.0000 </r>
       <r>   13.1134    0.0000 </r>
       <r>   19.8679    0.0000 </r>
       <r>   20.2268    0.0000 </r>
       <r>   23.0170    0.0000 </r>
      </set>
      <set comment="kpoint 41">
       <r>    3.5580    1.0000 </r>
       <r>    4.4875    1.0000 </r>
       <r>    5.0573    1.0000 </r>
       <r>    8.7585    0.0000 </r>
       <r>   11.0187    0.0000 </r>
       <r>   14.3906    0.0000 </r>
       <r>   18.3154    0.0000 </r>
       <r>   20.2006    0.0000 </r>
       <r>   21.4172    0.0000 </r>
      </set>
      <set comment="kpoint 42">
       <r>    3.5340    1.0000 </r>
       <r>    4.1497    1.0000 </r>
       <r>    5.7689    1.0000 </r>
       <r>    8.6314    0.0000 </r>
       <r>   11.9724    0.0000 </r>
       <r>   15.6313    0.0000 </r>
       <r>   15.9381    0.0000 </r>
       <r>   20.1973    0.0000 </r>
       <r>   22.0399    0.0000 </r>
      </set>
      <set comment="kpoint 43">
       <r>    2.8556    1.0000 </r>
       <r>    4.1727    1.0000 </r>
       <r>    5.5164    1.0000 </r>
       <r>    9.3019    0.0000 </r>
       <r>   11.0209    0.0000 </r>
       <r>   13.9589    0.0000 </r>
       <r>   18.6120    0.0000 </r>
       <r>   20.2021    0.0000 </r>
       <r>   21.8258    0.0000 </r>
      </set>
      <set comment="kpoint 44">
       <r>    2.3974    1.0000 </r>
       <r>    3.9815    1.0000 </r>
       <r>    6.1461    1.0001 </r>
       <r>    9.0219    0.0000 </r>
       <r>   12.3095    0.0000 </r>
       <r>   12.7342    0.0000 </r>
       <r>   18.4669    0.0000 </r>
       <r>   20.2008    0.0000 </r>
       <r>   22.7221    0.0000 </r>
      </set>
      <set comment="kpoint 45">
       <r>    2.8518    1.0000 </r>
       <r>    3.8701    1.0000 </r>
       <r>    6.1177    1.0000 </r>
       <r>    9.8255    0.0000 </r>
       <r>   12.1483    0.0000 </r>
       <r>   14.7996    0.0000 </r>
       <r>   17.4314    0.0000 </r>
       <r>   20.1266    0.0000 </r>
       <r>   20.2213    0.0000 </r>
      </set>
      <set comment="kpoint 46">
       <r>    3.3052    1.0000 </r>
       <r>    4.5428    1.0000 </r>
       <r>    5.6232    1.0000 </r>
       <r>    8.7311    0.0000 </r>
       <r>   13.0136    0.0000 </r>
       <r>   16.2196    0.0000 </r>
       <r>   16.9785    0.0000 </r>
       <r>   18.7429    0.0000 </r>
       <r>   20.2030    0.0000 </r>
      </set>
      <set comment="kpoint 47">
       <r>    3.5649    1.0000 </r>
       <r>    4.4678    1.0000 </r>
       <r>    5.1929    1.0000 </r>
       <r>    8.9745    0.0000 </r>
       <r>   12.0867    0.0000 </r>
       <r>   15.0693    0.0000 </r>
       <r>   17.6748    0.0000 </r>
       <r>   20.0399    0.0000 </r>
       <r>   20.2164    0.0000 </r>
      </set>
      <set comment="kpoint 48">
       <r>    2.3348    1.0000 </r>
       <r>    3.4192    1.0000 </r>
       <r>    7.5789    0.0000 </r>
       <r>   10.6154    0.0000 </r>
       <r>   12.7242    0.0000 </r>
       <r>   15.1150    0.0000 </r>
       <r>   15.8825    0.0000 </r>
       <r>   20.1846    0.0000 </r>
       <r>   20.9007    0.0000 </r>
      </set>
      <set comment="kpoint 49">
       <r>    2.6872    1.0000 </r>
       <r>    3.7206    1.0000 </r>
       <r>    6.8546    0.0000 </r>
       <r>    9.8114    0.0000 </r>
       <r>   13.0288    0.0000 </r>
       <r>   15.8387    0.0000 </r>
       <r>   16.5103    0.0000 </r>
       <r>   18.9254    0.0000 </r>
       <r>   20.2010    0.0000 </r>
      </set>
      <set comment="kpoint 50">
       <r>    2.4463    1.0000 </r>
       <r>    3.6041    1.0000 </r>
       <r>    6.8517    0.0000 </r>
       <r>    9.8847    0.0000 </r>
       <r>   12.9200    0.0000 </r>
       <r>   14.0031    0.0000 </r>
       <r>   16.7039    0.0000 </r>
       <r>   20.1957    0.0000 </r>
       <r>   21.4805    0.0000 </r>
      </set>
      <set comment="kpoint 51">
       <r>    0.8560    1.0000 </r>
       <r>    5.6979    1.0000 </r>
       <r>    6.9939    0.0000 </r>
       <r>    6.9939    0.0000 </r>
       <r>   10.7696    0.0000 </r>
       <r>   10.7696    0.0000 </r>
       <r>   18.2800    0.0000 </r>
       <r>   20.1948    0.0000 </r>
       <r>   22.6852    0.0000 </r>
      </set>
      <set comment="kpoint 52">
       <r>    1.7653    1.0000 </r>
       <r>    5.5655    1.0000 </r>
       <r>    6.2315    1.0327 </r>
       <r>    7.2663    0.0000 </r>
       <r>   10.3233    0.0000 </r>
       <r>   12.9012    0.0000 </r>
       <r>   18.6579    0.0000 </r>
       <r>   20.1982    0.0000 </r>
       <r>   21.5430    0.0000 </r>
      </set>
      <set comment="kpoint 53">
       <r>    3.3451    1.0000 </r>
       <r>    4.7413    1.0000 </r>
       <r>    5.4448    1.0000 </r>
       <r>    8.2504    0.0000 </r>
       <r>   10.4667    0.0000 </r>
       <r>   14.1602    0.0000 </r>
       <r>   18.6434    0.0000 </r>
       <r>   20.2019    0.0000 </r>
       <r>   21.9016    0.0000 </r>
      </set>
      <set comment="kpoint 54">
       <r>    3.2129    1.0000 </r>
       <r>    4.1800    1.0000 </r>
       <r>    6.2309    1.0322 </r>
       <r>    9.1652    0.0000 </r>
       <r>   11.7083    0.0000 </r>
       <r>   13.8997    0.0000 </r>
       <r>   18.1521    0.0000 </r>
       <r>   20.1877    0.0000 </r>
       <r>   20.6830    0.0000 </r>
      </set>
      <set comment="kpoint 55">
       <r>    1.9005    1.0000 </r>
       <r>    5.4909    1.0000 </r>
       <r>    6.3170    0.2335 </r>
       <r>    7.2717    0.0000 </r>
       <r>   12.0289    0.0000 </r>
       <r>   12.5444    0.0000 </r>
       <r>   17.8426    0.0000 </r>
       <r>   20.1958    0.0000 </r>
       <r>   20.7189    0.0000 </r>
      </set>
      <set comment="kpoint 56">
       <r>    2.9961    1.0000 </r>
       <r>    4.6279    1.0000 </r>
       <r>    5.8656    1.0000 </r>
       <r>    8.0978    0.0000 </r>
       <r>   11.7248    0.0000 </r>
       <r>   14.4250    0.0000 </r>
       <r>   16.9227    0.0000 </r>
       <r>   20.1991    0.0000 </r>
       <r>   22.1159    0.0000 </r>
      </set>
      <set comment="kpoint 57">
       <r>    3.5440    1.0000 </r>
       <r>    4.2783    1.0000 </r>
       <r>    5.6823    1.0000 </r>
       <r>    8.8538    0.0000 </r>
       <r>   12.1382    0.0000 </r>
       <r>   14.8559    0.0000 </r>
       <r>   17.7316    0.0000 </r>
       <r>   20.1009    0.0000 </r>
       <r>   20.2535    0.0000 </r>
      </set>
      <set comment="kpoint 58">
       <r>    3.0323    1.0000 </r>
       <r>    4.3195    1.0000 </r>
       <r>    6.2077    1.0125 </r>
       <r>    8.5074    0.0000 </r>
       <r>   12.3137    0.0000 </r>
       <r>   14.3620    0.0000 </r>
       <r>   16.4200    0.0000 </r>
       <r>   20.1978    0.0000 </r>
       <r>   22.0273    0.0000 </r>
      </set>
      <set comment="kpoint 59">
       <r>    1.4351    1.0000 </r>
       <r>    6.5776    0.0000 </r>
       <r>    6.5776    0.0000 </r>
       <r>    6.9324    0.0000 </r>
       <r>   12.3095    0.0000 </r>
       <r>   12.3095    0.0000 </r>
       <r>   17.3511    0.0000 </r>
       <r>   19.2295    0.0000 </r>
       <r>   20.2043    0.0000 </r>
      </set>
      <set comment="kpoint 60">
       <r>    2.0566    1.0000 </r>
       <r>    5.5852    1.0000 </r>
       <r>    6.8648    0.0000 </r>
       <r>    7.0250    0.0000 </r>
       <r>   12.1949    0.0000 </r>
       <r>   13.5660    0.0000 </r>
       <r>   16.8189    0.0000 </r>
       <r>   20.0288    0.0000 </r>
       <r>   20.2003    0.0000 </r>
      </set>
     </set>
     <set comment="spin 2">
      <set comment="kpoint 1">
       <r>   -1.8744    1.0000 </r>
       <r>    6.6253    0.0000 </r>
       <r>    6.8556    0.0000 </r>
       <r>    6.8556    0.0000 </r>
       <r>    9.9509    0.0000 </r>
       <r>    9.9509    0.0000 </r>
       <r>   19.3410    0.0000 </r>
       <r>   20.1943    0.0000 </r>
       <r>   23.3021    0.0000 </r>
      </set>
      <set comment="kpoint 2">
       <r>   -1.0412    1.0000 </r>
       <r>    5.9872    1.0000 </r>
       <r>    7.1874    0.0000 </r>
       <r>    7.2168    0.0000 </r>
       <r>    9.3081    0.0000 </r>
       <r>   10.0815    0.0000 </r>
       <r>   20.1934    0.0000 </r>
       <r>   20.8083    0.0000 </r>
       <r>   21.7534    0.0000 </r>
      </set>
      <set comment="kpoint 3">
       <r>    0.5450    1.0000 </r>
       <r>    5.4627    1.0000 </r>
       <r>    7.0351    0.0000 </r>
       <r>    7.2718    0.0000 </r>
       <r>    9.6871    0.0000 </r>
       <r>   10.9488    0.0000 </r>
       <r>   19.1461    0.0000 </r>
       <r>   20.1974    0.0000 </r>
       <r>   23.4143    0.0000 </r>
      </set>
      <set comment="kpoint 4">
       <r>    1.5040    1.0000 </r>
       <r>    6.2283    1.0303 </r>
       <r>    6.6110    0.0000 </r>
       <r>    6.7834    0.0000 </r>
       <r>   11.4356    0.0000 </r>
       <r>   12.4917    0.0000 </r>
       <r>   17.6975    0.0000 </r>
       <r>   20.1589    0.0000 </r>
       <r>   20.3401    0.0000 </r>
      </set>
      <set comment="kpoint 5">
       <r>    1.6167    1.0000 </r>
       <r>    6.2013    1.0086 </r>
       <r>    6.6613    0.0000 </r>
       <r>    7.1552    0.0000 </r>
       <r>   12.6086    0.0000 </r>
       <r>   12.7143    0.0000 </r>
       <r>   17.1529    0.0000 </r>
       <r>   18.9916    0.0000 </r>
       <r>   20.2014    0.0000 </r>
      </set>
      <set comment="kpoint 6">
       <r>    1.3152    1.0000 </r>
       <r>    5.8297    1.0000 </r>
       <r>    6.6375    0.0000 </r>
       <r>    6.9934    0.0000 </r>
       <r>   11.0631    0.0000 </r>
       <r>   11.8026    0.0000 </r>
       <r>   18.0894    0.0000 </r>
       <r>   20.1931    0.0000 </r>
       <r>   21.4708    0.0000 </r>
      </set>
      <set comment="kpoint 7">
       <r>    0.0043    1.0000 </r>
       <r>    5.4945    1.0000 </r>
       <r>    7.2010    0.0000 </r>
       <r>    7.3748    0.0000 </r>
       <r>    9.4127    0.0000 </r>
       <r>   10.4535    0.0000 </r>
       <r>   19.7973    0.0000 </r>
       <r>   20.2013    0.0000 </r>
       <r>   23.1511    0.0000 </r>
      </set>
      <set comment="kpoint 8">
       <r>   -1.4445    1.0000 </r>
       <r>    6.2100    1.0143 </r>
       <r>    7.0895    0.0000 </r>
       <r>    7.1041    0.0000 </r>
       <r>    9.3924    0.0000 </r>
       <r>   10.1362    0.0000 </r>
       <r>   20.1941    0.0000 </r>
       <r>   20.2235    0.0000 </r>
       <r>   22.5212    0.0000 </r>
      </set>
      <set comment="kpoint 9">
       <r>   -0.6387    1.0000 </r>
       <r>    5.5083    1.0000 </r>
       <r>    7.5090    0.0000 </r>
       <r>    7.5971    0.0000 </r>
       <r>    8.5637    0.0000 </r>
       <r>   10.4901    0.0000 </r>
       <r>   20.1940    0.0000 </r>
       <r>   21.7350    0.0000 </r>
       <r>   22.3319    0.0000 </r>
      </set>
      <set comment="kpoint 10">
       <r>    0.7170    1.0000 </r>
       <r>    4.8346    1.0000 </r>
       <r>    6.8154    0.0000 </r>
       <r>    8.2053    0.0000 </r>
       <r>    8.9994    0.0000 </r>
       <r>   11.2834    0.0000 </r>
       <r>   20.1908    0.0000 </r>
       <r>   21.1996    0.0000 </r>
       <r>   24.1248    0.0000 </r>
      </set>
      <set comment="kpoint 11">
       <r>    2.0621    1.0000 </r>
       <r>    4.9677    1.0000 </r>
       <r>    5.9546    1.0000 </r>
       <r>    7.8201    0.0000 </r>
       <r>   11.0113    0.0000 </r>
       <r>   12.8419    0.0000 </r>
       <r>   18.7898    0.0000 </r>
       <r>   20.2019    0.0000 </r>
       <r>   21.8908    0.0000 </r>
      </set>
      <set comment="kpoint 12">
       <r>    2.4371    1.0000 </r>
       <r>    5.0836    1.0000 </r>
       <r>    6.5550    0.0000 </r>
       <r>    7.4418    0.0000 </r>
       <r>   12.3082    0.0000 </r>
       <r>   13.9530    0.0000 </r>
       <r>   16.4680    0.0000 </r>
       <r>   20.2001    0.0000 </r>
       <r>   20.8760    0.0000 </r>
      </set>
      <set comment="kpoint 13">
       <r>    2.3531    1.0000 </r>
       <r>    5.3181    1.0000 </r>
       <r>    5.9338    1.0000 </r>
       <r>    7.5419    0.0000 </r>
       <r>   10.9800    0.0000 </r>
       <r>   13.7252    0.0000 </r>
       <r>   17.9661    0.0000 </r>
       <r>   20.2010    0.0000 </r>
       <r>   21.3656    0.0000 </r>
      </set>
      <set comment="kpoint 14">
       <r>    1.2903    1.0000 </r>
       <r>    4.9826    1.0000 </r>
       <r>    6.4147   -0.0028 </r>
       <r>    8.0674    0.0000 </r>
       <r>    9.0116    0.0000 </r>
       <r>   12.1265    0.0000 </r>
       <r>   20.1671    0.0000 </r>
       <r>   20.4103    0.0000 </r>
       <r>   23.8263    0.0000 </r>
      </set>
      <set comment="kpoint 15">
       <r>   -0.2821    1.0000 </r>
       <r>    5.4759    1.0000 </r>
       <r>    7.2442    0.0000 </r>
       <r>    7.6170    0.0000 </r>
       <r>    8.8326    0.0000 </r>
       <r>   10.5524    0.0000 </r>
       <r>   20.1920    0.0000 </r>
       <r>   21.0024    0.0000 </r>
       <r>   22.5197    0.0000 </r>
      </set>
      <set comment="kpoint 16">
       <r>    1.3913    1.0000 </r>
       <r>    4.0045    1.0000 </r>
       <r>    6.7203    0.0000 </r>
       <r>    9.2641    0.0000 </r>
       <r>    9.6789    0.0000 </r>
       <r>   11.5520    0.0000 </r>
       <r>   20.1924    0.0000 </r>
       <r>   22.5902    0.0000 </r>
       <r>   23.8362    0.0000 </r>
      </set>
      <set comment="kpoint 17">
       <r>    2.2237    1.0000 </r>
       <r>    3.6802    1.0000 </r>
       <r>    6.3907   -0.0141 </r>
       <r>    9.8521    0.0000 </r>
       <r>   11.1302    0.0000 </r>
       <r>   12.9225    0.0000 </r>
       <r>   19.6824    0.0000 </r>
       <r>   20.2141    0.0000 </r>
       <r>   21.9516    0.0000 </r>
      </set>
      <set comment="kpoint 18">
       <r>    2.9179    1.0000 </r>
       <r>    4.0474    1.0000 </r>
       <r>    6.1796    1.0017 </r>
       <r>    9.1801    0.0000 </r>
       <r>   12.4183    0.0000 </r>
       <r>   14.9611    0.0000 </r>
       <r>   16.1023    0.0000 </r>
       <r>   20.1971    0.0000 </r>
       <r>   21.9669    0.0000 </r>
      </set>
      <set comment="kpoint 19">
       <r>    3.6725    1.0000 </r>
       <r>    4.2576    1.0000 </r>
       <r>    5.6449    1.0000 </r>
       <r>    8.6661    0.0000 </r>
       <r>   11.2293    0.0000 </r>
       <r>   14.0831    0.0000 </r>
       <r>   18.5755    0.0000 </r>
       <r>   20.1983    0.0000 </r>
       <r>   20.8193    0.0000 </r>
      </set>
      <set comment="kpoint 20">
       <r>    2.8459    1.0000 </r>
       <r>    4.9977    1.0000 </r>
       <r>    5.2801    1.0000 </r>
       <r>    8.2166    0.0000 </r>
       <r>   10.0104    0.0000 </r>
       <r>   13.9775    0.0000 </r>
       <r>   18.9611    0.0000 </r>
       <r>   20.2052    0.0000 </r>
       <r>   22.7242    0.0000 </r>
      </set>
      <set comment="kpoint 21">
       <r>    1.2716    1.0000 </r>
       <r>    5.3075    1.0000 </r>
       <r>    6.5447    0.0000 </r>
       <r>    7.4014    0.0000 </r>
       <r>   10.0832    0.0000 </r>
       <r>   11.9115    0.0000 </r>
       <r>   19.0837    0.0000 </r>
       <r>   20.1983    0.0000 </r>
       <r>   22.6712    0.0000 </r>
      </set>
      <set comment="kpoint 22">
       <r>    1.8361    1.0000 </r>
       <r>    3.0031    1.0000 </r>
       <r>    8.1298    0.0000 </r>
       <r>   11.4659    0.0000 </r>
       <r>   12.3765    0.0000 </r>
       <r>   12.6991    0.0000 </r>
       <r>   19.0084    0.0000 </r>
       <r>   19.9174    0.0000 </r>
       <r>   20.1907    0.0000 </r>
      </set>
      <set comment="kpoint 23">
       <r>    2.0598    1.0000 </r>
       <r>    3.1116    1.0000 </r>
       <r>    8.1396    0.0000 </r>
       <r>   11.2000    0.0000 </r>
       <r>   13.0851    0.0000 </r>
       <r>   14.6699    0.0000 </r>
       <r>   16.7323    0.0000 </r>
       <r>   18.9473    0.0000 </r>
       <r>   20.1917    0.0000 </r>
      </set>
      <set comment="kpoint 24">
       <r>    2.8645    1.0000 </r>
       <r>    3.9100    1.0000 </r>
       <r>    6.6535    0.0000 </r>
       <r>    9.6501    0.0000 </r>
       <r>   12.3451    0.0000 </r>
       <r>   14.7178    0.0000 </r>
       <r>   16.9646    0.0000 </r>
       <r>   20.1798    0.0000 </r>
       <r>   20.6148    0.0000 </r>
      </set>
      <set comment="kpoint 25">
       <r>    3.1104    1.0000 </r>
       <r>    4.5185    1.0000 </r>
       <r>    6.1343    1.0000 </r>
       <r>    8.0789    0.0000 </r>
       <r>   11.8245    0.0000 </r>
       <r>   14.4198    0.0000 </r>
       <r>   16.7641    0.0000 </r>
       <r>   20.1993    0.0000 </r>
       <r>   21.9968    0.0000 </r>
      </set>
      <set comment="kpoint 26">
       <r>    1.8796    1.0000 </r>
       <r>    5.7836    1.0000 </r>
       <r>    6.6959    0.0000 </r>
       <r>    6.9783    0.0000 </r>
       <r>   12.0038    0.0000 </r>
       <r>   13.1751    0.0000 </r>
       <r>   17.2743    0.0000 </r>
       <r>   19.9501    0.0000 </r>
       <r>   20.2052    0.0000 </r>
      </set>
      <set comment="kpoint 27">
       <r>    1.7038    1.0000 </r>
       <r>    2.7922    1.0000 </r>
       <r>    9.1227    0.0000 </r>
       <r>   12.1833    0.0000 </r>
       <r>   13.1826    0.0000 </r>
       <r>   13.5751    0.0000 </r>
       <r>   17.5337    0.0000 </r>
       <r>   18.5791    0.0000 </r>
       <r>   20.1101    0.0000 </r>
      </set>
      <set comment="kpoint 28">
       <r>    2.1989    1.0000 </r>
       <r>    3.3045    1.0000 </r>
       <r>    7.2684    0.0000 </r>
       <r>   10.7292    0.0000 </r>
       <r>   12.3315    0.0000 </r>
       <r>   13.7641    0.0000 </r>
       <r>   17.9423    0.0000 </r>
       <r>   20.1277    0.0000 </r>
       <r>   20.2103    0.0000 </r>
      </set>
      <set comment="kpoint 29">
       <r>    2.6948    1.0000 </r>
       <r>    4.4388    1.0000 </r>
       <r>    5.8151    1.0000 </r>
       <r>    8.4634    0.0000 </r>
       <r>   12.0720    0.0000 </r>
       <r>   13.7055    0.0000 </r>
       <r>   17.4579    0.0000 </r>
       <r>   20.1999    0.0000 </r>
       <r>   22.3597    0.0000 </r>
      </set>
      <set comment="kpoint 30">
       <r>    1.8708    1.0000 </r>
       <r>    3.4149    1.0000 </r>
       <r>    7.0506    0.0000 </r>
       <r>   10.3617    0.0000 </r>
       <r>   10.9588    0.0000 </r>
       <r>   12.1437    0.0000 </r>
       <r>   20.1860    0.0000 </r>
       <r>   21.0464    0.0000 </r>
       <r>   21.8548    0.0000 </r>
      </set>
      <set comment="kpoint 31">
       <r>    1.7003    1.0000 </r>
       <r>    4.2081    1.0000 </r>
       <r>    6.2617    0.9820 </r>
       <r>    8.9525    0.0000 </r>
       <r>    9.9100    0.0000 </r>
       <r>   12.1047    0.0000 </r>
       <r>   20.1868    0.0000 </r>
       <r>   21.1493    0.0000 </r>
       <r>   23.8732    0.0000 </r>
      </set>
      <set comment="kpoint 32">
       <r>    0.4064    1.0000 </r>
       <r>    4.7282    1.0000 </r>
       <r>    7.2233    0.0000 </r>
       <r>    8.3247    0.0000 </r>
       <r>    8.6772    0.0000 </r>
       <r>   10.9791    0.0000 </r>
       <r>   20.1936    0.0000 </r>
       <r>   22.4289    0.0000 </r>
       <r>   23.9391    0.0000 </r>
      </set>
      <set comment="kpoint 33">
       <r>   -0.6789    1.0000 </r>
       <r>    5.8408    1.0000 </r>
       <r>    7.2341    0.0000 </r>
       <r>    7.2341    0.0000 </r>
       <r>    9.7373    0.0000 </r>
       <r>    9.7373    0.0000 </r>
       <r>   20.1398    0.0000 </r>
       <r>   20.2256    0.0000 </r>
       <r>   22.1752    0.0000 </r>
      </set>
      <set comment="kpoint 34">
       <r>    0.3906    1.0000 </r>
       <r>    5.3102    1.0000 </r>
       <r>    6.9588    0.0000 </r>
       <r>    7.7864    0.0000 </r>
       <r>    8.7401    0.0000 </r>
       <r>   11.1626    0.0000 </r>
       <r>   20.1821    0.0000 </r>
       <r>   20.4792    0.0000 </r>
       <r>   23.3894    0.0000 </r>
      </set>
      <set comment="kpoint 35">
       <r>    2.0366    1.0000 </r>
       <r>    5.0697    1.0000 </r>
       <r>    5.9415    1.0000 </r>
       <r>    7.9340    0.0000 </r>
       <r>    9.2889    0.0000 </r>
       <r>   13.1694    0.0000 </r>
       <r>   19.7814    0.0000 </r>
       <r>   20.2186    0.0000 </r>
       <r>   22.7506    0.0000 </r>
      </set>
      <set comment="kpoint 36">
       <r>    2.6965    1.0000 </r>
       <r>    5.0431    1.0000 </r>
       <r>    6.1704    1.0007 </r>
       <r>    7.6169    0.0000 </r>
       <r>   11.3196    0.0000 </r>
       <r>   14.1128    0.0000 </r>
       <r>   17.3570    0.0000 </r>
       <r>   20.2002    0.0000 </r>
       <r>   21.6011    0.0000 </r>
      </set>
      <set comment="kpoint 37">
       <r>    2.5288    1.0000 </r>
       <r>    4.8143    1.0000 </r>
       <r>    6.2291    1.0309 </r>
       <r>    7.8000    0.0000 </r>
       <r>   12.7261    0.0000 </r>
       <r>   13.4681    0.0000 </r>
       <r>   16.7155    0.0000 </r>
       <r>   20.1996    0.0000 </r>
       <r>   21.4166    0.0000 </r>
      </set>
      <set comment="kpoint 38">
       <r>    1.8319    1.0000 </r>
       <r>    4.4856    1.0000 </r>
       <r>    6.1354    1.0000 </r>
       <r>    8.2701    0.0000 </r>
       <r>   10.8292    0.0000 </r>
       <r>   12.1281    0.0000 </r>
       <r>   19.8658    0.0000 </r>
       <r>   20.2198    0.0000 </r>
       <r>   22.9321    0.0000 </r>
      </set>
      <set comment="kpoint 39">
       <r>    0.9103    1.0000 </r>
       <r>    5.0110    1.0000 </r>
       <r>    6.7151    0.0000 </r>
       <r>    7.7135    0.0000 </r>
       <r>    9.7754    0.0000 </r>
       <r>   11.3030    0.0000 </r>
       <r>   19.9378    0.0000 </r>
       <r>   20.2101    0.0000 </r>
       <r>   23.6938    0.0000 </r>
      </set>
      <set comment="kpoint 40">
       <r>    2.2399    1.0000 </r>
       <r>    4.5766    1.0000 </r>
       <r>    5.7180    1.0000 </r>
       <r>    8.5874    0.0000 </r>
       <r>    9.8814    0.0000 </r>
       <r>   13.1130    0.0000 </r>
       <r>   19.8674    0.0000 </r>
       <r>   20.2272    0.0000 </r>
       <r>   23.0157    0.0000 </r>
      </set>
      <set comment="kpoint 41">
       <r>    3.5569    1.0000 </r>
       <r>    4.4867    1.0000 </r>
       <r>    5.0561    1.0000 </r>
       <r>    8.7581    0.0000 </r>
       <r>   11.0180    0.0000 </r>
       <r>   14.3901    0.0000 </r>
       <r>   18.3148    0.0000 </r>
       <r>   20.2012    0.0000 </r>
       <r>   21.4165    0.0000 </r>
      </set>
      <set comment="kpoint 42">
       <r>    3.5330    1.0000 </r>
       <r>    4.1489    1.0000 </r>
       <r>    5.7677    1.0000 </r>
       <r>    8.6309    0.0000 </r>
       <r>   11.9718    0.0000 </r>
       <r>   15.6307    0.0000 </r>
       <r>   15.9375    0.0000 </r>
       <r>   20.1979    0.0000 </r>
       <r>   22.0390    0.0000 </r>
      </set>
      <set comment="kpoint 43">
       <r>    2.8547    1.0000 </r>
       <r>    4.1715    1.0000 </r>
       <r>    5.5155    1.0000 </r>
       <r>    9.3014    0.0000 </r>
       <r>   11.0203    0.0000 </r>
       <r>   13.9585    0.0000 </r>
       <r>   18.6113    0.0000 </r>
       <r>   20.2026    0.0000 </r>
       <r>   21.8250    0.0000 </r>
      </set>
      <set comment="kpoint 44">
       <r>    2.3965    1.0000 </r>
       <r>    3.9804    1.0000 </r>
       <r>    6.1451    1.0001 </r>
       <r>    9.0214    0.0000 </r>
       <r>   12.3088    0.0000 </r>
       <r>   12.7339    0.0000 </r>
       <r>   18.4662    0.0000 </r>
       <r>   20.2014    0.0000 </r>
       <r>   22.7257    0.0000 </r>
      </set>
      <set comment="kpoint 45">
       <r>    2.8511    1.0000 </r>
       <r>    3.8689    1.0000 </r>
       <r>    6.1166    1.0000 </r>
       <r>    9.8251    0.0000 </r>
       <r>   12.1477    0.0000 </r>
       <r>   14.7990    0.0000 </r>
       <r>   17.4307    0.0000 </r>
       <r>   20.1261    0.0000 </r>
       <r>   20.2216    0.0000 </r>
      </set>
      <set comment="kpoint 46">
       <r>    3.3047    1.0000 </r>
       <r>    4.5415    1.0000 </r>
       <r>    5.6219    1.0000 </r>
       <r>    8.7306    0.0000 </r>
       <r>   13.0130    0.0000 </r>
       <r>   16.2189    0.0000 </r>
       <r>   16.9777    0.0000 </r>
       <r>   18.7422    0.0000 </r>
       <r>   20.2035    0.0000 </r>
      </set>
      <set comment="kpoint 47">
       <r>    3.5643    1.0000 </r>
       <r>    4.4666    1.0000 </r>
       <r>    5.1917    1.0000 </r>
       <r>    8.9740    0.0000 </r>
       <r>   12.0861    0.0000 </r>
       <r>   15.0686    0.0000 </r>
       <r>   17.6742    0.0000 </r>
       <r>   20.0393    0.0000 </r>
       <r>   20.2168    0.0000 </r>
      </set>
      <set comment="kpoint 48">
       <r>    2.3342    1.0000 </r>
       <r>    3.4180    1.0000 </r>
       <r>    7.5776    0.0000 </r>
       <r>   10.6150    0.0000 </r>
       <r>   12.7237    0.0000 </r>
       <r>   15.1141    0.0000 </r>
       <r>   15.8819    0.0000 </r>
       <r>   20.1851    0.0000 </r>
       <r>   20.9025    0.0000 </r>
      </set>
      <set comment="kpoint 49">
       <r>    2.6866    1.0000 </r>
       <r>    3.7193    1.0000 </r>
       <r>    6.8533    0.0000 </r>
       <r>    9.8110    0.0000 </r>
       <r>   13.0282    0.0000 </r>
       <r>   15.8380    0.0000 </r>
       <r>   16.5096    0.0000 </r>
       <r>   18.9247    0.0000 </r>
       <r>   20.2015    0.0000 </r>
      </set>
      <set comment="kpoint 50">
       <r>    2.4456    1.0000 </r>
       <r>    3.6029    1.0000 </r>
       <r>    6.8505    0.0000 </r>
       <r>    9.8842    0.0000 </r>
       <r>   12.9196    0.0000 </r>
       <r>   14.0024    0.0000 </r>
       <r>   16.7032    0.0000 </r>
       <r>   20.1962    0.0000 </r>
       <r>   21.4798    0.0000 </r>
      </set>
      <set comment="kpoint 51">
       <r>    0.8548    1.0000 </r>
       <r>    5.6968    1.0000 </r>
       <r>    6.9933    0.0000 </r>
       <r>    6.9933    0.0000 </r>
       <r>   10.7692    0.0000 </r>
       <r>   10.7692    0.0000 </r>
       <r>   18.2790    0.0000 </r>
       <r>   20.1953    0.0000 </r>
       <r>   22.6837    0.0000 </r>
      </set>
      <set comment="kpoint 52">
       <r>    1.7640    1.0000 </r>
       <r>    5.5644    1.0000 </r>
       <r>    6.2309    1.0322 </r>
       <r>    7.2658    0.0000 </r>
       <r>   10.3227    0.0000 </r>
       <r>   12.9009    0.0000 </r>
       <r>   18.6572    0.0000 </r>
       <r>   20.1987    0.0000 </r>
       <r>   21.5414    0.0000 </r>
      </set>
      <set comment="kpoint 53">
       <r>    3.3438    1.0000 </r>
       <r>    4.7408    1.0000 </r>
       <r>    5.4436    1.0000 </r>
       <r>    8.2500    0.0000 </r>
       <r>   10.4661    0.0000 </r>
       <r>   14.1597    0.0000 </r>
       <r>   18.6429    0.0000 </r>
       <r>   20.2024    0.0000 </r>
       <r>   21.9008    0.0000 </r>
      </set>
      <set comment="kpoint 54">
       <r>    3.2120    1.0000 </r>
       <r>    4.1791    1.0000 </r>
       <r>    6.2296    1.0313 </r>
       <r>    9.1648    0.0000 </r>
       <r>   11.7077    0.0000 </r>
       <r>   13.8989    0.0000 </r>
       <r>   18.1515    0.0000 </r>
       <r>   20.1882    0.0000 </r>
       <r>   20.6825    0.0000 </r>
      </set>
      <set comment="kpoint 55">
       <r>    1.8992    1.0000 </r>
       <r>    5.4902    1.0000 </r>
       <r>    6.3160    0.2469 </r>
       <r>    7.2712    0.0000 </r>
       <r>   12.0284    0.0000 </r>
       <r>   12.5441    0.0000 </r>
       <r>   17.8419    0.0000 </r>
       <r>   20.1963    0.0000 </r>
       <r>   20.7174    0.0000 </r>
      </set>
      <set comment="kpoint 56">
       <r>    2.9949    1.0000 </r>
       <r>    4.6273    1.0000 </r>
       <r>    5.8644    1.0000 </r>
       <r>    8.0973    0.0000 </r>
       <r>   11.7243    0.0000 </r>
       <r>   14.4245    0.0000 </r>
       <r>   16.9221    0.0000 </r>
       <r>   20.1997    0.0000 </r>
       <r>   22.1146    0.0000 </r>
      </set>
      <set comment="kpoint 57">
       <r>    3.5434    1.0000 </r>
       <r>    4.2771    1.0000 </r>
       <r>    5.6810    1.0000 </r>
       <r>    8.8533    0.0000 </r>
       <r>   12.1376    0.0000 </r>
       <r>   14.8552    0.0000 </r>
       <r>   17.7309    0.0000 </r>
       <r>   20.1007    0.0000 </r>
       <r>   20.2536    0.0000 </r>
      </set>
      <set comment="kpoint 58">
       <r>    3.0313    1.0000 </r>
       <r>    4.3188    1.0000 </r>
       <r>    6.2064    1.0117 </r>
       <r>    8.5070    0.0000 </r>
       <r>   12.3132    0.0000 </r>
       <r>   14.3613    0.0000 </r>
       <r>   16.4194    0.0000 </r>
       <r>   20.1983    0.0000 </r>
       <r>   22.0264    0.0000 </r>
      </set>
      <set comment="kpoint 59">
       <r>    1.4337    1.0000 </r>
       <r>    6.5771    0.0000 </r>
       <r>    6.5771    0.0000 </r>
       <r>    6.9314    0.0000 </r>
       <r>   12.3092    0.0000 </r>
       <r>   12.3092    0.0000 </r>
       <r>   17.3504    0.0000 </r>
       <r>   19.2280    0.0000 </r>
       <r>   20.2048    0.0000 </r>
      </set>
      <set comment="kpoint 60">
       <r>    2.0552    1.0000 </r>
       <r>    5.5847    1.0000 </r>
       <r>    6.8637    0.0000 </r>
       <r>    7.0245    0.0000 </r>
       <r>   12.1945    0.0000 </r>
       <r>   13.5656    0.0000 </r>
       <r>   16.8183    0.0000 </r>
       <r>   20.0271    0.0000 </r>
       <r>   20.2008    0.0000 </r>
      </set>
     </set>
    </set>
   </array>
  </eigenvalues>
  <separator name="orbital magnetization" >
   <v name="MAGDIPOLOUT">      0.00000000      0.00000000      0.00000000</v>
  </separator>
  <dos>
   <i name="efermi">      6.30023333 </i>
   <total>
    <array>
     <dimension dim="1">gridpoints</dimension>
     <dimension dim="2">spin</dimension>
     <field>energy</field>
     <field>total</field>
     <field>integrated</field>
     <set>
      <set comment="spin 1">
       <r>    -3.1745     0.0000     0.0000 </r>
       <r>    -3.0791     0.0000     0.0000 </r>
       <r>    -2.9838     0.0000     0.0000 </r>
       <r>    -2.8884     0.0000     0.0000 </r>
       <r>    -2.7931     0.0000     0.0000 </r>
       <r>    -2.6978     0.0000     0.0000 </r>
       <r>    -2.6024     0.0000     0.0000 </r>
       <r>    -2.5071     0.0000     0.0000 </r>
       <r>    -2.4118     0.0000     0.0000 </r>
       <r>    -2.3164     0.0000     0.0000 </r>
       <r>    -2.2211     0.0000     0.0000 </r>
       <r>    -2.1257     0.0000     0.0000 </r>
       <r>    -2.0304     0.0000     0.0000 </r>
       <r>    -1.9351    -0.0015    -0.0001 </r>
       <r>    -1.8397     0.0403     0.0037 </r>
       <r>    -1.7444     0.0021     0.0039 </r>
       <r>    -1.6490     0.0000     0.0039 </r>
       <r>    -1.5537    -0.0005     0.0039 </r>
       <r>    -1.4584     0.0320     0.0069 </r>
       <r>    -1.3630     0.0942     0.0159 </r>
       <r>    -1.2677    -0.0028     0.0156 </r>
       <r>    -1.1724    -0.0001     0.0156 </r>
       <r>    -1.0770     0.0034     0.0159 </r>
       <r>    -0.9817     0.1239     0.0278 </r>
       <r>    -0.8863    -0.0043     0.0273 </r>
       <r>    -0.7910    -0.0001     0.0273 </r>
       <r>    -0.6957     0.0047     0.0278 </r>
       <r>    -0.6003     0.1572     0.0428 </r>
       <r>    -0.5050     0.0022     0.0430 </r>
       <r>    -0.4096    -0.0003     0.0429 </r>
       <r>    -0.3143     0.0130     0.0442 </r>
       <r>    -0.2190     0.2418     0.0672 </r>
       <r>    -0.1236    -0.0088     0.0664 </r>
       <r>    -0.0283     0.0060     0.0670 </r>
       <r>     0.0670     0.1213     0.0785 </r>
       <r>     0.1624    -0.0044     0.0781 </r>
       <r>     0.2577    -0.0001     0.0781 </r>
       <r>     0.3531    -0.0018     0.0779 </r>
       <r>     0.4484     0.2501     0.1018 </r>
       <r>     0.5437     0.0540     0.1069 </r>
       <r>     0.6391     0.0622     0.1129 </r>
       <r>     0.7344     0.1911     0.1311 </r>
       <r>     0.8298     0.0621     0.1370 </r>
       <r>     0.9251     0.1279     0.1492 </r>
       <r>     1.0204     0.0335     0.1524 </r>
       <r>     1.1158    -0.0005     0.1523 </r>
       <r>     1.2111    -0.0150     0.1509 </r>
       <r>     1.3064     0.4694     0.1957 </r>
       <r>     1.4018     0.2458     0.2191 </r>
       <r>     1.4971     0.1250     0.2310 </r>
       <r>     1.5925     0.0920     0.2398 </r>
       <r>     1.6878     0.2057     0.2594 </r>
       <r>     1.7831     0.3632     0.2940 </r>
       <r>     1.8785     0.4861     0.3404 </r>
       <r>     1.9738     0.2740     0.3665 </r>
       <r>     2.0692     0.5141     0.4155 </r>
       <r>     2.1645     0.2293     0.4374 </r>
       <r>     2.2598     0.6816     0.5024 </r>
       <r>     2.3552     0.2777     0.5288 </r>
       <r>     2.4505     0.5167     0.5781 </r>
       <r>     2.5458     0.2180     0.5989 </r>
       <r>     2.6412     0.0129     0.6001 </r>
       <r>     2.7365     0.6255     0.6597 </r>
       <r>     2.8319     0.2789     0.6863 </r>
       <r>     2.9272     1.0059     0.7822 </r>
       <r>     3.0225     0.4217     0.8224 </r>
       <r>     3.1179     0.4352     0.8639 </r>
       <r>     3.2132     0.2576     0.8885 </r>
       <r>     3.3086     0.3384     0.9208 </r>
       <r>     3.4039     0.4160     0.9604 </r>
       <r>     3.4992     0.1645     0.9761 </r>
       <r>     3.5946     1.0075     1.0722 </r>
       <r>     3.6899     0.4687     1.1168 </r>
       <r>     3.7852     0.3786     1.1529 </r>
       <r>     3.8806     0.1767     1.1698 </r>
       <r>     3.9759     0.3715     1.2052 </r>
       <r>     4.0713     0.3885     1.2422 </r>
       <r>     4.1666     0.3580     1.2764 </r>
       <r>     4.2619     0.7502     1.3479 </r>
       <r>     4.3573     0.4062     1.3866 </r>
       <r>     4.4526     0.2423     1.4097 </r>
       <r>     4.5480     1.0214     1.5071 </r>
       <r>     4.6433     0.5266     1.5573 </r>
       <r>     4.7386     0.1862     1.5750 </r>
       <r>     4.8340     0.3298     1.6065 </r>
       <r>     4.9293     0.1408     1.6199 </r>
       <r>     5.0246     0.8425     1.7002 </r>
       <r>     5.1200     0.7680     1.7735 </r>
       <r>     5.2153     0.1923     1.7918 </r>
       <r>     5.3107     0.5613     1.8453 </r>
       <r>     5.4060     0.3447     1.8782 </r>
       <r>     5.5013     0.7242     1.9472 </r>
       <r>     5.5967     0.6155     2.0059 </r>
       <r>     5.6920     0.7207     2.0746 </r>
       <r>     5.7874     0.6785     2.1393 </r>
       <r>     5.8827     0.7314     2.2090 </r>
       <r>     5.9780     0.6757     2.2734 </r>
       <r>     6.0734     0.1044     2.2834 </r>
       <r>     6.1687     0.8410     2.3636 </r>
       <r>     6.2640     1.2644     2.4841 </r>
       <r>     6.3594     0.2581     2.5087 </r>
       <r>     6.4547     0.4823     2.5547 </r>
       <r>     6.5501     0.2394     2.5775 </r>
       <r>     6.6454     0.6681     2.6412 </r>
       <r>     6.7407     0.7747     2.7151 </r>
       <r>     6.8361     0.4727     2.7601 </r>
       <r>     6.9314     0.5422     2.8118 </r>
       <r>     7.0268     0.6954     2.8781 </r>
       <r>     7.1221     0.4672     2.9227 </r>
       <r>     7.2174     0.5009     2.9704 </r>
       <r>     7.3128     1.0958     3.0749 </r>
       <r>     7.4081     0.2674     3.1004 </r>
       <r>     7.5034     0.3972     3.1383 </r>
       <r>     7.5988     0.5597     3.1916 </r>
       <r>     7.6941     0.3987     3.2296 </r>
       <r>     7.7895     0.2168     3.2503 </r>
       <r>     7.8848     0.3746     3.2860 </r>
       <r>     7.9801     0.1089     3.2964 </r>
       <r>     8.0755     0.2921     3.3243 </r>
       <r>     8.1708     0.8118     3.4017 </r>
       <r>     8.2662     0.6539     3.4640 </r>
       <r>     8.3615     0.2103     3.4840 </r>
       <r>     8.4568     0.0934     3.4929 </r>
       <r>     8.5522     0.3234     3.5238 </r>
       <r>     8.6475     0.5737     3.5785 </r>
       <r>     8.7429     0.6701     3.6424 </r>
       <r>     8.8382     0.5225     3.6922 </r>
       <r>     8.9335     0.3192     3.7226 </r>
       <r>     9.0289     0.9522     3.8134 </r>
       <r>     9.1242     0.1694     3.8295 </r>
       <r>     9.2195     0.4248     3.8700 </r>
       <r>     9.3149     0.4903     3.9168 </r>
       <r>     9.4102     0.2885     3.9443 </r>
       <r>     9.5056     0.0946     3.9533 </r>
       <r>     9.6009    -0.0130     3.9521 </r>
       <r>     9.6962     0.4301     3.9931 </r>
       <r>     9.7916     0.2954     4.0212 </r>
       <r>     9.8869     0.9659     4.1133 </r>
       <r>     9.9823     0.4748     4.1586 </r>
       <r>    10.0776     0.3758     4.1944 </r>
       <r>    10.1729     0.3389     4.2267 </r>
       <r>    10.2683    -0.0070     4.2261 </r>
       <r>    10.3636     0.1888     4.2440 </r>
       <r>    10.4589     0.1867     4.2618 </r>
       <r>    10.5543     0.3767     4.2978 </r>
       <r>    10.6496     0.2275     4.3195 </r>
       <r>    10.7450     0.2013     4.3387 </r>
       <r>    10.8403     0.2208     4.3597 </r>
       <r>    10.9356     0.0705     4.3664 </r>
       <r>    11.0310     1.1357     4.4747 </r>
       <r>    11.1263     0.4134     4.5141 </r>
       <r>    11.2217     0.5494     4.5665 </r>
       <r>    11.3170     0.5850     4.6223 </r>
       <r>    11.4123     0.1268     4.6344 </r>
       <r>    11.5077     0.2318     4.6565 </r>
       <r>    11.6030     0.1231     4.6682 </r>
       <r>    11.6983     0.0661     4.6745 </r>
       <r>    11.7937     0.3696     4.7097 </r>
       <r>    11.8890     0.3426     4.7424 </r>
       <r>    11.9844     0.4210     4.7825 </r>
       <r>    12.0797     0.6559     4.8451 </r>
       <r>    12.1750     1.5065     4.9887 </r>
       <r>    12.2704     0.1979     5.0076 </r>
       <r>    12.3657     1.0588     5.1085 </r>
       <r>    12.4611     0.3877     5.1455 </r>
       <r>    12.5564     0.1995     5.1645 </r>
       <r>    12.6517     0.1441     5.1782 </r>
       <r>    12.7471     0.5454     5.2302 </r>
       <r>    12.8424     0.1962     5.2489 </r>
       <r>    12.9377     0.5239     5.2989 </r>
       <r>    13.0331     0.4289     5.3398 </r>
       <r>    13.1284     0.5885     5.3959 </r>
       <r>    13.2238     0.5689     5.4501 </r>
       <r>    13.3191    -0.0092     5.4492 </r>
       <r>    13.4144    -0.0040     5.4488 </r>
       <r>    13.5098     0.1179     5.4601 </r>
       <r>    13.6051     0.2401     5.4830 </r>
       <r>    13.7005     0.1381     5.4961 </r>
       <r>    13.7958     0.6075     5.5541 </r>
       <r>    13.8911     0.0292     5.5568 </r>
       <r>    13.9865     0.7394     5.6273 </r>
       <r>    14.0818     0.3463     5.6604 </r>
       <r>    14.1771     0.3455     5.6933 </r>
       <r>    14.2725     0.0191     5.6951 </r>
       <r>    14.3678     0.0977     5.7044 </r>
       <r>    14.4632     0.7686     5.7777 </r>
       <r>    14.5585    -0.0046     5.7773 </r>
       <r>    14.6538     0.0492     5.7820 </r>
       <r>    14.7492     0.4231     5.8223 </r>
       <r>    14.8445     0.3451     5.8552 </r>
       <r>    14.9399     0.2120     5.8754 </r>
       <r>    15.0352     0.2161     5.8960 </r>
       <r>    15.1305     0.3310     5.9276 </r>
       <r>    15.2259     0.0225     5.9297 </r>
       <r>    15.3212    -0.0005     5.9297 </r>
       <r>    15.4165     0.0000     5.9297 </r>
       <r>    15.5119    -0.0005     5.9296 </r>
       <r>    15.6072     0.0350     5.9330 </r>
       <r>    15.7026     0.2188     5.9538 </r>
       <r>    15.7979    -0.0084     5.9530 </r>
       <r>    15.8932     0.3351     5.9850 </r>
       <r>    15.9886     0.2867     6.0123 </r>
       <r>    16.0839     0.0435     6.0165 </r>
       <r>    16.1793     0.2045     6.0360 </r>
[...]
       </set>
       <set comment="band 6">
        <r>  0.1286  0.0090  0.2015  0.0105  0.0022  0.5188  0.0701  0.0146  0.0371 </r>
       </set>
       <set comment="band 7">
        <r>  0.2752  0.1201  0.0912  0.0889  0.0246  0.0006  0.0014  0.0496  0.1560 </r>
       </set>
       <set comment="band 8">
        <r>  9.4238  0.0269  0.0253  0.4112  0.0516  0.0017  0.0033  0.0995  0.0427 </r>
       </set>
       <set comment="band 9">
        <r> 34.6856  0.0140  0.0070  0.1161  0.0139  0.0001  0.0006  0.0265  0.0178 </r>
       </set>
      </set>
      <set comment="kpoint 46">
       <set comment="band 1">
        <r>  0.0134  0.1232  0.0029  0.0002  0.0093  0.0000  0.6652  0.0000  0.0946 </r>
       </set>
       <set comment="band 2">
        <r>  0.0132  0.0066  0.0027  0.1860  0.7832  0.0091  0.0017  0.0039  0.0056 </r>
       </set>
       <set comment="band 3">
        <r>  0.0188  0.0003  0.2931  0.0038  0.0143  0.6547  0.0001  0.0048  0.0089 </r>
       </set>
       <set comment="band 4">
        <r>  0.1573  0.0103  0.0159  0.0056  0.0040  0.0081  0.0927  0.0020  0.6194 </r>
       </set>
       <set comment="band 5">
        <r>  0.0076  0.0000  0.0101  0.0136  0.0150  0.0296  0.0000  0.9001  0.0000 </r>
       </set>
       <set comment="band 6">
        <r>  0.3932  0.0020  0.1015  0.0516  0.0314  0.1000  0.0456  0.0555  0.1165 </r>
       </set>
       <set comment="band 7">
        <r>  0.0204  0.0154  0.3574  0.2189  0.0820  0.1938  0.0091  0.0008  0.0396 </r>
       </set>
       <set comment="band 8">
        <r>  0.1087  0.0009  0.1167  0.3775  0.0968  0.0418  0.0449  0.0319  0.0959 </r>
       </set>
       <set comment="band 9">
        <r> 44.1995  0.0001  0.0002  0.0005  0.0001  0.0000  0.0001  0.0000  0.0010 </r>
       </set>
      </set>
      <set comment="kpoint 47">
       <set comment="band 1">
        <r>  0.0392  0.1238  0.0002  0.0387  0.0036  0.0238  0.4040  0.0012  0.2761 </r>
       </set>
       <set comment="band 2">
        <r>  0.0537  0.0079  0.1337  0.0372  0.1511  0.5330  0.0556  0.0306  0.0021 </r>
       </set>
       <set comment="band 3">
        <r>  0.0719  0.0031  0.0580  0.1690  0.4329  0.2258  0.0382  0.0011  0.0008 </r>
       </set>
       <set comment="band 4">
        <r>  0.0487  0.0114  0.0044  0.0843  0.0159  0.0000  0.2336  0.0199  0.5117 </r>
       </set>
       <set comment="band 5">
        <r>  0.0172  0.0004  0.0449  0.0000  0.0276  0.0817  0.0029  0.7736  0.0050 </r>
       </set>
       <set comment="band 6">
        <r>  0.3102  0.0037  0.0076  0.1571  0.3313  0.0010  0.0164  0.0273  0.0747 </r>
       </set>
       <set comment="band 7">
        <r>  0.1503  0.0611  0.1755  0.1504  0.0281  0.0732  0.1704  0.0658  0.0226 </r>
       </set>
       <set comment="band 8">
        <r>  3.5042  0.0264  0.3922  0.0892  0.0205  0.1011  0.0702  0.1030  0.0288 </r>
       </set>
       <set comment="band 9">
        <r> 40.6905  0.0044  0.0364  0.0094  0.0015  0.0089  0.0108  0.0088  0.0037 </r>
       </set>
      </set>
      <set comment="kpoint 48">
       <set comment="band 1">
        <r>  0.0995  0.0097  0.0042  0.0097  0.1020  0.0003  0.7145  0.0003  0.0000 </r>
       </set>
       <set comment="band 2">
        <r>  0.0003  0.0522  0.0000  0.0522  0.8489  0.0008  0.0663  0.0008  0.0000 </r>
       </set>
       <set comment="band 3">
        <r>  0.0188  0.0001  0.5504  0.0001  0.0037  0.2032  0.0091  0.2032  0.0000 </r>
       </set>
       <set comment="band 4">
        <r>  0.0000  0.0387  0.0000  0.0387  0.0000  0.0300  0.0000  0.0300  0.8027 </r>
       </set>
       <set comment="band 5">
        <r>  0.0000  0.0001  0.0000  0.0001  0.0000  0.4524  0.0000  0.4524  0.0661 </r>
       </set>
       <set comment="band 6">
        <r>  0.2991  0.1451  0.1159  0.1451  0.0516  0.0277  0.0001  0.0277  0.0000 </r>
       </set>
       <set comment="band 7">
        <r>  0.1384  0.0055  0.2513  0.0055  0.0028  0.2868  0.0215  0.2868  0.0000 </r>
       </set>
       <set comment="band 8">
        <r> 42.7677  0.0028  0.0007  0.0028  0.0004  0.0003  0.0052  0.0003  0.0000 </r>
       </set>
       <set comment="band 9">
        <r>  0.0006  0.3265  0.0000  0.3119  0.0001  0.0033  0.0000  0.0030  0.1893 </r>
       </set>
      </set>
      <set comment="kpoint 49">
       <set comment="band 1">
        <r>  0.0692  0.0662  0.0041  0.0000  0.0247  0.0003  0.7441  0.0001  0.0150 </r>
       </set>
       <set comment="band 2">
        <r>  0.0008  0.0104  0.0000  0.1013  0.8940  0.0004  0.0149  0.0015  0.0011 </r>
       </set>
       <set comment="band 3">
        <r>  0.0228  0.0008  0.4354  0.0001  0.0016  0.5008  0.0052  0.0118  0.0107 </r>
       </set>
       <set comment="band 4">
        <r>  0.0843  0.0558  0.0233  0.0031  0.0007  0.0023  0.0170  0.0042  0.7289 </r>
       </set>
       <set comment="band 5">
        <r>  0.0065  0.0004  0.0057  0.0155  0.0066  0.0583  0.0000  0.8816  0.0015 </r>
       </set>
       <set comment="band 6">
        <r>  0.0810  0.0001  0.3813  0.0009  0.0000  0.4389  0.0261  0.0644  0.0014 </r>
       </set>
       <set comment="band 7">
        <r>  0.3205  0.0609  0.0567  0.1791  0.0430  0.0165  0.0095  0.0095  0.1432 </r>
       </set>
       <set comment="band 8">
        <r>  0.0954  0.0147  0.0249  0.5071  0.0620  0.0060  0.0407  0.0250  0.0811 </r>
       </set>
       <set comment="band 9">
        <r> 44.0481  0.0012  0.0000  0.0009  0.0001  0.0000  0.0000  0.0000  0.0013 </r>
       </set>
      </set>
      <set comment="kpoint 50">
       <set comment="band 1">
        <r>  0.1478  0.0075  0.0417  0.0075  0.1311  0.0048  0.6002  0.0048  0.0000 </r>
       </set>
       <set comment="band 2">
        <r>  0.0000  0.0549  0.0005  0.0549  0.7874  0.0068  0.0985  0.0068  0.0000 </r>
       </set>
       <set comment="band 3">
        <r>  0.1074  0.0003  0.4095  0.0003  0.0326  0.1733  0.0885  0.1733  0.0000 </r>
       </set>
       <set comment="band 4">
        <r>  0.0000  0.0359  0.0000  0.0359  0.0000  0.1359  0.0000  0.1359  0.6003 </r>
       </set>
       <set comment="band 5">
        <r>  0.0000  0.0002  0.0000  0.0002  0.0000  0.3362  0.0000  0.3362  0.3130 </r>
       </set>
       <set comment="band 6">
        <r>  0.0016  0.0759  0.2797  0.0759  0.0282  0.2113  0.0688  0.2113  0.0000 </r>
       </set>
       <set comment="band 7">
        <r>  0.3676  0.0922  0.0110  0.0922  0.0287  0.1061  0.0106  0.1061  0.0000 </r>
       </set>
       <set comment="band 8">
        <r> 43.8878  0.0005  0.0002  0.0005  0.0001  0.0003  0.0002  0.0003  0.0000 </r>
       </set>
       <set comment="band 9">
        <r>  0.0000  0.3119  0.0000  0.3130  0.0000  0.0270  0.0000  0.0272  0.1258 </r>
       </set>
      </set>
      <set comment="kpoint 51">
       <set comment="band 1">
        <r>  0.5968  0.0370  0.0370  0.0370  0.0895  0.0895  0.0000  0.0895  0.0000 </r>
       </set>
       <set comment="band 2">
        <r>  0.0392  0.1139  0.1139  0.1139  0.1905  0.1905  0.0000  0.1905  0.0000 </r>
       </set>
       <set comment="band 3">
        <r>  0.0000  0.0021  0.0000  0.0020  0.0004  0.2535  0.0005  0.2730  0.4656 </r>
       </set>
       <set comment="band 4">
        <r>  0.0000  0.0006  0.0027  0.0008  0.3509  0.0977  0.4656  0.0783  0.0005 </r>
       </set>
       <set comment="band 5">
        <r>  0.0000  0.0088  0.0030  0.0016  0.0997  0.0527  0.1658  0.2929  0.3277 </r>
       </set>
       <set comment="band 6">
        <r>  0.0000  0.0001  0.0059  0.0073  0.1971  0.2442  0.3277  0.0040  0.1658 </r>
       </set>
       <set comment="band 7">
        <r>  0.0785  0.0148  0.0148  0.0148  0.0224  0.0224  0.0000  0.0224  0.0000 </r>
       </set>
       <set comment="band 8">
        <r> 43.8330  0.0001  0.0001  0.0001  0.0000  0.0000  0.0000  0.0000  0.0000 </r>
       </set>
       <set comment="band 9">
        <r>  0.3651  0.0781  0.0781  0.0781  0.1360  0.1360  0.0000  0.1360  0.0000 </r>
       </set>
      </set>
      <set comment="kpoint 52">
       <set comment="band 1">
        <r>  0.4807  0.0670  0.0670  0.0000  0.1028  0.1709  0.0009  0.1028  0.0027 </r>
       </set>
       <set comment="band 2">
        <r>  0.0348  0.1140  0.1140  0.1595  0.2111  0.0224  0.0192  0.2111  0.0577 </r>
       </set>
       <set comment="band 3">
        <r>  0.0061  0.0034  0.0034  0.0178  0.0897  0.2995  0.1155  0.0897  0.3465 </r>
       </set>
       <set comment="band 4">
        <r>  0.0000  0.0024  0.0024  0.0000  0.1728  0.0000  0.4710  0.1728  0.1570 </r>
       </set>
       <set comment="band 5">
        <r>  0.0000  0.0064  0.0064  0.0000  0.3103  0.0000  0.2334  0.3103  0.0778 </r>
       </set>
       <set comment="band 6">
        <r>  0.0284  0.0337  0.0337  0.0032  0.0149  0.4454  0.1029  0.0149  0.3088 </r>
       </set>
       <set comment="band 7">
        <r>  0.1641  0.0428  0.0428  0.0275  0.0356  0.1157  0.0120  0.0356  0.0361 </r>
       </set>
       <set comment="band 8">
        <r> 43.8506  0.0000  0.0000  0.0000  0.0000  0.0004  0.0001  0.0000  0.0002 </r>
       </set>
       <set comment="band 9">
        <r>  0.3746  0.0882  0.0882  0.0223  0.0654  0.0158  0.0020  0.0654  0.0061 </r>
       </set>
      </set>
      <set comment="kpoint 53">
       <set comment="band 1">
        <r>  0.3120  0.0916  0.0916  0.0093  0.0348  0.4352  0.0007  0.0348  0.0020 </r>
       </set>
       <set comment="band 2">
        <r>  0.0014  0.0861  0.0861  0.0014  0.0002  0.0748  0.1611  0.0002  0.4834 </r>
       </set>
       <set comment="band 3">
        <r>  0.0077  0.0164  0.0164  0.2401  0.3374  0.0410  0.0004  0.3374  0.0013 </r>
       </set>
       <set comment="band 4">
        <r>  0.0000  0.0193  0.0193  0.0000  0.0333  0.0000  0.6323  0.0333  0.2108 </r>
       </set>
       <set comment="band 5">
        <r>  0.0000  0.0017  0.0017  0.0000  0.4405  0.0000  0.0451  0.4405  0.0150 </r>
       </set>
       <set comment="band 6">
        <r>  0.2667  0.0214  0.0214  0.0041  0.0000  0.4654  0.0407  0.0000  0.1222 </r>
       </set>
       <set comment="band 7">
        <r>  0.1653  0.1389  0.1389  0.0358  0.0324  0.0000  0.0665  0.0324  0.1994 </r>
       </set>
       <set comment="band 8">
        <r> 44.1407  0.0003  0.0003  0.0003  0.0002  0.0001  0.0002  0.0002  0.0005 </r>
       </set>
       <set comment="band 9">
        <r>  0.0157  0.0128  0.0128  0.5162  0.2355  0.0002  0.0099  0.2355  0.0298 </r>
       </set>
      </set>
      <set comment="kpoint 54">
       <set comment="band 1">
        <r>  0.1067  0.0001  0.0001  0.0064  0.0043  0.4057  0.1109  0.0043  0.3327 </r>
       </set>
       <set comment="band 2">
        <r>  0.0244  0.1481  0.1481  0.0009  0.0080  0.3279  0.0734  0.0080  0.2201 </r>
       </set>
       <set comment="band 3">
        <r>  0.0046  0.0040  0.0040  0.3701  0.2891  0.0316  0.0005  0.2891  0.0016 </r>
       </set>
       <set comment="band 4">
        <r>  0.0000  0.0329  0.0329  0.0000  0.0260  0.0000  0.6161  0.0260  0.2054 </r>
       </set>
       <set comment="band 5">
        <r>  0.0000  0.0009  0.0009  0.0000  0.4493  0.0000  0.0374  0.4493  0.0125 </r>
       </set>
       <set comment="band 6">
        <r>  0.4843  0.0558  0.0558  0.0138  0.0006  0.2071  0.0037  0.0006  0.0111 </r>
       </set>
       <set comment="band 7">
        <r>  0.0574  0.0317  0.0317  0.3590  0.2182  0.0054  0.0267  0.2182  0.0802 </r>
       </set>
       <set comment="band 8">
        <r> 42.6109  0.0024  0.0024  0.0051  0.0023  0.0007  0.0016  0.0023  0.0047 </r>
       </set>
       <set comment="band 9">
        <r>  1.6178  0.1027  0.1027  0.1467  0.0572  0.0188  0.0917  0.0572  0.2750 </r>
       </set>
      </set>
      <set comment="kpoint 55">
       <set comment="band 1">
        <r>  0.3975  0.0015  0.0811  0.0015  0.2182  0.1456  0.0204  0.1456  0.0000 </r>
       </set>
       <set comment="band 2">
        <r>  0.0114  0.1266  0.0619  0.1266  0.0512  0.0602  0.4164  0.0602  0.0000 </r>
       </set>
       <set comment="band 3">
        <r>  0.0400  0.0423  0.0912  0.0423  0.4774  0.0409  0.2186  0.0409  0.0000 </r>
       </set>
       <set comment="band 4">
        <r>  0.0000  0.0110  0.0000  0.0110  0.0000  0.2115  0.0000  0.2115  0.5400 </r>
       </set>
       <set comment="band 5">
        <r>  0.0088  0.0322  0.1107  0.0322  0.1702  0.1542  0.2816  0.1542  0.0000 </r>
       </set>
       <set comment="band 6">
        <r>  0.0000  0.0021  0.0000  0.0021  0.0000  0.2748  0.0000  0.2748  0.4275 </r>
       </set>
       <set comment="band 7">
        <r>  0.2648  0.0338  0.0295  0.0338  0.0470  0.1345  0.0050  0.1345  0.0000 </r>
       </set>
       <set comment="band 8">
        <r> 43.4974  0.0000  0.0005  0.0000  0.0002  0.0001  0.0005  0.0001  0.0000 </r>
       </set>
       <set comment="band 9">
        <r>  0.7223  0.0252  0.0635  0.0252  0.0681  0.0112  0.0456  0.0112  0.0000 </r>
       </set>
      </set>
      <set comment="kpoint 56">
       <set comment="band 1">
        <r>  0.2682  0.0128  0.0952  0.0244  0.2675  0.2149  0.0418  0.0875  0.0002 </r>
       </set>
       <set comment="band 2">
        <r>  0.0003  0.1159  0.0127  0.0405  0.0056  0.0837  0.5075  0.0114  0.1293 </r>
       </set>
       <set comment="band 3">
        <r>  0.0294  0.0389  0.1182  0.1381  0.4188  0.2155  0.0085  0.0100  0.0182 </r>
       </set>
       <set comment="band 4">
        <r>  0.0001  0.0055  0.0498  0.0109  0.0243  0.0098  0.1587  0.2026  0.4977 </r>
       </set>
       <set comment="band 5">
        <r>  0.0143  0.0031  0.0245  0.0165  0.1373  0.0545  0.0691  0.4965  0.1307 </r>
       </set>
       <set comment="band 6">
        <r>  0.1086  0.0289  0.1170  0.0557  0.0245  0.4078  0.1301  0.0045  0.0920 </r>
       </set>
       <set comment="band 7">
        <r>  0.3350  0.0517  0.0529  0.0580  0.0833  0.0227  0.0039  0.1482  0.0919 </r>
       </set>
       <set comment="band 8">
        <r> 44.1152  0.0000  0.0000  0.0002  0.0001  0.0002  0.0000  0.0003  0.0000 </r>
       </set>
       <set comment="band 9">
        <r>  0.0045  0.0021  0.0449  0.0405  0.0488  0.0441  0.1284  0.0073  0.0244 </r>
       </set>
      </set>
      <set comment="kpoint 57">
       <set comment="band 1">
        <r>  0.0305  0.0804  0.0000  0.0048  0.0012  0.1278  0.3576  0.0009  0.3184 </r>
       </set>
       <set comment="band 2">
        <r>  0.0748  0.0651  0.1690  0.0088  0.0364  0.5523  0.0734  0.0097  0.0087 </r>
       </set>
       <set comment="band 3">
        <r>  0.0025  0.0046  0.0155  0.2874  0.5849  0.0536  0.0013  0.0487  0.0000 </r>
       </set>
       <set comment="band 4">
        <r>  0.0728  0.0057  0.0403  0.0089  0.0002  0.0154  0.3325  0.0179  0.4335 </r>
       </set>
       <set comment="band 5">
        <r>  0.0221  0.0002  0.0019  0.0238  0.1553  0.0168  0.0025  0.7280  0.0030 </r>
       </set>
       <set comment="band 6">
        <r>  0.4016  0.0144  0.1386  0.0106  0.0011  0.1846  0.0796  0.0292  0.0131 </r>
       </set>
       <set comment="band 7">
        <r>  0.0657  0.0207  0.0750  0.3598  0.2055  0.0158  0.0128  0.1335  0.0925 </r>
       </set>
       <set comment="band 8">
        <r> 14.0499  0.0202  0.1511  0.1298  0.0480  0.0316  0.0039  0.0402  0.1508 </r>
       </set>
       <set comment="band 9">
        <r> 30.2107  0.0115  0.0815  0.0643  0.0228  0.0156  0.0022  0.0188  0.0921 </r>
       </set>
      </set>
      <set comment="kpoint 58">
       <set comment="band 1">
        <r>  0.1829  0.0020  0.0503  0.0020  0.4498  0.0519  0.2107  0.0519  0.0000 </r>
       </set>
       <set comment="band 2">
        <r>  0.0070  0.1230  0.0000  0.1230  0.1080  0.0353  0.4957  0.0353  0.0000 </r>
       </set>
       <set comment="band 3">
        <r>  0.0282  0.0289  0.2817  0.0289  0.2235  0.1917  0.0192  0.1917  0.0000 </r>
       </set>
       <set comment="band 4">
        <r>  0.0000  0.0249  0.0000  0.0249  0.0000  0.1163  0.0000  0.1163  0.6700 </r>
       </set>
       <set comment="band 5">
        <r>  0.0000  0.0016  0.0000  0.0016  0.0000  0.3655  0.0000  0.3655  0.2302 </r>
       </set>
       <set comment="band 6">
        <r>  0.2314  0.0932  0.1515  0.0932  0.1989  0.0033  0.0768  0.0033  0.0000 </r>
       </set>
       <set comment="band 7">
        <r>  0.2901  0.0105  0.1072  0.0105  0.0008  0.2201  0.1138  0.2201  0.0000 </r>
       </set>
       <set comment="band 8">
        <r> 44.0365  0.0001  0.0003  0.0001  0.0001  0.0003  0.0000  0.0003  0.0000 </r>
       </set>
       <set comment="band 9">
        <r>  0.1015  0.0249  0.1779  0.0249  0.0000  0.0626  0.2955  0.0626  0.0000 </r>
       </set>
      </set>
      <set comment="kpoint 59">
       <set comment="band 1">
        <r>  0.3948  0.0046  0.0046  0.0046  0.2069  0.2069  0.0000  0.2069  0.0000 </r>
       </set>
       <set comment="band 2">
        <r>  0.0000  0.0002  0.0000  0.0002  0.0009  0.1919  0.0019  0.2122  0.5921 </r>
       </set>
       <set comment="band 3">
        <r>  0.0000  0.0001  0.0003  0.0001  0.2691  0.0781  0.5921  0.0577  0.0019 </r>
       </set>
       <set comment="band 4">
        <r>  0.0256  0.2639  0.2639  0.2639  0.0273  0.0273  0.0000  0.0273  0.0000 </r>
       </set>
       <set comment="band 5">
        <r>  0.0000  0.0013  0.0030  0.0004  0.3765  0.0534  0.3626  0.1592  0.0156 </r>
       </set>
       <set comment="band 6">
        <r>  0.0000  0.0018  0.0001  0.0027  0.0162  0.3393  0.0156  0.2335  0.3626 </r>
       </set>
       <set comment="band 7">
        <r>  0.2836  0.0043  0.0043  0.0043  0.1066  0.1066  0.0000  0.1066  0.0000 </r>
       </set>
       <set comment="band 8">
        <r>  0.1190  0.0355  0.0355  0.0355  0.0528  0.0528  0.0000  0.0528  0.0000 </r>
       </set>
       <set comment="band 9">
        <r> 44.1687  0.0002  0.0002  0.0002  0.0010  0.0010  0.0000  0.0010  0.0000 </r>
       </set>
      </set>
      <set comment="kpoint 60">
       <set comment="band 1">
        <r>  0.3311  0.0120  0.0120  0.0214  0.1921  0.2692  0.0003  0.1921  0.0009 </r>
       </set>
       <set comment="band 2">
        <r>  0.0003  0.0732  0.0732  0.0175  0.0230  0.0938  0.1538  0.0230  0.4613 </r>
       </set>
       <set comment="band 3">
        <r>  0.0017  0.1562  0.1562  0.2320  0.1027  0.2056  0.0033  0.1027  0.0099 </r>
       </set>
       <set comment="band 4">
        <r>  0.0000  0.0060  0.0060  0.0000  0.1719  0.0000  0.4713  0.1719  0.1571 </r>
       </set>
       <set comment="band 5">
        <r>  0.0000  0.0025  0.0025  0.0000  0.3205  0.0000  0.2394  0.3205  0.0798 </r>
       </set>
       <set comment="band 6">
        <r>  0.0222  0.0471  0.0471  0.0694  0.0428  0.3605  0.0814  0.0428  0.2443 </r>
       </set>
       <set comment="band 7">
        <r>  0.4349  0.0071  0.0071  0.0050  0.1565  0.0970  0.0053  0.1565  0.0159 </r>
       </set>
       <set comment="band 8">
        <r>  0.0732  0.0171  0.0171  0.0241  0.0184  0.0240  0.0060  0.0184  0.0181 </r>
       </set>
       <set comment="band 9">
        <r> 44.0936  0.0000  0.0000  0.0001  0.0005  0.0001  0.0000  0.0005  0.0000 </r>
       </set>
      </set>
     </set>
    </set>
   </array>
  </projected>
 </calculation>
 <structure name="finalpos" >
  <crystal>
   <varray name="basis" >
    <v>       0.00000000       2.06500000       2.06500000 </v>
    <v>       2.06500000       0.00000000       2.06500000 </v>
    <v>       2.06500000       2.06500000       0.00000000 </v>
   </varray>
   <i name="volume">     17.61124925 </i>
   <varray name="rec_basis" >
    <v>      -0.24213075       0.24213075       0.24213075 </v>
    <v>       0.24213075      -0.24213075       0.24213075 </v>
    <v>       0.24213075       0.24213075      -0.24213075 </v>
   </varray>
  </crystal>
  <varray name="positions" >
   <v>       0.00000000       0.00000000       0.00000000 </v>
  </varray>
 </structure>
</modeling>
