   1   1   0   0
  0.1813235E+02  0.2866544E-09  0.2866544E-09  0.2866544E-09  0.5000000E-15
  1.000000000000000E-004
  CAR 
 unknown system                          
     16.39568753     -2.97463415  301      5.72263556      1.00000000
     -2.975  0.0000E+00  0.0000E+00
     -2.910  0.0000E+00  0.0000E+00
     -2.845  0.0000E+00  0.0000E+00
     -2.781  0.0000E+00  0.0000E+00
     -2.716  0.0000E+00  0.0000E+00
     -2.652  0.0000E+00  0.0000E+00
     -2.587  0.0000E+00  0.0000E+00
     -2.523 -0.1394E-32 -0.9000E-34
     -2.458 -0.9152E-24 -0.5909E-25
     -2.394 -0.2073E-16 -0.1338E-17
     -2.329 -0.1523E-10 -0.9832E-12
     -2.264 -0.3698E-06 -0.2388E-07
     -2.200 -0.2471E-03 -0.1598E-04
     -2.135  0.4557E-03  0.1345E-04
     -2.071  0.3848E-01  0.2498E-02
     -2.006  0.5994E-02  0.2885E-02
     -1.942  0.1624E-01  0.3934E-02
     -1.877  0.4596E-01  0.6901E-02
     -1.812 -0.5999E-02  0.6514E-02
     -1.748  0.1336E+00  0.1514E-01
     -1.683  0.5750E-01  0.1885E-01
     -1.619 -0.4591E-02  0.1856E-01
     -1.554 -0.7473E-03  0.1851E-01
     -1.490 -0.4139E-02  0.1824E-01
     -1.425  0.1745E+00  0.2951E-01
     -1.360  0.5792E-01  0.3325E-01
     -1.296  0.4931E-01  0.3644E-01
     -1.231  0.1344E+00  0.4511E-01
     -1.167  0.9687E-02  0.4574E-01
     -1.102  0.1590E+00  0.5601E-01
     -1.038  0.1153E-01  0.5675E-01
     -0.973 -0.1781E-02  0.5663E-01
     -0.908 -0.8528E-02  0.5608E-01
     -0.844  0.1094E+00  0.6315E-01
     -0.779  0.2620E+00  0.8006E-01
     -0.715  0.6407E-01  0.8420E-01
     -0.650  0.1201E+00  0.9196E-01
     -0.586  0.1886E-01  0.9318E-01
     -0.521  0.3187E+00  0.1138E+00
     -0.456  0.2651E-01  0.1155E+00
     -0.392 -0.8211E-02  0.1149E+00
     -0.327  0.5741E-01  0.1186E+00
     -0.263  0.1363E+00  0.1274E+00
     -0.198  0.2947E-01  0.1293E+00
     -0.134  0.8449E-01  0.1348E+00
     -0.069  0.1696E+00  0.1458E+00
     -0.005  0.4294E+00  0.1735E+00
      0.060  0.1198E+00  0.1812E+00
      0.125  0.7012E-02  0.1817E+00
      0.189  0.1600E+00  0.1920E+00
      0.254  0.1594E+00  0.2023E+00
      0.318  0.3195E+00  0.2229E+00
      0.383  0.7878E-01  0.2280E+00
      0.447 -0.1431E-01  0.2271E+00
      0.512  0.8498E-01  0.2326E+00
      0.577  0.2796E+00  0.2506E+00
      0.641 -0.8344E-02  0.2501E+00
      0.706  0.2059E+00  0.2634E+00
      0.770  0.3650E+00  0.2869E+00
      0.835  0.5497E+00  0.3224E+00
      0.899  0.2517E+00  0.3387E+00
      0.964  0.9148E-01  0.3446E+00
      1.029  0.6265E-01  0.3486E+00
      1.093  0.6662E+00  0.3917E+00
      1.158  0.1885E+00  0.4038E+00
      1.222 -0.9576E-02  0.4032E+00
      1.287  0.5093E-01  0.4065E+00
      1.351  0.4934E+00  0.4384E+00
      1.416  0.4833E+00  0.4696E+00
      1.481  0.1227E+01  0.5488E+00
      1.545  0.5473E+00  0.5841E+00
      1.610  0.7580E+00  0.6331E+00
      1.674  0.6108E+00  0.6725E+00
      1.739  0.9649E+00  0.7348E+00
      1.803  0.2973E+00  0.7540E+00
      1.868  0.1525E+00  0.7638E+00
      1.933  0.3218E+00  0.7846E+00
      1.997  0.8933E+00  0.8423E+00
      2.062  0.1373E+01  0.9310E+00
      2.126  0.6101E+00  0.9704E+00
      2.191  0.7434E+00  0.1018E+01
      2.255  0.8956E+00  0.1076E+01
      2.320  0.2950E+00  0.1095E+01
      2.384  0.7783E+00  0.1145E+01
      2.449  0.3952E+00  0.1171E+01
      2.514  0.1220E+01  0.1250E+01
      2.578  0.1510E+01  0.1347E+01
      2.643  0.7255E+00  0.1394E+01
      2.707  0.1131E+01  0.1467E+01
      2.772  0.1122E+01  0.1540E+01
      2.836  0.1020E+01  0.1605E+01
      2.901  0.7469E+00  0.1654E+01
      2.966  0.1013E+01  0.1719E+01
      3.030  0.9019E+00  0.1777E+01
      3.095  0.1227E+01  0.1857E+01
      3.159  0.1255E+01  0.1938E+01
      3.224  0.9290E+00  0.1997E+01
      3.288  0.4105E+00  0.2024E+01
      3.353  0.3433E+00  0.2046E+01
      3.418  0.5613E+00  0.2082E+01
      3.482  0.3465E+00  0.2105E+01
      3.547  0.2777E+00  0.2123E+01
      3.611  0.2603E+00  0.2140E+01
      3.676  0.2490E+00  0.2156E+01
      3.740  0.9427E+00  0.2216E+01
      3.805  0.5826E+00  0.2254E+01
      3.870  0.1477E+00  0.2264E+01
      3.934  0.2164E+00  0.2278E+01
      3.999  0.3504E+00  0.2300E+01
      4.063  0.3858E-01  0.2303E+01
      4.128  0.1264E+01  0.2384E+01
      4.192  0.1582E+01  0.2486E+01
      4.257  0.2680E+01  0.2659E+01
      4.322  0.2519E+01  0.2822E+01
      4.386  0.2220E+01  0.2965E+01
      4.451  0.1586E+01  0.3068E+01
      4.515  0.1440E+01  0.3161E+01
      4.580  0.2362E+01  0.3313E+01
      4.644  0.1838E+01  0.3432E+01
      4.709  0.9278E+00  0.3492E+01
      4.773  0.1030E+01  0.3558E+01
      4.838  0.1104E+01  0.3630E+01
      4.903  0.1736E+01  0.3742E+01
      4.967  0.1559E+01  0.3842E+01
      5.032  0.1463E+01  0.3937E+01
      5.096  0.5104E+00  0.3970E+01
      5.161  0.1302E+01  0.4054E+01
      5.225  0.1683E+01  0.4163E+01
      5.290  0.2670E+01  0.4335E+01
      5.355  0.1624E+01  0.4440E+01
      5.419  0.2418E+01  0.4596E+01
      5.484  0.1599E+01  0.4699E+01
      5.548  0.1623E+01  0.4804E+01
      5.613  0.1188E+01  0.4881E+01
      5.677  0.8536E+00  0.4936E+01
      5.742  0.1509E+01  0.5033E+01
      5.807  0.1406E+01  0.5124E+01
      5.871  0.1650E+01  0.5231E+01
      5.936  0.6430E+00  0.5272E+01
      6.000  0.9509E+00  0.5333E+01
      6.065  0.1108E+01  0.5405E+01
      6.129  0.8104E+00  0.5457E+01
      6.194  0.6573E+00  0.5500E+01
      6.259  0.9858E+00  0.5563E+01
      6.323  0.6286E+00  0.5604E+01
      6.388  0.1209E+01  0.5682E+01
      6.452  0.3625E+00  0.5706E+01
      6.517  0.1723E+00  0.5717E+01
      6.581  0.5166E-01  0.5720E+01
      6.646  0.5238E+00  0.5754E+01
      6.711  0.6196E+00  0.5794E+01
      6.775  0.3097E+00  0.5814E+01
      6.840  0.3183E+00  0.5834E+01
      6.904  0.8525E-01  0.5840E+01
      6.969  0.1440E+00  0.5849E+01
      7.033  0.2427E+00  0.5865E+01
      7.098  0.2625E+00  0.5882E+01
      7.163  0.1730E+00  0.5893E+01
      7.227  0.1023E+00  0.5900E+01
      7.292  0.3996E+00  0.5925E+01
      7.356  0.3316E+00  0.5947E+01
      7.421  0.6235E+00  0.5987E+01
      7.485  0.5820E+00  0.6025E+01
      7.550  0.9857E+00  0.6088E+01
      7.614  0.7831E+00  0.6139E+01
      7.679  0.3112E+00  0.6159E+01
      7.744  0.1073E+00  0.6166E+01
      7.808  0.5269E+00  0.6200E+01
      7.873  0.4713E+00  0.6230E+01
      7.937  0.1017E+01  0.6296E+01
      8.002  0.9081E+00  0.6355E+01
      8.066  0.1073E+01  0.6424E+01
      8.131  0.8293E+00  0.6477E+01
      8.196  0.4536E+00  0.6507E+01
      8.260  0.3059E+00  0.6526E+01
      8.325  0.2831E+00  0.6545E+01
      8.389  0.1990E+00  0.6558E+01
      8.454  0.1176E+01  0.6634E+01
      8.518  0.1888E+01  0.6755E+01
      8.583  0.8636E+00  0.6811E+01
      8.648  0.3820E+00  0.6836E+01
      8.712  0.2179E+00  0.6850E+01
      8.777  0.2876E+00  0.6868E+01
      8.841  0.9512E+00  0.6930E+01
      8.906  0.1203E+01  0.7008E+01
      8.970  0.9696E+00  0.7070E+01
      9.035  0.1639E+01  0.7176E+01
      9.100  0.1759E+01  0.7290E+01
      9.164  0.1508E+01  0.7387E+01
      9.229  0.1733E+01  0.7499E+01
      9.293  0.1039E+01  0.7566E+01
      9.358  0.7159E+00  0.7612E+01
      9.422  0.5080E+00  0.7645E+01
      9.487  0.8834E+00  0.7702E+01
      9.552  0.5533E+00  0.7738E+01
      9.616  0.1757E+01  0.7851E+01
      9.681  0.1868E+01  0.7972E+01
      9.745  0.4649E+00  0.8002E+01
      9.810  0.7640E+00  0.8051E+01
      9.874  0.9026E+00  0.8109E+01
      9.939  0.8678E+00  0.8165E+01
     10.003  0.1037E+01  0.8232E+01
     10.068  0.1052E+01  0.8300E+01
     10.133  0.1503E+01  0.8397E+01
     10.197  0.1117E+01  0.8469E+01
     10.262  0.1337E+01  0.8556E+01
     10.326  0.1665E+01  0.8663E+01
     10.391  0.2343E+01  0.8815E+01
     10.455  0.1446E+01  0.8908E+01
     10.520  0.3780E+01  0.9152E+01
     10.585  0.4106E+01  0.9417E+01
     10.649  0.3023E+01  0.9612E+01
     10.714  0.3435E+01  0.9834E+01
     10.778  0.1764E+01  0.9948E+01
     10.843  0.1381E+01  0.1004E+02
     10.907  0.1123E+01  0.1011E+02
     10.972  0.5269E+00  0.1014E+02
     11.037  0.5924E+00  0.1018E+02
     11.101 -0.2688E-02  0.1018E+02
     11.166 -0.1552E-01  0.1018E+02
     11.230  0.1293E+00  0.1019E+02
     11.295  0.6820E+00  0.1023E+02
     11.359  0.8347E+00  0.1029E+02
     11.424  0.1873E+00  0.1030E+02
     11.489  0.1600E+00  0.1031E+02
     11.553  0.2921E+00  0.1033E+02
     11.618  0.7826E+00  0.1038E+02
     11.682  0.8168E+00  0.1043E+02
     11.747  0.1539E+01  0.1053E+02
     11.811  0.6607E+00  0.1057E+02
     11.876  0.1753E+01  0.1069E+02
     11.941  0.9367E+00  0.1075E+02
     12.005  0.4232E-01  0.1075E+02
     12.070  0.2516E+00  0.1077E+02
     12.134  0.1214E+00  0.1077E+02
     12.199  0.2949E+00  0.1079E+02
     12.263  0.3399E+00  0.1082E+02
     12.328  0.3355E+00  0.1084E+02
     12.392  0.2681E+00  0.1085E+02
     12.457  0.9822E-01  0.1086E+02
     12.522  0.1207E+00  0.1087E+02
     12.586  0.6135E-01  0.1087E+02
     12.651  0.1203E-01  0.1087E+02
     12.715  0.1590E+00  0.1088E+02
     12.780  0.6691E-02  0.1088E+02
     12.844  0.1868E-01  0.1088E+02
     12.909  0.1619E+00  0.1090E+02
     12.974  0.1418E+00  0.1090E+02
     13.038  0.6454E+00  0.1095E+02
     13.103  0.1736E+01  0.1106E+02
     13.167  0.7001E+00  0.1110E+02
     13.232  0.9955E+00  0.1117E+02
     13.296  0.4773E+00  0.1120E+02
     13.361  0.5889E+00  0.1124E+02
     13.426  0.9501E+00  0.1130E+02
     13.490  0.3953E+00  0.1132E+02
     13.555  0.1858E-01  0.1132E+02
     13.619  0.5266E+00  0.1136E+02
     13.684  0.5679E+00  0.1140E+02
     13.748  0.6720E-01  0.1140E+02
     13.813  0.6698E-02  0.1140E+02
     13.878  0.2733E+00  0.1142E+02
     13.942  0.4499E+00  0.1145E+02
     14.007  0.4955E-01  0.1145E+02
     14.071  0.3115E+00  0.1147E+02
     14.136  0.4769E-01  0.1147E+02
     14.200  0.2303E+00  0.1149E+02
     14.265  0.4990E+00  0.1152E+02
     14.330  0.3177E+00  0.1154E+02
     14.394  0.3260E+00  0.1156E+02
     14.459  0.3836E+00  0.1159E+02
     14.523  0.5099E+00  0.1162E+02
     14.588  0.5418E+00  0.1165E+02
     14.652  0.2924E+00  0.1167E+02
     14.717  0.3970E+00  0.1170E+02
     14.781  0.3766E+00  0.1172E+02
     14.846  0.8801E+00  0.1178E+02
     14.911  0.7472E+00  0.1183E+02
     14.975  0.4620E-01  0.1183E+02
     15.040  0.1744E+00  0.1184E+02
     15.104  0.7941E+00  0.1189E+02
     15.169  0.8663E+00  0.1195E+02
     15.233  0.3748E+00  0.1197E+02
     15.298 -0.2278E-01  0.1197E+02
     15.363 -0.2651E-02  0.1197E+02
     15.427  0.1404E+00  0.1198E+02
     15.492  0.1368E+00  0.1199E+02
     15.556  0.1549E+00  0.1200E+02
     15.621 -0.5654E-02  0.1200E+02
     15.685 -0.5237E-03  0.1200E+02
     15.750 -0.5842E-06  0.1200E+02
     15.815 -0.2157E-10  0.1200E+02
     15.879 -0.2687E-16  0.1200E+02
     15.944  0.0000E+00  0.1200E+02
     16.008  0.0000E+00  0.1200E+02
     16.073  0.0000E+00  0.1200E+02
     16.137  0.0000E+00  0.1200E+02
     16.202  0.0000E+00  0.1200E+02
     16.267  0.0000E+00  0.1200E+02
     16.331  0.0000E+00  0.1200E+02
     16.396  0.0000E+00  0.1200E+02
