   1   1   1   0
  0.1813235E+02  0.2866544E-09  0.2866544E-09  0.2866544E-09  0.5000000E-15
  1.000000000000000E-004
  CAR 
 unknown system                          
     16.40384185     -2.98289735  301      5.72117995      1.00000000
     -2.983  0.0000E+00  0.0000E+00  0.0000E+00  0.0000E+00
     -2.918  0.0000E+00  0.0000E+00  0.0000E+00  0.0000E+00
     -2.854  0.0000E+00  0.0000E+00  0.0000E+00  0.0000E+00
     -2.789  0.0000E+00  0.0000E+00  0.0000E+00  0.0000E+00
     -2.724  0.0000E+00  0.0000E+00  0.0000E+00  0.0000E+00
     -2.660  0.0000E+00  0.0000E+00  0.0000E+00  0.0000E+00
     -2.595  0.0000E+00  0.0000E+00  0.0000E+00  0.0000E+00
     -2.531 -0.2689E-35 -0.6153E-33 -0.1738E-36 -0.3976E-34
     -2.466 -0.4132E-26 -0.4183E-24 -0.2670E-27 -0.2703E-25
     -2.401 -0.2183E-18 -0.9752E-17 -0.1411E-19 -0.6302E-18
     -2.337 -0.3759E-12 -0.7335E-11 -0.2429E-13 -0.4740E-12
     -2.272 -0.2155E-07 -0.1813E-06 -0.1393E-08 -0.1172E-07
     -2.207 -0.3597E-04 -0.1227E-03 -0.2326E-05 -0.7939E-05
     -2.143 -0.7365E-03  0.2232E-03 -0.4992E-04  0.6483E-05
     -2.078  0.1507E-01  0.1923E-01  0.9242E-03  0.1249E-02
     -2.014  0.8717E-02  0.2986E-02  0.1488E-02  0.1442E-02
     -1.949  0.1912E-02  0.8171E-02  0.1611E-02  0.1970E-02
     -1.884  0.2648E-01  0.2292E-01  0.3322E-02  0.3451E-02
     -1.820 -0.1303E-02 -0.2973E-02  0.3238E-02  0.3259E-02
     -1.755  0.4422E-01  0.6711E-01  0.6095E-02  0.7596E-02
     -1.690  0.5245E-01  0.2831E-01  0.9485E-02  0.9425E-02
     -1.626 -0.3121E-02 -0.2266E-02  0.9283E-02  0.9279E-02
     -1.561 -0.1878E-03 -0.3850E-03  0.9271E-02  0.9254E-02
     -1.497 -0.3810E-02 -0.1914E-02  0.9025E-02  0.9130E-02
     -1.432  0.6163E-01  0.8794E-01  0.1301E-01  0.1481E-01
     -1.367  0.5838E-01  0.2793E-01  0.1678E-01  0.1662E-01
     -1.303  0.5646E-02  0.2564E-01  0.1714E-01  0.1827E-01
     -1.238  0.7884E-01  0.6634E-01  0.2224E-01  0.2256E-01
     -1.173  0.2713E-02  0.5352E-02  0.2242E-01  0.2291E-01
     -1.109  0.7222E-01  0.7941E-01  0.2708E-01  0.2804E-01
     -1.044  0.2101E-01  0.5140E-02  0.2844E-01  0.2837E-01
     -0.980 -0.1845E-02 -0.8496E-03  0.2832E-01  0.2832E-01
     -0.915 -0.2338E-02 -0.4388E-02  0.2817E-01  0.2803E-01
     -0.850  0.2171E-01  0.5745E-01  0.2957E-01  0.3175E-01
     -0.786  0.1508E+00  0.1286E+00  0.3932E-01  0.4006E-01
     -0.721  0.2584E-01  0.3333E-01  0.4099E-01  0.4221E-01
     -0.656  0.7483E-01  0.5828E-01  0.4582E-01  0.4598E-01
     -0.592 -0.1495E-02  0.1134E-01  0.4573E-01  0.4671E-01
     -0.527  0.1442E+00  0.1592E+00  0.5505E-01  0.5700E-01
     -0.463  0.4355E-01  0.1118E-01  0.5786E-01  0.5772E-01
     -0.398 -0.4976E-02 -0.4077E-02  0.5754E-01  0.5746E-01
     -0.333  0.1125E-01  0.3099E-01  0.5827E-01  0.5946E-01
     -0.269  0.7828E-01  0.6639E-01  0.6333E-01  0.6375E-01
     -0.204  0.1882E-01  0.1442E-01  0.6454E-01  0.6468E-01
     -0.140  0.2462E-01  0.4467E-01  0.6613E-01  0.6757E-01
     -0.075  0.9010E-01  0.8451E-01  0.7195E-01  0.7303E-01
     -0.010  0.1754E+00  0.2182E+00  0.8329E-01  0.8713E-01
      0.054  0.1166E+00  0.5323E-01  0.9082E-01  0.9057E-01
      0.119 -0.7729E-02  0.5825E-02  0.9032E-01  0.9095E-01
      0.184  0.7303E-01  0.8026E-01  0.9504E-01  0.9613E-01
      0.248  0.7488E-01  0.8084E-01  0.9988E-01  0.1014E+00
      0.313  0.1432E+00  0.1613E+00  0.1091E+00  0.1118E+00
      0.377  0.7749E-01  0.3399E-01  0.1141E+00  0.1140E+00
      0.442 -0.7673E-02 -0.7069E-02  0.1136E+00  0.1135E+00
      0.507  0.1670E-01  0.4808E-01  0.1147E+00  0.1166E+00
      0.571  0.1487E+00  0.1359E+00  0.1243E+00  0.1254E+00
      0.636  0.1530E-01 -0.6347E-02  0.1253E+00  0.1250E+00
      0.701  0.4853E-01  0.1140E+00  0.1285E+00  0.1324E+00
      0.765  0.2158E+00  0.1760E+00  0.1424E+00  0.1437E+00
      0.830  0.2228E+00  0.2832E+00  0.1568E+00  0.1620E+00
      0.894  0.1799E+00  0.1170E+00  0.1684E+00  0.1696E+00
      0.959  0.6046E-01  0.4101E-01  0.1723E+00  0.1722E+00
      1.024  0.8677E-03  0.4266E-01  0.1724E+00  0.1750E+00
      1.088  0.3063E+00  0.3340E+00  0.1922E+00  0.1966E+00
      1.153  0.1471E+00  0.8281E-01  0.2017E+00  0.2019E+00
      1.218 -0.9274E-03 -0.5329E-02  0.2016E+00  0.2016E+00
      1.282  0.1090E-01  0.3084E-01  0.2023E+00  0.2036E+00
      1.347  0.2034E+00  0.2564E+00  0.2155E+00  0.2202E+00
      1.411  0.2393E+00  0.2506E+00  0.2309E+00  0.2364E+00
      1.476  0.5492E+00  0.6216E+00  0.2664E+00  0.2765E+00
      1.541  0.3740E+00  0.2486E+00  0.2906E+00  0.2926E+00
      1.605  0.2992E+00  0.4026E+00  0.3099E+00  0.3186E+00
      1.670  0.3559E+00  0.2962E+00  0.3329E+00  0.3377E+00
      1.735  0.4524E+00  0.4846E+00  0.3622E+00  0.3691E+00
      1.799  0.2219E+00  0.1255E+00  0.3765E+00  0.3772E+00
      1.864  0.6494E-01  0.8088E-01  0.3807E+00  0.3824E+00
      1.928  0.1470E+00  0.1655E+00  0.3902E+00  0.3931E+00
      1.993  0.3491E+00  0.4862E+00  0.4128E+00  0.4245E+00
      2.058  0.7470E+00  0.6538E+00  0.4610E+00  0.4668E+00
      2.122  0.3078E+00  0.3106E+00  0.4809E+00  0.4868E+00
      2.187  0.3749E+00  0.3698E+00  0.5052E+00  0.5107E+00
      2.252  0.4477E+00  0.4429E+00  0.5341E+00  0.5394E+00
      2.316  0.1777E+00  0.1463E+00  0.5456E+00  0.5488E+00
      2.381  0.3576E+00  0.3898E+00  0.5687E+00  0.5740E+00
      2.445  0.2179E+00  0.1970E+00  0.5828E+00  0.5867E+00
      2.510  0.5513E+00  0.6291E+00  0.6184E+00  0.6274E+00
      2.575  0.7308E+00  0.7621E+00  0.6656E+00  0.6766E+00
      2.639  0.4434E+00  0.3428E+00  0.6943E+00  0.6988E+00
      2.704  0.4967E+00  0.5834E+00  0.7264E+00  0.7365E+00
      2.769  0.6029E+00  0.5458E+00  0.7653E+00  0.7718E+00
      2.833  0.5206E+00  0.4967E+00  0.7990E+00  0.8039E+00
      2.898  0.3711E+00  0.3809E+00  0.8229E+00  0.8285E+00
      2.962  0.5052E+00  0.5039E+00  0.8556E+00  0.8610E+00
      3.027  0.4265E+00  0.4615E+00  0.8832E+00  0.8909E+00
      3.092  0.6076E+00  0.6312E+00  0.9224E+00  0.9316E+00
      3.156  0.6319E+00  0.6245E+00  0.9633E+00  0.9720E+00
      3.221  0.4940E+00  0.4376E+00  0.9952E+00  0.1000E+01
      3.285  0.2322E+00  0.1960E+00  0.1010E+01  0.1013E+01
      3.350  0.1712E+00  0.1720E+00  0.1021E+01  0.1024E+01
      3.415  0.2770E+00  0.2804E+00  0.1039E+01  0.1042E+01
      3.479  0.1898E+00  0.1633E+00  0.1051E+01  0.1053E+01
      3.544  0.1301E+00  0.1450E+00  0.1060E+01  0.1062E+01
      3.609  0.1454E+00  0.1222E+00  0.1069E+01  0.1070E+01
      3.673  0.1036E+00  0.1411E+00  0.1076E+01  0.1079E+01
      3.738  0.4163E+00  0.4983E+00  0.1103E+01  0.1111E+01
      3.802  0.3641E+00  0.2486E+00  0.1126E+01  0.1127E+01
      3.867  0.8158E-01  0.6890E-01  0.1132E+01  0.1132E+01
      3.932  0.8154E-01  0.1240E+00  0.1137E+01  0.1140E+01
      3.996  0.2042E+00  0.1564E+00  0.1150E+01  0.1150E+01
      4.061 -0.8384E-02  0.5655E-01  0.1150E+01  0.1154E+01
      4.126  0.5587E+00  0.6722E+00  0.1186E+01  0.1197E+01
      4.190  0.7442E+00  0.8376E+00  0.1234E+01  0.1251E+01
      4.255  0.1243E+01  0.1424E+01  0.1314E+01  0.1343E+01
      4.319  0.1352E+01  0.1175E+01  0.1401E+01  0.1419E+01
      4.384  0.1087E+01  0.1124E+01  0.1472E+01  0.1492E+01
      4.449  0.8748E+00  0.7234E+00  0.1528E+01  0.1539E+01
      4.513  0.6690E+00  0.7814E+00  0.1571E+01  0.1589E+01
      4.578  0.1142E+01  0.1194E+01  0.1645E+01  0.1666E+01
      4.643  0.9929E+00  0.8557E+00  0.1709E+01  0.1722E+01
      4.707  0.5112E+00  0.4306E+00  0.1742E+01  0.1749E+01
      4.772  0.5012E+00  0.5215E+00  0.1775E+01  0.1783E+01
      4.836  0.5045E+00  0.6194E+00  0.1807E+01  0.1823E+01
      4.901  0.8686E+00  0.8465E+00  0.1864E+01  0.1878E+01
      4.966  0.7808E+00  0.7764E+00  0.1914E+01  0.1928E+01
      5.030  0.7704E+00  0.6775E+00  0.1964E+01  0.1972E+01
      5.095  0.2858E+00  0.2535E+00  0.1982E+01  0.1988E+01
      5.160  0.5755E+00  0.7096E+00  0.2020E+01  0.2034E+01
      5.224  0.8384E+00  0.8680E+00  0.2074E+01  0.2090E+01
      5.289  0.1256E+01  0.1384E+01  0.2155E+01  0.2179E+01
      5.353  0.9080E+00  0.7451E+00  0.2214E+01  0.2228E+01
      5.418  0.1163E+01  0.1220E+01  0.2289E+01  0.2306E+01
      5.483  0.8189E+00  0.8067E+00  0.2342E+01  0.2359E+01
      5.547  0.8763E+00  0.7333E+00  0.2398E+01  0.2406E+01
      5.612  0.5594E+00  0.6193E+00  0.2434E+01  0.2446E+01
      5.677  0.4594E+00  0.4342E+00  0.2464E+01  0.2474E+01
      5.741  0.6998E+00  0.7753E+00  0.2509E+01  0.2524E+01
      5.806  0.7343E+00  0.6854E+00  0.2557E+01  0.2568E+01
      5.870  0.8121E+00  0.8190E+00  0.2609E+01  0.2621E+01
      5.935  0.3839E+00  0.2728E+00  0.2634E+01  0.2639E+01
      6.000  0.4265E+00  0.5156E+00  0.2662E+01  0.2672E+01
      6.064  0.5818E+00  0.5285E+00  0.2699E+01  0.2706E+01
      6.129  0.3870E+00  0.4291E+00  0.2724E+01  0.2734E+01
      6.193  0.3662E+00  0.2976E+00  0.2748E+01  0.2753E+01
      6.258  0.4516E+00  0.5179E+00  0.2777E+01  0.2787E+01
      6.323  0.3426E+00  0.3076E+00  0.2799E+01  0.2807E+01
      6.387  0.5809E+00  0.5919E+00  0.2837E+01  0.2845E+01
      6.452  0.2408E+00  0.1310E+00  0.2852E+01  0.2853E+01
      6.517  0.7943E-01  0.9078E-01  0.2857E+01  0.2859E+01
      6.581  0.3705E-01  0.2182E-01  0.2860E+01  0.2861E+01
      6.646  0.2169E+00  0.3069E+00  0.2874E+01  0.2881E+01
      6.710  0.3289E+00  0.2817E+00  0.2895E+01  0.2899E+01
      6.775  0.1706E+00  0.1499E+00  0.2906E+01  0.2908E+01
      6.840  0.1508E+00  0.1567E+00  0.2916E+01  0.2919E+01
      6.904  0.6077E-01  0.2755E-01  0.2920E+01  0.2920E+01
      6.969  0.6819E-01  0.7248E-01  0.2924E+01  0.2925E+01
      7.034  0.1099E+00  0.1388E+00  0.2931E+01  0.2934E+01
      7.098  0.1360E+00  0.1260E+00  0.2940E+01  0.2942E+01
      7.163  0.9485E-01  0.6780E-01  0.2946E+01  0.2947E+01
      7.227  0.3742E-01  0.8975E-01  0.2949E+01  0.2952E+01
      7.292  0.1983E+00  0.1862E+00  0.2961E+01  0.2964E+01
      7.357  0.1551E+00  0.1917E+00  0.2971E+01  0.2977E+01
      7.421  0.3020E+00  0.3259E+00  0.2991E+01  0.2998E+01
      7.486  0.2994E+00  0.2830E+00  0.3010E+01  0.3016E+01
      7.551  0.4585E+00  0.5452E+00  0.3040E+01  0.3051E+01
      7.615  0.4381E+00  0.3057E+00  0.3068E+01  0.3071E+01
      7.680  0.1667E+00  0.1391E+00  0.3079E+01  0.3080E+01
      7.744  0.4584E-01  0.7870E-01  0.3082E+01  0.3085E+01
      7.809  0.2560E+00  0.2618E+00  0.3099E+01  0.3102E+01
      7.874  0.2234E+00  0.2811E+00  0.3113E+01  0.3120E+01
      7.938  0.5022E+00  0.5195E+00  0.3145E+01  0.3154E+01
      8.003  0.4623E+00  0.4252E+00  0.3175E+01  0.3181E+01
      8.068  0.4908E+00  0.6211E+00  0.3207E+01  0.3221E+01
      8.132  0.4798E+00  0.2885E+00  0.3238E+01  0.3240E+01
      8.197  0.2100E+00  0.2611E+00  0.3252E+01  0.3257E+01
      8.261  0.1770E+00  0.1120E+00  0.3263E+01  0.3264E+01
      8.326  0.1338E+00  0.1443E+00  0.3272E+01  0.3274E+01
      8.391  0.9058E-01  0.1465E+00  0.3278E+01  0.3283E+01
      8.455  0.5607E+00  0.6635E+00  0.3314E+01  0.3326E+01
      8.520  0.9355E+00  0.9342E+00  0.3374E+01  0.3386E+01
      8.585  0.4674E+00  0.3429E+00  0.3404E+01  0.3408E+01
      8.649  0.2017E+00  0.1677E+00  0.3417E+01  0.3419E+01
      8.714  0.1158E+00  0.9534E-01  0.3425E+01  0.3425E+01
      8.778  0.1311E+00  0.1917E+00  0.3433E+01  0.3438E+01
      8.843  0.4494E+00  0.5489E+00  0.3462E+01  0.3473E+01
      8.908  0.6015E+00  0.5666E+00  0.3501E+01  0.3510E+01
      8.972  0.4867E+00  0.5079E+00  0.3533E+01  0.3543E+01
      9.037  0.7943E+00  0.8859E+00  0.3584E+01  0.3600E+01
      9.102  0.9020E+00  0.8172E+00  0.3642E+01  0.3653E+01
      9.166  0.7439E+00  0.8199E+00  0.3690E+01  0.3706E+01
      9.231  0.8875E+00  0.7704E+00  0.3748E+01  0.3756E+01
      9.295  0.5109E+00  0.5244E+00  0.3781E+01  0.3789E+01
      9.360  0.3799E+00  0.3035E+00  0.3805E+01  0.3809E+01
      9.425  0.2566E+00  0.2675E+00  0.3822E+01  0.3826E+01
      9.489  0.4356E+00  0.4570E+00  0.3850E+01  0.3856E+01
      9.554  0.2823E+00  0.2604E+00  0.3868E+01  0.3873E+01
      9.618  0.8469E+00  0.1080E+01  0.3923E+01  0.3942E+01
      9.683  0.9668E+00  0.7154E+00  0.3986E+01  0.3989E+01
      9.748  0.2350E+00  0.2362E+00  0.4001E+01  0.4004E+01
      9.812  0.3830E+00  0.4047E+00  0.4026E+01  0.4030E+01
      9.877  0.4542E+00  0.4571E+00  0.4055E+01  0.4060E+01
      9.942  0.4269E+00  0.4289E+00  0.4082E+01  0.4087E+01
     10.006  0.5035E+00  0.5691E+00  0.4115E+01  0.4124E+01
     10.071  0.5382E+00  0.5020E+00  0.4150E+01  0.4157E+01
     10.135  0.7629E+00  0.7648E+00  0.4199E+01  0.4206E+01
     10.200  0.5349E+00  0.5799E+00  0.4234E+01  0.4243E+01
     10.265  0.6739E+00  0.6516E+00  0.4277E+01  0.4286E+01
     10.329  0.8290E+00  0.9214E+00  0.4331E+01  0.4345E+01
     10.394  0.1175E+01  0.1158E+01  0.4407E+01  0.4420E+01
     10.459  0.7330E+00  0.7179E+00  0.4454E+01  0.4466E+01
     10.523  0.1874E+01  0.2163E+01  0.4575E+01  0.4606E+01
     10.588  0.2051E+01  0.1875E+01  0.4708E+01  0.4727E+01
     10.652  0.1546E+01  0.1533E+01  0.4808E+01  0.4826E+01
     10.717  0.1671E+01  0.1657E+01  0.4916E+01  0.4933E+01
     10.782  0.9082E+00  0.7640E+00  0.4974E+01  0.4983E+01
     10.846  0.6838E+00  0.6635E+00  0.5018E+01  0.5026E+01
     10.911  0.5567E+00  0.5224E+00  0.5054E+01  0.5059E+01
     10.976  0.2691E+00  0.2684E+00  0.5072E+01  0.5077E+01
     11.040  0.2960E+00  0.2286E+00  0.5091E+01  0.5092E+01
     11.105 -0.1078E-03 -0.1172E-01  0.5091E+01  0.5091E+01
     11.169 -0.7358E-02 -0.7791E-02  0.5090E+01  0.5090E+01
     11.234  0.5586E-01  0.1182E+00  0.5094E+01  0.5098E+01
     11.299  0.3367E+00  0.4117E+00  0.5116E+01  0.5125E+01
     11.363  0.4264E+00  0.3122E+00  0.5143E+01  0.5145E+01
     11.428  0.9670E-01  0.1018E+00  0.5150E+01  0.5151E+01
     11.493  0.7984E-01  0.5848E-01  0.5155E+01  0.5155E+01
     11.557  0.1326E+00  0.2324E+00  0.5163E+01  0.5170E+01
     11.622  0.3939E+00  0.3711E+00  0.5189E+01  0.5194E+01
     11.686  0.3920E+00  0.5517E+00  0.5214E+01  0.5230E+01
     11.751  0.7794E+00  0.6391E+00  0.5265E+01  0.5271E+01
     11.816  0.3296E+00  0.4051E+00  0.5286E+01  0.5297E+01
     11.880  0.8609E+00  0.9226E+00  0.5341E+01  0.5357E+01
     11.945  0.4962E+00  0.2744E+00  0.5374E+01  0.5375E+01
     12.010  0.2270E-01  0.2661E-01  0.5375E+01  0.5376E+01
     12.074  0.1231E+00  0.1350E+00  0.5383E+01  0.5385E+01
     12.139  0.6273E-01  0.5934E-01  0.5387E+01  0.5389E+01
     12.203  0.1464E+00  0.1525E+00  0.5396E+01  0.5399E+01
     12.268  0.1686E+00  0.1883E+00  0.5407E+01  0.5411E+01
     12.333  0.1680E+00  0.1518E+00  0.5418E+01  0.5421E+01
     12.397  0.1358E+00  0.1280E+00  0.5427E+01  0.5429E+01
     12.462  0.5067E-01  0.2375E-01  0.5430E+01  0.5431E+01
     12.526  0.5939E-01  0.7709E-01  0.5434E+01  0.5435E+01
     12.591  0.3167E-01  0.7096E-02  0.5436E+01  0.5436E+01
     12.656  0.5538E-02  0.2918E-01  0.5436E+01  0.5438E+01
     12.720  0.7955E-01  0.6550E-01  0.5442E+01  0.5442E+01
     12.785  0.3659E-02 -0.5130E-02  0.5442E+01  0.5442E+01
     12.850  0.9249E-02  0.3263E-01  0.5442E+01  0.5444E+01
     12.914  0.7872E-01  0.7211E-01  0.5448E+01  0.5449E+01
     12.979  0.6916E-01  0.1055E+00  0.5452E+01  0.5455E+01
     13.043  0.3226E+00  0.4994E+00  0.5473E+01  0.5488E+01
     13.108  0.8681E+00  0.7468E+00  0.5529E+01  0.5536E+01
     13.173  0.3471E+00  0.3978E+00  0.5551E+01  0.5562E+01
     13.237  0.5029E+00  0.4307E+00  0.5584E+01  0.5589E+01
     13.302  0.2392E+00  0.1952E+00  0.5599E+01  0.5602E+01
     13.367  0.2857E+00  0.3803E+00  0.5618E+01  0.5627E+01
     13.431  0.4758E+00  0.4378E+00  0.5649E+01  0.5655E+01
     13.496  0.2041E+00  0.1061E+00  0.5662E+01  0.5662E+01
     13.560  0.9405E-02  0.5291E-01  0.5662E+01  0.5665E+01
     13.625  0.2518E+00  0.3181E+00  0.5679E+01  0.5686E+01
     13.690  0.2885E+00  0.2105E+00  0.5697E+01  0.5699E+01
     13.754  0.4075E-01  0.5057E-02  0.5700E+01  0.5700E+01
     13.819 -0.7909E-03  0.2643E-01  0.5700E+01  0.5701E+01
     13.884  0.1414E+00  0.1941E+00  0.5709E+01  0.5714E+01
     13.948  0.2233E+00  0.1584E+00  0.5723E+01  0.5724E+01
     14.013  0.2591E-01  0.4519E-01  0.5725E+01  0.5727E+01
     14.077  0.1568E+00  0.1436E+00  0.5735E+01  0.5736E+01
     14.142  0.2244E-01  0.1985E-01  0.5737E+01  0.5738E+01
     14.207  0.1095E+00  0.1634E+00  0.5744E+01  0.5748E+01
     14.271  0.2543E+00  0.2388E+00  0.5760E+01  0.5764E+01
     14.336  0.1559E+00  0.1422E+00  0.5770E+01  0.5773E+01
     14.401  0.1704E+00  0.1809E+00  0.5781E+01  0.5784E+01
     14.465  0.1894E+00  0.1825E+00  0.5794E+01  0.5796E+01
     14.530  0.2607E+00  0.3143E+00  0.5810E+01  0.5817E+01
     14.594  0.2638E+00  0.2009E+00  0.5827E+01  0.5830E+01
     14.659  0.1454E+00  0.1584E+00  0.5837E+01  0.5840E+01
     14.724  0.1961E+00  0.2122E+00  0.5849E+01  0.5854E+01
     14.788  0.1929E+00  0.2043E+00  0.5862E+01  0.5867E+01
     14.853  0.4288E+00  0.5118E+00  0.5890E+01  0.5900E+01
     14.918  0.3789E+00  0.2497E+00  0.5914E+01  0.5916E+01
     14.982  0.2448E-01 -0.9120E-02  0.5916E+01  0.5915E+01
     15.047  0.9104E-01  0.1984E+00  0.5922E+01  0.5928E+01
     15.111  0.3885E+00  0.4082E+00  0.5947E+01  0.5955E+01
     15.176  0.4364E+00  0.4154E+00  0.5975E+01  0.5981E+01
     15.241  0.1880E+00  0.8462E-01  0.5987E+01  0.5987E+01
     15.305 -0.1127E-01 -0.9173E-02  0.5986E+01  0.5986E+01
     15.370 -0.1408E-02  0.1063E-01  0.5986E+01  0.5987E+01
     15.435  0.7001E-01  0.7595E-01  0.5991E+01  0.5992E+01
     15.499  0.6830E-01  0.8619E-01  0.5995E+01  0.5997E+01
     15.564  0.7764E-01  0.4305E-01  0.6000E+01  0.6000E+01
     15.628 -0.2830E-02 -0.3094E-02  0.6000E+01  0.6000E+01
     15.693 -0.2610E-03 -0.5318E-04  0.6000E+01  0.6000E+01
     15.758 -0.2872E-06 -0.2214E-07  0.6000E+01  0.6000E+01
     15.822 -0.1041E-10 -0.3106E-12  0.6000E+01  0.6000E+01
     15.887 -0.1342E-16  0.0000E+00  0.6000E+01  0.6000E+01
     15.951  0.0000E+00  0.0000E+00  0.6000E+01  0.6000E+01
     16.016  0.0000E+00  0.0000E+00  0.6000E+01  0.6000E+01
     16.081  0.0000E+00  0.0000E+00  0.6000E+01  0.6000E+01
     16.145  0.0000E+00  0.0000E+00  0.6000E+01  0.6000E+01
     16.210  0.0000E+00  0.0000E+00  0.6000E+01  0.6000E+01
     16.275  0.0000E+00  0.0000E+00  0.6000E+01  0.6000E+01
     16.339  0.0000E+00  0.0000E+00  0.6000E+01  0.6000E+01
     16.404  0.0000E+00  0.0000E+00  0.6000E+01  0.6000E+01
     16.40384185     -2.98289735  301      5.72117995      1.00000000
     -2.983  0.0000E+00  0.0000E+00  0.0000E+00  0.0000E+00  0.0000E+00  0.0000E+00  0.0000E+00  0.0000E+00  0.0000E+00  0.0000E+00  0.0000E+00  0.0000E+00  0.0000E+00  0.0000E+00  0.0000E+00  0.0000E+00  0.0000E+00  0.0000E+00
     -2.918  0.0000E+00  0.0000E+00  0.0000E+00  0.0000E+00  0.0000E+00  0.0000E+00  0.0000E+00  0.0000E+00  0.0000E+00  0.0000E+00  0.0000E+00  0.0000E+00  0.0000E+00  0.0000E+00  0.0000E+00  0.0000E+00  0.0000E+00  0.0000E+00
     -2.854  0.0000E+00  0.0000E+00  0.0000E+00  0.0000E+00  0.0000E+00  0.0000E+00  0.0000E+00  0.0000E+00  0.0000E+00  0.0000E+00  0.0000E+00  0.0000E+00  0.0000E+00  0.0000E+00  0.0000E+00  0.0000E+00  0.0000E+00  0.0000E+00
     -2.789  0.0000E+00  0.0000E+00  0.0000E+00  0.0000E+00  0.0000E+00  0.0000E+00  0.0000E+00  0.0000E+00  0.0000E+00  0.0000E+00  0.0000E+00  0.0000E+00  0.0000E+00  0.0000E+00  0.0000E+00  0.0000E+00  0.0000E+00  0.0000E+00
     -2.724  0.0000E+00  0.0000E+00  0.0000E+00  0.0000E+00  0.0000E+00  0.0000E+00  0.0000E+00  0.0000E+00  0.0000E+00  0.0000E+00  0.0000E+00  0.0000E+00  0.0000E+00  0.0000E+00  0.0000E+00  0.0000E+00  0.0000E+00  0.0000E+00
     -2.660  0.0000E+00  0.0000E+00  0.0000E+00  0.0000E+00  0.0000E+00  0.0000E+00  0.0000E+00  0.0000E+00  0.0000E+00  0.0000E+00  0.0000E+00  0.0000E+00  0.0000E+00  0.0000E+00  0.0000E+00  0.0000E+00  0.0000E+00  0.0000E+00
     -2.595  0.0000E+00  0.0000E+00  0.0000E+00  0.0000E+00  0.0000E+00  0.0000E+00  0.0000E+00  0.0000E+00  0.0000E+00  0.0000E+00  0.0000E+00  0.0000E+00  0.0000E+00  0.0000E+00  0.0000E+00  0.0000E+00  0.0000E+00  0.0000E+00
     -2.531 -0.2286E-35 -0.5233E-33 -0.2964E-38 -0.6783E-36 -0.8892E-38 -0.2035E-35 -0.5928E-38 -0.1357E-35 -0.1594E-40 -0.3642E-38 -0.2391E-40 -0.5462E-38 -0.5977E-41 -0.1366E-38 -0.4782E-40 -0.1093E-37 -0.1992E-41 -0.4552E-39
     -2.466 -0.3512E-26 -0.3558E-24 -0.4555E-29 -0.4611E-27 -0.1366E-28 -0.1383E-26 -0.9110E-29 -0.9223E-27 -0.2449E-31 -0.2476E-29 -0.3674E-31 -0.3713E-29 -0.9185E-32 -0.9283E-30 -0.7348E-31 -0.7427E-29 -0.3062E-32 -0.3095E-30
     -2.401 -0.1856E-18 -0.8294E-17 -0.2407E-21 -0.1075E-19 -0.7220E-21 -0.3225E-19 -0.4813E-21 -0.2150E-19 -0.1294E-23 -0.5772E-22 -0.1941E-23 -0.8657E-22 -0.4853E-24 -0.2164E-22 -0.3882E-23 -0.1732E-21 -0.1618E-24 -0.7215E-23
     -2.337 -0.3196E-12 -0.6238E-11 -0.4144E-15 -0.8086E-14 -0.1243E-14 -0.2426E-13 -0.8289E-15 -0.1617E-13 -0.2228E-17 -0.4341E-16 -0.3343E-17 -0.6511E-16 -0.8357E-18 -0.1628E-16 -0.6685E-17 -0.1302E-15 -0.2786E-18 -0.5427E-17
     -2.272 -0.1832E-07 -0.1542E-06 -0.2376E-10 -0.1999E-09 -0.7128E-10 -0.5997E-09 -0.4752E-10 -0.3998E-09 -0.1278E-12 -0.1073E-11 -0.1916E-12 -0.1610E-11 -0.4791E-13 -0.4024E-12 -0.3833E-12 -0.3219E-11 -0.1597E-13 -0.1341E-12
     -2.207 -0.3058E-04 -0.1043E-03 -0.3965E-07 -0.1352E-06 -0.1190E-06 -0.4057E-06 -0.7930E-07 -0.2705E-06 -0.2132E-09 -0.7260E-09 -0.3198E-09 -0.1089E-08 -0.7995E-10 -0.2722E-09 -0.6396E-09 -0.2178E-08 -0.2665E-10 -0.9075E-10
     -2.143 -0.6261E-03  0.1898E-03 -0.8119E-06  0.2460E-06 -0.2436E-05  0.7381E-06 -0.1624E-05  0.4920E-06 -0.4366E-08  0.1321E-08 -0.6549E-08  0.1981E-08 -0.1637E-08  0.4951E-09 -0.1310E-07  0.3962E-08 -0.5457E-09  0.1651E-09
     -2.078  0.1282E-01  0.1636E-01  0.1662E-04  0.2119E-04  0.4985E-04  0.6356E-04  0.3324E-04  0.4241E-04  0.8932E-07  0.1136E-06  0.1338E-06  0.1693E-06  0.3337E-07  0.4184E-07  0.2680E-06  0.3409E-06  0.1117E-07  0.1420E-07
     -2.014  0.7414E-02  0.2547E-02  0.8575E-05  0.1045E-05  0.2572E-04  0.3134E-05  0.1924E-04  0.6623E-05  0.3811E-07 -0.1186E-07 -0.1254E-07 -0.1694E-06 -0.3218E-07 -0.1055E-06  0.1143E-06 -0.3557E-07  0.4763E-08 -0.1482E-08
     -1.949  0.1599E-02  0.6862E-02  0.1035E-04  0.3626E-04  0.3106E-04  0.1088E-03  0.4072E-05  0.1754E-04  0.1194E-06  0.4064E-06  0.7343E-06  0.2449E-05  0.4149E-06  0.1378E-05  0.3582E-06  0.1220E-05  0.1492E-07  0.5080E-07
     -1.884  0.2224E-01  0.1926E-01  0.1135E-03  0.9732E-04  0.3420E-03  0.2976E-03  0.5595E-04  0.4546E-04  0.1228E-05  0.9450E-06  0.7609E-05  0.6633E-05  0.4263E-05  0.3663E-05  0.3798E-05  0.3290E-05  0.1535E-06  0.1181E-06
     -1.820 -0.1063E-02 -0.2474E-02 -0.2136E-04 -0.2501E-04  0.1188E-04 -0.1607E-04 -0.5361E-04 -0.4582E-04 -0.2118E-05 -0.1738E-05  0.2459E-06 -0.3720E-06 -0.7767E-06 -0.9224E-06 -0.2351E-06 -0.4634E-06 -0.2647E-06 -0.2173E-06
     -1.755  0.3667E-01  0.5569E-01  0.4243E-03  0.6423E-03  0.1437E-03  0.2211E-03  0.8503E-03  0.1285E-02  0.3267E-04  0.4939E-04  0.3473E-05  0.5326E-05  0.1555E-04  0.2363E-04  0.7058E-05  0.1069E-04  0.4084E-05  0.6173E-05
     -1.690  0.4350E-01  0.2349E-01  0.5017E-03  0.2708E-03  0.1735E-03  0.9364E-04  0.1003E-02  0.5415E-03  0.3854E-04  0.2081E-04  0.4184E-05  0.2255E-05  0.1839E-04  0.9962E-05  0.8367E-05  0.4509E-05  0.4817E-05  0.2601E-05
     -1.626 -0.2589E-02 -0.1881E-02 -0.2985E-04 -0.2168E-04 -0.1032E-04 -0.7505E-05 -0.5970E-04 -0.4335E-04 -0.2293E-05 -0.1666E-05 -0.2490E-06 -0.1811E-06 -0.1094E-05 -0.7975E-06 -0.4980E-06 -0.3618E-06 -0.2867E-06 -0.2083E-06
     -1.561 -0.1537E-03 -0.3119E-03 -0.1756E-05 -0.3532E-05 -0.2980E-05 -0.1010E-04 -0.3523E-05 -0.7109E-05 -0.1439E-06 -0.3039E-06 -0.1608E-06 -0.5734E-06 -0.6395E-07 -0.1275E-06 -0.2476E-06 -0.8718E-06 -0.2816E-07 -0.7572E-07
     -1.497 -0.3081E-02 -0.1548E-02 -0.3501E-04 -0.1776E-04 -0.1050E-03 -0.5328E-04 -0.7044E-04 -0.3568E-04 -0.2920E-05 -0.1340E-05 -0.5684E-05 -0.2515E-05 -0.1209E-05 -0.5468E-06 -0.8759E-05 -0.4019E-05 -0.7243E-06 -0.3062E-06
     -1.432  0.4984E-01  0.7115E-01  0.5655E-03  0.8073E-03  0.1697E-02  0.2424E-02  0.1138E-02  0.1626E-02  0.4779E-04  0.6757E-04  0.9349E-04  0.1320E-03  0.1982E-04  0.2803E-04  0.1434E-03  0.2029E-03  0.1197E-04  0.1683E-04
     -1.367  0.4721E-01  0.2262E-01  0.5093E-03  0.1979E-03  0.1631E-02  0.8078E-03  0.1082E-02  0.5188E-03  0.4095E-04  0.1522E-04  0.8293E-04  0.3770E-04  0.1741E-04  0.7373E-05  0.1322E-03  0.6522E-04  0.1010E-04  0.4031E-05
     -1.303  0.4463E-02  0.2043E-01  0.3030E-03  0.9872E-03  0.1675E-04  0.2910E-03  0.1051E-03  0.4761E-03  0.2558E-04  0.8331E-04  0.1309E-04  0.5218E-04  0.5859E-05  0.2038E-04 -0.4593E-05  0.6238E-05  0.4367E-05  0.1477E-04
     -1.238  0.6289E-01  0.5295E-01  0.2836E-02  0.2392E-02  0.1012E-02  0.8585E-03  0.1454E-02  0.1203E-02  0.2374E-03  0.1972E-03  0.1568E-03  0.1331E-03  0.5810E-04  0.4707E-04  0.3310E-04  0.2782E-04  0.4244E-04  0.3559E-04
     -1.173  0.2176E-02  0.4188E-02  0.1098E-03  0.1038E-03  0.4495E-04 -0.4159E-05  0.1802E-04  0.3302E-03  0.4277E-05  0.4421E-04  0.7265E-05 -0.2888E-05 -0.1054E-05  0.2609E-04  0.1127E-05  0.2381E-05  0.1145E-05  0.5152E-05
     -1.109  0.5681E-01  0.6251E-01  0.1751E-02  0.1932E-02  0.2324E-03  0.2608E-03  0.3540E-02  0.3876E-02  0.4850E-03  0.5317E-03  0.1459E-04  0.1697E-04  0.2635E-03  0.2892E-03  0.3165E-04  0.3474E-04  0.6052E-04  0.6642E-04
     -1.044  0.1653E-01  0.4046E-02  0.5118E-03  0.1252E-03  0.6953E-04  0.1701E-04  0.1024E-02  0.2504E-03  0.1404E-03  0.3436E-04  0.4600E-05  0.1124E-05  0.7609E-04  0.1868E-04  0.9205E-05  0.2248E-05  0.1755E-04  0.4295E-05
     -0.980 -0.1451E-02 -0.6676E-03 -0.4503E-04 -0.2118E-04 -0.6532E-05 -0.5004E-05 -0.8956E-04 -0.3983E-04 -0.1228E-04 -0.5460E-05 -0.4994E-06 -0.6704E-06 -0.6647E-05 -0.2919E-05 -0.8553E-06 -0.6152E-06 -0.1535E-05 -0.6826E-06
     -0.915 -0.1791E-02 -0.3362E-02 -0.7415E-04 -0.1358E-03 -0.9446E-04 -0.1723E-03 -0.5891E-04 -0.1216E-03 -0.7480E-05 -0.1511E-04 -0.1829E-04 -0.3172E-04 -0.1518E-05 -0.2900E-05 -0.1092E-04 -0.2028E-04 -0.9350E-06 -0.1889E-05
     -0.850  0.1664E-01  0.4403E-01  0.7214E-03  0.1818E-02  0.9327E-03  0.2320E-02  0.4398E-03  0.1463E-02  0.5869E-04  0.1850E-03  0.1963E-03  0.4469E-03  0.1294E-04  0.3685E-04  0.1046E-03  0.2689E-03  0.7320E-05  0.2304E-04
     -0.786  0.1154E+00  0.9848E-01  0.4424E-02  0.3703E-02  0.5485E-02  0.4521E-02  0.5032E-02  0.4568E-02  0.6051E-03  0.5445E-03  0.8765E-03  0.6767E-03  0.1068E-03  0.9463E-04  0.6601E-03  0.5419E-03  0.7173E-04  0.6074E-04
     -0.721  0.1960E-01  0.2512E-01  0.4812E-03  0.4300E-03  0.9469E-03  0.1438E-02  0.1226E-02  0.1581E-02  0.1300E-03  0.1563E-03  0.9476E-04  0.1622E-03  0.1308E-04  0.7409E-05  0.2395E-03  0.4668E-03  0.5616E-04  0.1182E-03
     -0.656  0.5644E-01  0.4400E-01  0.1040E-02  0.7601E-03  0.3299E-02  0.2604E-02  0.3354E-02  0.2608E-02  0.3259E-03  0.2373E-03  0.4033E-03  0.3166E-03  0.1319E-04  0.2423E-05  0.1026E-02  0.8101E-03  0.2544E-03  0.2012E-03
     -0.592 -0.1098E-02  0.8391E-02 -0.1283E-03  0.7744E-03  0.1193E-04  0.5392E-04 -0.6854E-04  0.5171E-03 -0.3754E-04  0.2274E-03 -0.3788E-05  0.3662E-04 -0.1544E-04  0.8933E-04  0.1053E-04 -0.2261E-04  0.3094E-05 -0.8391E-05
     -0.527  0.1071E+00  0.1183E+00  0.8279E-02  0.9123E-02  0.1817E-02  0.2019E-02  0.6550E-02  0.7231E-02  0.2435E-02  0.2685E-02  0.5276E-03  0.5834E-03  0.9097E-03  0.1006E-02  0.1626E-03  0.1837E-03  0.1171E-04  0.1432E-04
     -0.463  0.3233E-01  0.8301E-02  0.2494E-02  0.6402E-03  0.5533E-03  0.1422E-03  0.1977E-02  0.5066E-03  0.7333E-03  0.1880E-03  0.1596E-03  0.4103E-04  0.2737E-03  0.7029E-04  0.5093E-04  0.1303E-04  0.4001E-05  0.9451E-06
     -0.398 -0.3664E-02 -0.2968E-02 -0.2639E-03 -0.1915E-03 -0.5182E-04 -0.2907E-04 -0.2679E-03 -0.2689E-03 -0.1018E-03 -0.1047E-03 -0.1427E-04 -0.7015E-05 -0.4239E-04 -0.4799E-04 -0.5363E-05 -0.3851E-05 -0.5156E-05 -0.9765E-05
     -0.333  0.8074E-02  0.2225E-01  0.4508E-03  0.1242E-02  0.3131E-04  0.8638E-04  0.9032E-03  0.2485E-02  0.3592E-03  0.9889E-03  0.3944E-05  0.1101E-04  0.1750E-03  0.4833E-03  0.8033E-05  0.2204E-04  0.4494E-04  0.1236E-03
     -0.269  0.5617E-01  0.4766E-01  0.3135E-02  0.2627E-02  0.2368E-03  0.3380E-03  0.6270E-02  0.5258E-02  0.2489E-02  0.2058E-02  0.2914E-04  0.3454E-04  0.1212E-02  0.1004E-02  0.5871E-04  0.7098E-04  0.3111E-03  0.2572E-03
     -0.204  0.1350E-01  0.1036E-01  0.4690E-03  0.2491E-03  0.1215E-02  0.1284E-02  0.1039E-02  0.6639E-03  0.1353E-03 -0.3689E-04  0.7668E-04  0.7036E-04  0.5532E-04 -0.2271E-04  0.1992E-03  0.2102E-03  0.1810E-04 -0.1999E-05
     -0.140  0.1756E-01  0.3177E-01  0.8787E-03  0.1917E-02  0.1948E-02  0.3133E-02  0.7255E-03  0.1431E-02  0.1311E-03  0.3765E-03  0.3536E-03  0.6882E-03  0.1371E-03  0.2322E-03  0.2062E-03  0.2975E-03  0.7670E-05  0.1677E-04
     -0.075  0.6382E-01  0.5978E-01  0.4614E-02  0.4350E-02  0.5151E-02  0.4670E-02  0.3598E-02  0.3511E-02  0.1049E-02  0.1014E-02  0.1346E-02  0.1307E-02  0.2451E-03  0.1595E-03  0.4493E-03  0.5777E-03  0.2878E-04  0.3055E-04
     -0.010  0.1226E+00  0.1525E+00  0.7373E-02  0.9031E-02  0.9347E-02  0.1131E-01  0.8653E-02  0.1125E-01  0.2492E-02  0.3307E-02  0.2891E-02  0.3430E-02  0.3579E-03  0.5602E-03  0.3236E-02  0.3974E-02  0.2388E-03  0.3381E-03
      0.054  0.8127E-01  0.3711E-01  0.4801E-02  0.2208E-02  0.5300E-02  0.2194E-02  0.6965E-02  0.3450E-02  0.2187E-02  0.1122E-02  0.1439E-02  0.5463E-03  0.5022E-03  0.2919E-03  0.1756E-02  0.6680E-03  0.2375E-03  0.1113E-03
      0.119 -0.5398E-02  0.3767E-02 -0.3359E-03 -0.4823E-04 -0.3687E-03  0.3964E-03 -0.4258E-03  0.4246E-03 -0.1340E-03  0.7330E-04 -0.1096E-03  0.6818E-04 -0.2913E-04 -0.2840E-04 -0.1152E-03  0.4829E-03 -0.1009E-04  0.1852E-03
      0.184  0.4890E-01  0.5379E-01  0.1140E-02  0.1628E-02  0.4151E-02  0.4416E-02  0.4895E-02  0.5245E-02  0.1150E-02  0.1305E-02  0.8722E-03  0.1020E-02 -0.3222E-04  0.5814E-05  0.3724E-02  0.3860E-02  0.1319E-02  0.1391E-02
      0.248  0.5049E-01  0.5449E-01  0.5901E-02  0.7367E-02  0.2432E-02  0.2085E-02  0.3368E-02  0.3434E-02  0.1730E-02  0.2268E-02  0.1616E-02  0.1793E-02  0.5010E-03  0.7803E-03  0.8913E-03  0.2479E-03  0.5727E-03  0.4013E-03