    1    1    1    1
  0.1813235E+02  0.2866544E-09  0.2866544E-09  0.2866544E-09  0.5000000E-15
  1.000000000000000E-004
  CAR 
 unknown system                          
    5  140    6
 
  0.3125000E-01  0.3125000E-01  0.3125000E-01  0.1953125E-02
   1       -1.926456
   2        6.307527
   3        6.307527
   4        6.740174
   5        9.555690
   6        9.555690
 
  0.9375000E-01  0.3125000E-01  0.3125000E-01  0.5859375E-02
   1       -1.442381
   2        5.989629
   3        6.130677
   4        7.280476
   5        9.218625
   6        9.619604
 
  0.1562500E+00  0.3125000E-01  0.3125000E-01  0.5859375E-02
   1       -0.705417
   2        5.567221
   3        5.824783
   4        8.108497
   5        9.045496
   6        9.719983
 
  0.2187500E+00  0.3125000E-01  0.3125000E-01  0.5859375E-02
   1        0.153453
   2        5.128022
   3        5.508046
   4        9.079440
   5        9.262560
   6        9.867112
 
  0.2812500E+00  0.3125000E-01  0.3125000E-01  0.5859375E-02
   1        0.905256
   2        4.734989
   3        5.481569
   4        9.367088
   5       10.067319
   6       10.516676
 
  0.3437500E+00  0.3125000E-01  0.3125000E-01  0.5859375E-02
   1        1.320984
   2        4.429828
   3        5.963048
   4        9.593573
   5       10.298590
   6       11.885868
 
  0.4062500E+00  0.3125000E-01  0.3125000E-01  0.5859375E-02
   1        1.439300
   2        4.237550
   3        6.733010
   4        9.647799
   5       10.498273
   6       13.070362
 
  0.4687500E+00  0.3125000E-01  0.3125000E-01  0.2929688E-02
   1        1.451846
   2        4.172058
   3        7.147353
   4        9.596461
   5       10.579975
   6       13.583051
 
 -0.3125000E-01  0.3125000E-01  0.3125000E-01  0.1464844E-02
   1       -2.094165
   2        6.428650
   3        6.428651
   4        6.483258
   5        9.532348
   6        9.730828
 
  0.9375000E-01  0.9375000E-01  0.3125000E-01  0.5859375E-02
   1       -0.838923
   2        5.679835
   3        5.748056
   4        8.055065
   5        9.079639
   6        9.692063
 
  0.1562500E+00  0.9375000E-01  0.3125000E-01  0.1171875E-01
   1       -0.029935
   2        5.260568
   3        5.386820
   4        8.988302
   5        9.115345
   6        9.900628
 
  0.2187500E+00  0.9375000E-01  0.3125000E-01  0.1171875E-01
   1        0.821857
   2        4.851668
   3        5.171507
   4        9.155250
   5       10.114585
   6       10.341887
 
  0.2812500E+00  0.9375000E-01  0.3125000E-01  0.1171875E-01
   1        1.450169
   2        4.525734
   3        5.354066
   4        9.416562
   5       10.311068
   6       11.705064
 
  0.3437500E+00  0.9375000E-01  0.3125000E-01  0.1171875E-01
   1        1.704264
   2        4.300546
   3        5.997565
   4        9.616186
   5       10.489582
   6       13.005587
 
  0.4062500E+00  0.9375000E-01  0.3125000E-01  0.1171875E-01
   1        1.747426
   2        4.185330
   3        6.641964
   4        9.626871
   5       10.642196
   6       13.893147
 
 -0.9375000E-01  0.9375000E-01  0.3125000E-01  0.5859375E-02
   1       -1.760630
   2        6.228454
   3        6.357612
   4        6.803710
   5        9.156549
   6        9.796572
 
  0.1562500E+00  0.1562500E+00  0.3125000E-01  0.5859375E-02
   1        0.804836
   2        4.913045
   3        5.026702
   4        9.023206
   5       10.182291
   6       10.302577
 
  0.2187500E+00  0.1562500E+00  0.3125000E-01  0.1171875E-01
   1        1.610083
   2        4.575476
   3        4.927455
   4        9.194466
   5       10.389454
   6       11.675750
 
  0.2812500E+00  0.1562500E+00  0.3125000E-01  0.1171875E-01
   1        2.098587
   2        4.364743
   3        5.231868
   4        9.457469
   5       10.503738
   6       13.073381
 
  0.3437500E+00  0.1562500E+00  0.3125000E-01  0.1171875E-01
   1        2.231694
   2        4.245728
   3        5.835554
   4        9.620008
   5       10.627017
   6       14.248718
 
  0.4062500E+00  0.1562500E+00  0.3125000E-01  0.5859375E-02
   1        2.241727
   2        4.206159
   3        6.155580
   4        9.625709
   5       10.734522
   6       14.757001
 
 -0.1562500E+00  0.1562500E+00  0.3125000E-01  0.5859375E-02
   1       -1.135253
   2        5.860240
   3        6.135545
   4        7.464433
   5        8.833660
   6        9.856227
 
 -0.9375000E-01  0.1562500E+00  0.3125000E-01  0.5859375E-02
   1       -1.282046
   2        6.064568
   3        6.167032
   4        7.250480
   5        8.690141
   6        9.968324
 
  0.2187500E+00  0.2187500E+00  0.3125000E-01  0.5859375E-02
   1        2.329341
   2        4.352193
   3        4.907787
   4        9.369714
   5       10.508282
   6       13.123080
 
  0.2812500E+00  0.2187500E+00  0.3125000E-01  0.1171875E-01
   1        2.714292
   2        4.283204
   3        5.162877
   4        9.626871
   5       10.527529
   6       14.523532
 
  0.3437500E+00  0.2187500E+00  0.3125000E-01  0.1171875E-01
   1        2.799778
   2        4.282209
   3        5.496481
   4        9.765732
   5       10.628752
   6       15.136049
 
 -0.2187500E+00  0.2187500E+00  0.3125000E-01  0.5859375E-02
   1       -0.314693
   2        5.424074
   3        5.774029
   4        8.422016
   5        8.802496
   6        9.955599
 
 -0.1562500E+00  0.2187500E+00  0.3125000E-01  0.1171875E-01
   1       -0.553017
   2        5.695833
   3        5.854872
   4        8.057812
   5        8.442730
   6       10.127439
 
  0.2812500E+00  0.2812500E+00  0.3125000E-01  0.5859375E-02
   1        3.092609
   2        4.376074
   3        5.094076
   4        9.917809
   5       10.478939
   6       14.892673
 
  0.3437500E+00  0.2812500E+00  0.3125000E-01  0.5859375E-02
   1        3.190680
   2        4.502649
   3        5.028281
   4       10.087441
   5       10.470140
   6       14.299640
 
 -0.2812500E+00  0.2812500E+00  0.3125000E-01  0.5859375E-02
   1        0.519733
   2        4.997936
   3        5.532266
   4        9.024057
   5        9.627079
   6       10.102198
 
 -0.2187500E+00  0.2812500E+00  0.3125000E-01  0.1171875E-01
   1        0.299478
   2        5.260874
   3        5.510264
   4        8.525782
   5        9.159151
   6       10.281076
 
 -0.1562500E+00  0.2812500E+00  0.3125000E-01  0.5859375E-02
   1        0.229193
   2        5.373417
   3        5.499555
   4        8.290602
   5        9.024701
   6       10.366615
 
 -0.3437500E+00  0.3437500E+00  0.3125000E-01  0.5859375E-02
   1        1.112984
   2        4.637697
   3        5.721814
   4        9.334113
   5       10.277977
   6       10.991895
 
 -0.2812500E+00  0.3437500E+00  0.3125000E-01  0.1171875E-01
   1        1.053033
   2        4.873254
   3        5.399757
   4        8.846491
   5       10.374202
   6       10.498711
 
 -0.2187500E+00  0.3437500E+00  0.3125000E-01  0.1171875E-01
   1        1.063579
   2        4.929317
   3        5.300167
   4        8.441203
   5       10.206306
   6       10.569344
 
 -0.4062500E+00  0.4062500E+00  0.3125000E-01  0.5859375E-02
   1        1.354596
   2        4.380091
   3        6.366692
   4        9.521262
   5       10.482159
   6       12.337054
 
 -0.3437500E+00  0.4062500E+00  0.3125000E-01  0.1171875E-01
   1        1.474549
   2        4.580598
   3        5.747073
   4        9.188185
   5       10.539645
   6       11.853983
 
 -0.2812500E+00  0.4062500E+00  0.3125000E-01  0.1171875E-01
   1        1.703704
   2        4.652911
   3        5.293090
   4        8.786346
   5       10.529540
   6       11.701633
 
 -0.2187500E+00  0.4062500E+00  0.3125000E-01  0.5859375E-02
   1        1.833105
   2        4.539930
   3        5.246165
   4        8.598465
   5       10.505333
   6       11.692577
 
 -0.4687500E+00  0.4687500E+00  0.3125000E-01  0.5859375E-02
   1        1.400200
   2        4.246319
   3        7.017642
   4        9.474147
   5       10.673004
   6       13.280123
 
 -0.4062500E+00  0.4687500E+00  0.3125000E-01  0.1171875E-01
   1        1.592410
   2        4.396730
   3        6.369254
   4        9.274396
   5       10.796579
   6       13.059119
 
 -0.3437500E+00  0.4687500E+00  0.3125000E-01  0.1171875E-01
   1        1.975572
   2        4.512224
   3        5.632019
   4        9.065508
   5       10.675889
   6       13.069416
 
 -0.2812500E+00  0.4687500E+00  0.3125000E-01  0.1171875E-01
   1        2.373807
   2        4.361510
   3        5.287085
   4        8.928516
   5       10.482335
   6       13.169026
 
 -0.4687500E+00 -0.4687500E+00  0.3125000E-01  0.5859375E-02
   1        1.603619
   2        4.334050
   3        6.703594
   4        9.206430
   5       10.977702
   6       13.583865
 
 -0.4062500E+00 -0.4687500E+00  0.3125000E-01  0.1171875E-01
   1        2.021205
   2        4.439473
   3        6.037067
   4        9.067114
   5       10.997751
   6       14.043458
 
 -0.3437500E+00 -0.4687500E+00  0.3125000E-01  0.1171875E-01
   1        2.562478
   2        4.402322
   3        5.413996
   4        9.154144
   5       10.660930
   6       14.522582
 
 -0.2812500E+00 -0.4687500E+00  0.3125000E-01  0.5859375E-02
   1        2.901517
   2        4.221972
   3        5.212566
   4        9.286711
   5       10.404201
   6       14.721351
 
 -0.4062500E+00 -0.4062500E+00  0.3125000E-01  0.5859375E-02
   1        2.584569
   2        4.444012
   3        5.497056
   4        9.174691
   5       10.888637
   6       15.171957
 
 -0.3437500E+00 -0.4062500E+00  0.3125000E-01  0.1171875E-01
   1        3.124079
   2        4.351993
   3        5.020453
   4        9.581466
   5       10.506620
   6       15.078118
 
 -0.3437500E+00 -0.3437500E+00  0.3125000E-01  0.1953125E-02
   1        3.389442
   2        4.564417
   3        4.564417
   4       10.139311
   5       10.139311
   6       14.558977
 
  0.9375000E-01  0.9375000E-01  0.9375000E-01  0.1953125E-02
   1       -0.142486
   2        5.289208
   3        5.289208
   4        9.096246
   5        9.485552
   6        9.485552
 
  0.1562500E+00  0.9375000E-01  0.9375000E-01  0.5859375E-02
   1        0.716429
   2        4.874593
   3        4.946604
   4        9.465537
   5        9.839213
   6       10.341389
 
  0.2187500E+00  0.9375000E-01  0.9375000E-01  0.5859375E-02
   1        1.533477
   2        4.537345
   3        4.855938
   4        9.605161
   5       10.136402
   6       11.712902
 
  0.2812500E+00  0.9375000E-01  0.9375000E-01  0.5859375E-02
   1        2.006191
   2        4.291545
   3        5.277865
   4        9.786733
   5       10.382472
   6       13.071729
 
  0.3437500E+00  0.9375000E-01  0.9375000E-01  0.5859375E-02
   1        2.123869
   2        4.142710
   3        6.031024
   4        9.877290
   5       10.558767
   6       14.167044
 
  0.4062500E+00  0.9375000E-01  0.9375000E-01  0.2929688E-02
   1        2.129949
   2        4.092948
   3        6.429278
   4        9.873616
   5       10.624872
   6       14.621556
 
 -0.9375000E-01  0.9375000E-01  0.9375000E-01  0.1464844E-02
   1       -1.433379
   2        6.358120
   3        6.358121
   4        6.808466
   5        8.507545
   6       10.098846
 
  0.1562500E+00  0.1562500E+00  0.9375000E-01  0.5859375E-02
   1        1.592321
   2        4.567326
   3        4.615857
   4        9.650004
   5       10.094929
   6       11.736060
 
  0.2187500E+00  0.1562500E+00  0.9375000E-01  0.1171875E-01
   1        2.344163
   2        4.327771
   3        4.637449
   4        9.815398
   5       10.363038
   6       13.168806
 
  0.2812500E+00  0.1562500E+00  0.9375000E-01  0.1171875E-01
   1        2.650715
   2        4.177461
   3        5.195116
   4        9.980578
   5       10.538641
   6       14.449423
 
  0.3437500E+00  0.1562500E+00  0.9375000E-01  0.1171875E-01
   1        2.681145
   2        4.105244
   3        5.818152
   4       10.042847
   5       10.644824
   6       15.179018
 
 -0.1562500E+00  0.1562500E+00  0.9375000E-01  0.5859375E-02
   1       -0.819734
   2        6.116901
   3        6.227706
   4        7.360825
   5        7.958600
   6       10.314334
 
  0.2187500E+00  0.2187500E+00  0.9375000E-01  0.5859375E-02
   1        2.982665
   2        4.265635
   3        4.669023
   4       10.001059
   5       10.528733
   6       14.581608
 
  0.2812500E+00  0.2187500E+00  0.9375000E-01  0.1171875E-01
   1        3.184873
   2        4.255930
   3        5.104636
   4       10.174598
   5       10.598883
   6       14.832543
 
  0.3437500E+00  0.2187500E+00  0.9375000E-01  0.5859375E-02
   1        3.201074
   2        4.248876
   3        5.382669
   4       10.230394
   5       10.643366
   6       14.218306
 
 -0.2187500E+00  0.2187500E+00  0.9375000E-01  0.5859375E-02
   1       -0.012537
   2        5.717428
   3        5.820272
   4        7.885593
   5        8.303453
   6       10.471960
 
 -0.1562500E+00  0.2187500E+00  0.9375000E-01  0.5859375E-02
   1       -0.115626
   2        5.933547
   3        6.019575
   4        7.531695
   5        7.982811
   6       10.554303
 
  0.2812500E+00  0.2812500E+00  0.9375000E-01  0.5859375E-02
   1        3.397190
   2        4.553485
   3        4.964460
   4       10.388396
   5       10.567333
   6       13.838666
 
 -0.2812500E+00  0.2812500E+00  0.9375000E-01  0.5859375E-02
   1        0.817136
   2        5.312398
   3        5.415889
   4        8.204057
   5        9.508551
   6       10.574192
 
 -0.2187500E+00  0.2812500E+00  0.9375000E-01  0.1171875E-01
   1        0.713149
   2        5.391995
   3        5.751799
   4        7.649714
   5        9.018279
   6       10.685855
 
 -0.3437500E+00  0.3437500E+00  0.9375000E-01  0.5859375E-02
   1        1.419416
   2        4.966400
   3        5.383412
   4        8.647587
   5       10.663100
   6       10.880571
 
 -0.2812500E+00  0.3437500E+00  0.9375000E-01  0.1171875E-01
   1        1.465759
   2        4.979681
   3        5.473414
   4        8.080656
   5       10.232742
   6       10.802510
 
 -0.2187500E+00  0.3437500E+00  0.9375000E-01  0.5859375E-02
   1        1.502039
   2        4.843190
   3        5.710686
   4        7.783226
   5       10.025479
   6       10.850325
 
 -0.4062500E+00  0.4062500E+00  0.9375000E-01  0.5859375E-02
   1        1.663015
   2        4.717440
   3        5.784184
   4        8.867814
   5       10.951772
   6       12.239876
 
 -0.3437500E+00  0.4062500E+00  0.9375000E-01  0.1171875E-01
   1        1.903033
   2        4.873388
   3        5.359876
   4        8.475136
   5       10.761886
   6       11.836028
 
 -0.2812500E+00  0.4062500E+00  0.9375000E-01  0.1171875E-01
   1        2.158170
   2        4.480007
   3        5.590374
   4        8.188052
   5       10.410585
   6       11.820924
 
 -0.4687500E+00  0.4687500E+00  0.9375000E-01  0.5859375E-02
   1        1.702299
   2        4.588046
   3        6.242672
   4        8.761978
   5       11.404209
   6       13.200023
 
 -0.4062500E+00  0.4687500E+00  0.9375000E-01  0.1171875E-01
   1        2.017166
   2        4.828583
   3        5.586347
   4        8.492812
   5       11.315338
   6       13.077864
 
 -0.3437500E+00  0.4687500E+00  0.9375000E-01  0.1171875E-01
   1        2.471377
   2        4.503622
   3        5.424857
   4        8.494650
   5       10.700998
   6       13.252441
 
 -0.2812500E+00  0.4687500E+00  0.9375000E-01  0.5859375E-02
   1        2.771891
   2        4.129312
   3        5.495348
   4        8.596380
   5       10.330339
   6       13.342681
 
 -0.4687500E+00 -0.4687500E+00  0.9375000E-01  0.5859375E-02
   1        2.022111
   2        4.795243
   3        5.772120
   4        8.393662
   5       11.704504
   6       13.641872
 
 -0.4062500E+00 -0.4687500E+00  0.9375000E-01  0.1171875E-01
   1        2.517400
   2        4.758521
   3        5.248423
   4        8.496471
   5       11.281139
   6       14.389986
 
 -0.3437500E+00 -0.4687500E+00  0.9375000E-01  0.1171875E-01
   1        3.093088
   2        4.186315
   3        5.142319
   4        8.984457
   5       10.570856
   6       14.867771
 
 -0.4062500E+00 -0.4062500E+00  0.9375000E-01  0.5859375E-02
   1        3.132456
   2        4.575188
   3        4.705325
   4        9.074527
   5       10.882284
   6       15.495002
 
 -0.3437500E+00 -0.4062500E+00  0.9375000E-01  0.5859375E-02
   1        3.668138
   2        4.090156
   3        4.577522
   4        9.696170
   5       10.375323
   6       15.122429
 
  0.1562500E+00  0.1562500E+00  0.1562500E+00  0.1953125E-02
   1        2.504252
   2        4.328018
   3        4.328018
   4       10.126290
   5       10.126290
   6       13.230880
 
  0.2187500E+00  0.1562500E+00  0.1562500E+00  0.5859375E-02
   1        3.184515
   2        4.178346
   3        4.452985
   4       10.227598
   5       10.447820
   6       14.639250
 
  0.2812500E+00  0.1562500E+00  0.1562500E+00  0.5859375E-02
   1        3.290273
   2        4.098889
   3        5.136555
   4       10.309588
   5       10.630403
   6       14.828520
 
  0.3437500E+00  0.1562500E+00  0.1562500E+00  0.2929688E-02
   1        3.271604
   2        4.074134
   3        5.518211
   4       10.328250
   5       10.689470
   6       14.205540
 
 -0.1562500E+00  0.1562500E+00  0.1562500E+00  0.1464844E-02
   1       -0.229939
   2        6.377849
   3        6.377850
   4        7.014284
   5        7.442023
   6       10.633537
 
  0.2187500E+00  0.2187500E+00  0.1562500E+00  0.5859375E-02
   1        3.720105
   2        4.247857
   3        4.514963
   4       10.433254
   5       10.594710
   6       14.713248
 
  0.2812500E+00  0.2187500E+00  0.1562500E+00  0.1171875E-01
   1        3.744331
   2        4.265299
   3        4.997467
   4       10.521587
   5       10.686162
   6       13.633622
 
 -0.2187500E+00  0.2187500E+00  0.1562500E+00  0.5859375E-02
   1        0.544667
   2        5.880392
   3        6.228570
   4        6.937870
   5        8.170584
   6       10.785649
 
  0.2812500E+00  0.2812500E+00  0.1562500E+00  0.1953125E-02
   1        3.816534
   2        4.697892
   3        4.697892
   4       10.654871
   5       10.654871
   6       13.164516
 
 -0.2812500E+00  0.2812500E+00  0.1562500E+00  0.5859375E-02
   1        1.350370
   2        5.174474
   3        5.909002
   4        7.438322
   5        9.326009
   6       10.795584
 
 -0.2187500E+00  0.2812500E+00  0.1562500E+00  0.5859375E-02
   1        1.317690
   2        5.233480
   3        6.286000
   4        7.046651
   5        8.934403
   6       10.817935
 
 -0.3437500E+00  0.3437500E+00  0.1562500E+00  0.5859375E-02
   1        1.957948
   2        4.832591
   3        5.605082
   4        7.943530
   5       10.691697
   6       10.874788
 
 -0.2812500E+00  0.3437500E+00  0.1562500E+00  0.1171875E-01
   1        2.038226
   2        4.621685
   3        6.107854
   4        7.534970
   5       10.004952
   6       10.897461
 
 -0.4062500E+00  0.4062500E+00  0.1562500E+00  0.5859375E-02
   1        2.197642
   2        4.951159
   3        5.379150
   4        8.063455
   5       11.443010
   6       12.067584
 
 -0.3437500E+00  0.4062500E+00  0.1562500E+00  0.1171875E-01
   1        2.484402
   2        4.385138
   3        5.855212
   4        7.915713
   5       10.715458
   6       11.879024
 
 -0.2812500E+00  0.4062500E+00  0.1562500E+00  0.5859375E-02
   1        2.660527
   2        4.106493
   3        6.052066
   4        7.966434
   5       10.229703
   6       11.906095
 
 -0.4687500E+00  0.4687500E+00  0.1562500E+00  0.5859375E-02
   1        2.215926
   2        5.231242
   3        5.259952
   4        7.882246
   5       12.282690
   6       13.055069
 
 -0.4062500E+00  0.4687500E+00  0.1562500E+00  0.1171875E-01
   1        2.574509
   2        4.570917
   3        5.608708
   4        7.887577
   5       11.599868
   6       13.203652
 
 -0.3437500E+00  0.4687500E+00  0.1562500E+00  0.1171875E-01
   1        3.024004
   2        3.944718
   3        5.699247
   4        8.413722
   5       10.595141
   6       13.422717
 
 -0.4687500E+00 -0.4687500E+00  0.1562500E+00  0.5859375E-02
   1        2.558843
   2        4.761088
   3        5.464543
   4        7.798947
   5       12.176058
   6       13.906227
 
 -0.4062500E+00 -0.4687500E+00  0.1562500E+00  0.1171875E-01
   1        3.031518
   2        4.217162
   3        5.289315
   4        8.523159
   5       11.323597
   6       14.806119
 
 -0.3437500E+00 -0.4687500E+00  0.1562500E+00  0.5859375E-02
   1        3.546600
   2        3.672957
   3        5.176930
   4        9.231748
   5       10.596023
   6       15.043183
 
 -0.4062500E+00 -0.4062500E+00  0.1562500E+00  0.5859375E-02
   1        3.533023
   2        3.937196
   3        4.800233
   4        9.591790
   5       10.715647
   6       15.408069
 
  0.2187500E+00  0.2187500E+00  0.2187500E+00  0.1953125E-02
   1        4.259892
   2        4.259892
   3        4.544302
   4       10.665720
   5       10.665720
   6       13.431824
 
  0.2812500E+00  0.2187500E+00  0.2187500E+00  0.2929688E-02
   1        4.268163
   2        4.302940
   3        4.753886
   4       10.693390
   5       10.735837
   6       12.934890
 
 -0.2187500E+00  0.2187500E+00  0.2187500E+00  0.1464844E-02
   1        1.259164
   2        5.488959
   3        6.669027
   4        6.669028
   5        8.349162
   6       10.831459
 
 -0.2812500E+00  0.2812500E+00  0.2187500E+00  0.5859375E-02
   1        1.985689
   2        4.739766
   3        6.687100
   4        7.105852
   5        9.207992
   6       10.713274
 
 -0.3437500E+00  0.3437500E+00  0.2187500E+00  0.5859375E-02
   1        2.542411
   2        4.205778
   3        6.507090
   4        7.557434
   5       10.489886
   6       10.846130
 
 -0.2812500E+00  0.3437500E+00  0.2187500E+00  0.5859375E-02
   1        2.574600
   2        4.128794
   3        6.829631
   4        7.516700
   5        9.936872
   6       10.780444
 
 -0.4062500E+00  0.4062500E+00  0.2187500E+00  0.5859375E-02
   1        2.736618
   2        4.102481
   3        6.334735
   4        7.581193
   5       11.730171
   6       11.857939
 
 -0.3437500E+00  0.4062500E+00  0.2187500E+00  0.1171875E-01
   1        2.943957
   2        3.722804
   3        6.624241
   4        7.971658
   5       10.578949
   6       11.862943
 
 -0.4687500E+00  0.4687500E+00  0.2187500E+00  0.5859375E-02
   1        2.695033
   2        4.245138
   3        6.237865
   4        7.391895
   5       12.871782
   6       12.987605
 
 -0.4062500E+00  0.4687500E+00  0.2187500E+00  0.1171875E-01
   1        2.938624
   2        3.742120
   3        6.360355
   4        8.055416
   5       11.606157
   6       13.344194
 
 -0.3437500E+00  0.4687500E+00  0.2187500E+00  0.5859375E-02
   1        3.237535
   2        3.352919
   3        6.271670
   4        8.834136
   5       10.707059
   6       13.457671
 
 -0.4687500E+00 -0.4687500E+00  0.2187500E+00  0.5859375E-02
   1        2.873231
   2        3.830341
   3        6.237533
   4        8.033412
   5       12.256763
   6       14.333864
 
 -0.4062500E+00 -0.4687500E+00  0.2187500E+00  0.1171875E-01
   1        3.120850
   2        3.458077
   3        5.970855
   4        9.284827
   5       11.236598
   6       15.055591
 
 -0.4062500E+00 -0.4062500E+00  0.2187500E+00  0.1953125E-02
   1        3.277305
   2        3.277305
   3        5.794905
   4       10.477886
   5       10.477886
   6       15.515218
 
 -0.2812500E+00  0.2812500E+00  0.2812500E+00  0.1464844E-02
   1        2.541689
   2        4.145523
   3        7.351096
   4        7.351096
   5        9.459793
   6       10.513849
 
 -0.3437500E+00  0.3437500E+00  0.2812500E+00  0.5859375E-02
   1        2.893299
   2        3.600382
   3        7.563636
   4        7.782727
   5       10.388474
   6       10.709285
 
 -0.4062500E+00  0.4062500E+00  0.2812500E+00  0.5859375E-02
   1        2.934422
   2        3.357553
   3        7.533143
   4        7.855337
   5       11.660355
   6       11.814952
 
 -0.3437500E+00  0.4062500E+00  0.2812500E+00  0.5859375E-02
   1        3.002879
   2        3.153361
   3        7.585593
   4        8.569279
   5       10.737478
   6       11.776158
 
 -0.4687500E+00  0.4687500E+00  0.2812500E+00  0.5859375E-02
   1        2.789142
   2        3.387939
   3        7.484116
   4        7.750337
   5       12.680528
   6       13.407408
 
 -0.4062500E+00  0.4687500E+00  0.2812500E+00  0.1171875E-01
   1        2.833660
   2        3.050870
   3        7.414560
   4        9.022426
   5       11.551591
   6       13.382800
 
 -0.4687500E+00 -0.4687500E+00  0.2812500E+00  0.5859375E-02
   1        2.731839
   2        3.052730
   3        7.339065
   4        9.103028
   5       12.160847
   6       14.674692
 
 -0.4062500E+00 -0.4687500E+00  0.2812500E+00  0.5859375E-02
   1        2.776450
   2        2.865969
   3        7.239147
   4       10.252582
   5       11.304317
   6       15.124644
 
 -0.3437500E+00  0.3437500E+00  0.3437500E+00  0.1464844E-02
   1        2.918398
   2        3.085382
   3        8.476645
   4        8.476646
   5       10.652775
   6       10.840563
 
 -0.4062500E+00  0.4062500E+00  0.3437500E+00  0.5859375E-02
   1        2.709583
   2        2.805765
   3        8.868085
   4        8.886639
   5       11.548824
   6       11.872193
 
 -0.4687500E+00  0.4687500E+00  0.3437500E+00  0.5859375E-02
   1        2.515143
   2        2.713462
   3        8.935270
   4        8.943528
   5       12.510880
   6       13.588827
 
 -0.4062500E+00  0.4687500E+00  0.3437500E+00  0.5859375E-02
   1        2.464662
   2        2.569191
   3        8.878239
   4       10.096304
   5       11.770956
   6       13.369186
 
 -0.4687500E+00 -0.4687500E+00  0.3437500E+00  0.5859375E-02
   1        2.389030
   2        2.470979
   3        8.854474
   4       10.542456
   5       12.034208
   6       14.852612
 
 -0.4062500E+00  0.4062500E+00  0.4062500E+00  0.1464844E-02
   1        2.358548
   2        2.463939
   3       10.040783
   4       10.040783
   5       11.725879
   6       12.326375
 
 -0.4687500E+00  0.4687500E+00  0.4062500E+00  0.5859375E-02
   1        2.183128
   2        2.251623
   3       10.522509
   4       10.526080
   5       12.390028
   6       13.678815
 
 -0.4687500E+00 -0.4687500E+00  0.4062500E+00  0.1953125E-02
   1        2.111568
   2        2.111568
   3       10.580002
   4       11.939546
   5       11.939549
   6       14.918251
 
 -0.4687500E+00  0.4687500E+00  0.4687500E+00  0.1464844E-02
   1        1.989744
   2        2.009770
   3       11.905189
   4       11.905190
   5       12.389907
   6       13.962456
