    1    1    1    2
  0.1813235E+02  0.2866544E-09  0.2866544E-09  0.2866544E-09  0.5000000E-15
  1.000000000000000E-004
  CAR 
 unknown system                          
    5  140    6
 
  0.3125000E-01  0.3125000E-01  0.3125000E-01  0.1953125E-02
   1       -1.918333     -1.933969
   2        6.316580      6.293503
   3        6.316580      6.293503
   4        6.749156      6.726007
   5        9.557037      9.549922
   6        9.557037      9.549922
 
  0.9375000E-01  0.3125000E-01  0.3125000E-01  0.5859375E-02
   1       -1.434294     -1.449892
   2        5.998659      5.975875
   3        6.139467      6.117268
   4        7.289270      7.266382
   5        9.220549      9.212431
   6        9.621090      9.613625
 
  0.1562500E+00  0.3125000E-01  0.3125000E-01  0.5859375E-02
   1       -0.697373     -0.712969
   2        5.576254      5.553746
   3        5.832913      5.812733
   4        8.116962      8.094554
   5        9.048313      9.038202
   6        9.721620      9.713755
 
  0.2187500E+00  0.3125000E-01  0.3125000E-01  0.5859375E-02
   1        0.161472      0.145724
   2        5.137079      5.114776
   3        5.515419      5.497664
   4        9.084244      9.069509
   5        9.269374      9.250247
   6        9.868868      9.860607
 
  0.2812500E+00  0.3125000E-01  0.3125000E-01  0.5859375E-02
   1        0.913253      0.897098
   2        4.744074      4.721913
   3        5.488400      5.472807
   4        9.371098      9.357897
   5       10.069136     10.060498
   6       10.524092     10.503101
 
  0.3437500E+00  0.3125000E-01  0.3125000E-01  0.5859375E-02
   1        1.328886      1.312320
   2        4.438936      4.416868
   3        5.969657      5.955676
   4        9.597666      9.584195
   5       10.300396     10.291420
   6       11.892463     11.872560
 
  0.4062500E+00  0.3125000E-01  0.3125000E-01  0.5859375E-02
   1        1.447076      1.430375
   2        4.246673      4.224656
   3        6.739688      6.726531
   4        9.651749      9.638643
   5       10.500025     10.490794
   6       13.075935     13.057355
 
  0.4687500E+00  0.3125000E-01  0.3125000E-01  0.2929688E-02
   1        1.459571      1.442862
   2        4.181186      4.159186
   3        7.154177      7.141216
   4        9.600237      9.587477
   5       10.581693     10.572363
   6       13.588021     13.570198
 
 -0.3125000E-01  0.3125000E-01  0.3125000E-01  0.1464844E-02
   1       -2.086027     -2.101682
   2        6.437721      6.414503
   3        6.437721      6.414503
   4        6.492325      6.469067
   5        9.533634      9.526673
   6        9.731972      9.725109
 
  0.9375000E-01  0.9375000E-01  0.3125000E-01  0.5859375E-02
   1       -0.830869     -0.846459
   2        5.688708      5.666577
   3        5.756576      5.735330
   4        8.063574      8.041116
   5        9.082049      9.072912
   6        9.693811      9.685644
 
  0.1562500E+00  0.9375000E-01  0.3125000E-01  0.1171875E-01
   1       -0.021911     -0.037564
   2        5.269332      5.247744
   3        5.394851      5.375188
   4        8.992467      8.979308
   5        9.122373      9.102992
   6        9.902492      9.893835
 
  0.2187500E+00  0.9375000E-01  0.3125000E-01  0.1171875E-01
   1        0.829867      0.813947
   2        4.860429      4.839082
   3        5.178983      5.161241
   4        9.158919      9.146717
   5       10.116478     10.107523
   6       10.349422     10.328495
 
  0.2812500E+00  0.9375000E-01  0.3125000E-01  0.1171875E-01
   1        1.458138      1.441719
   2        4.534619      4.513136
   3        5.361047      5.345388
   4        9.420492      9.407495
   5       10.312977     10.303733
   6       11.711877     11.692099
 
  0.3437500E+00  0.9375000E-01  0.3125000E-01  0.1171875E-01
   1        1.712108      1.695368
   2        4.309522      4.287922
   3        6.004327      5.990137
   4        9.620135      9.607013
   5       10.491493     10.482025
   6       13.011489     12.993105
 
  0.4062500E+00  0.9375000E-01  0.3125000E-01  0.1171875E-01
   1        1.755172      1.738377
   2        4.194349      4.172700
   3        6.648706      6.635190
   4        9.630653      9.617920
   5       10.644153     10.634452
   6       13.898148     13.881026
 
 -0.9375000E-01  0.9375000E-01  0.3125000E-01  0.5859375E-02
   1       -1.752523     -1.768136
   2        6.237528      6.214458
   3        6.366571      6.343765
   4        6.812668      6.789556
   5        9.158240      9.150759
   6        9.797792      9.790720
 
  0.1562500E+00  0.1562500E+00  0.3125000E-01  0.5859375E-02
   1        0.812843      0.797041
   2        4.920694      4.902214
   3        5.035436      5.014249
   4        9.026732      9.014993
   5       10.184197     10.175082
   6       10.310150     10.289267
 
  0.2187500E+00  0.1562500E+00  0.3125000E-01  0.1171875E-01
   1        1.618096      1.601866
   2        4.583252      4.564657
   3        4.935649      4.916306
   4        9.198312      9.185696
   5       10.391447     10.381879
   6       11.682610     11.663056
 
  0.2812500E+00  0.1562500E+00  0.3125000E-01  0.1171875E-01
   1        2.106562      2.089713
   2        4.373044      4.353245
   3        5.239199      5.222818
   4        9.461443      9.448360
   5       10.505866     10.495904
   6       13.079414     13.061409
 
  0.3437500E+00  0.1562500E+00  0.3125000E-01  0.1171875E-01
   1        2.239547      2.222469
   2        4.254351      4.233807
   3        5.842354      5.827899
   4        9.623888      9.610962
   5       10.629379     10.618892
   6       14.253852     14.237460
 
  0.4062500E+00  0.1562500E+00  0.3125000E-01  0.5859375E-02
   1        2.249521      2.232436
   2        4.214873      4.194121
   3        6.162193      6.148388
   4        9.629503      9.616801
   5       10.736988     10.726259
   6       14.761579     14.746031
 
 -0.1562500E+00  0.1562500E+00  0.3125000E-01  0.5859375E-02
   1       -1.127196     -1.142763
   2        5.869327      5.846490
   3        6.143975      6.122797
   4        7.473163      7.450345
   5        8.836129      8.827097
   6        9.857638      9.850120
 
 -0.9375000E-01  0.1562500E+00  0.3125000E-01  0.5859375E-02
   1       -1.273985     -1.289541
   2        6.073580      6.050844
   3        6.175777      6.153695
   4        7.259275      7.236405
   5        8.692405      8.684028
   6        9.969620      9.962212
 
  0.2187500E+00  0.2187500E+00  0.3125000E-01  0.5859375E-02
   1        2.337463      2.320437
   2        4.359277      4.342673
   3        4.916214      4.896616
   4        9.373696      9.360638
   5       10.510501     10.500327
   6       13.129133     13.111291
 
  0.2812500E+00  0.2187500E+00  0.3125000E-01  0.1171875E-01
   1        2.722520      2.704545
   2        4.290585      4.273353
   3        5.170439      5.153518
   4        9.630849      9.617628
   5       10.530143     10.519206
   6       14.528738     14.512750
 
  0.3437500E+00  0.2187500E+00  0.3125000E-01  0.1171875E-01
   1        2.807939      2.789772
   2        4.290113      4.271593
   3        5.503165      5.488672
   4        9.769599      9.756603
   5       10.631691     10.620024
   6       15.144505     15.124115
 
 -0.2187500E+00  0.2187500E+00  0.3125000E-01  0.5859375E-02
   1       -0.306679     -0.322289
   2        5.433175      5.410579
   3        5.781580      5.763067
   4        8.430388      8.408027
   5        8.805917      8.794637
   6        9.957224      9.949141
 
 -0.1562500E+00  0.2187500E+00  0.3125000E-01  0.1171875E-01
   1       -0.545011     -0.560535
   2        5.704773      5.682473
   3        5.862934      5.842887
   4        8.066275      8.043904
   5        8.445957      8.435493
   6       10.128912     10.120944
 
  0.2812500E+00  0.2812500E+00  0.3125000E-01  0.5859375E-02
   1        3.101294      3.081704
   2        4.382825      4.367419
   3        5.101240      5.085272
   4        9.921701      9.908439
   5       10.482086     10.470126
   6       14.901346     14.880755
 
  0.3437500E+00  0.2812500E+00  0.3125000E-01  0.5859375E-02
   1        3.199500      3.179394
   2        4.509563      4.493831
   3        5.034853      5.020321
   4       10.091206     10.078136
   5       10.473519     10.460991
   6       14.308775     14.287508
 
 -0.2812500E+00  0.2812500E+00  0.3125000E-01  0.5859375E-02
   1        0.527722      0.511844
   2        5.007052      4.984660
   3        5.539096      5.523056
   4        9.028112      9.015207
   5        9.634934      9.613232
   6       10.103987     10.095363
 
 -0.2187500E+00  0.2812500E+00  0.3125000E-01  0.1171875E-01
   1        0.307440      0.291808
   2        5.269657      5.248007
   3        5.517607      5.499835
   4        8.529900      8.517283
   5        9.167172      9.145417
   6       10.282743     10.274162
 
 -0.1562500E+00  0.2812500E+00  0.3125000E-01  0.5859375E-02
   1        0.237140      0.221609
   2        5.380840      5.362618
   3        5.508437      5.486572
   4        8.294614      8.282418
   5        9.032807      9.010998
   6       10.368215     10.359681
 
 -0.3437500E+00  0.3437500E+00  0.3125000E-01  0.5859375E-02
   1        1.120914      1.104589
   2        4.646826      4.624587
   3        5.728246      5.714153
   4        9.338452      9.324763
   5       10.279828     10.270837
   6       10.999027     10.978239
 
 -0.2812500E+00  0.3437500E+00  0.3125000E-01  0.1171875E-01
   1        1.060956      1.044958
   2        4.882108      4.860495
   3        5.406423      5.391045
   4        8.851071      8.837253
   5       10.377901     10.364610
   6       10.504296     10.487478
 
 -0.2187500E+00  0.3437500E+00  0.3125000E-01  0.1171875E-01
   1        1.071484      1.055750
   2        4.936478      4.919173
   3        5.308651      5.288166
   4        8.445828      8.432125
   5       10.213305     10.193412
   6       10.571722     10.561519
 
 -0.4062500E+00  0.4062500E+00  0.3125000E-01  0.5859375E-02
   1        1.362394      1.345815
   2        4.389229      4.367091
   3        6.373046      6.360144
   4        9.525551      9.511945
   5       10.484072     10.474749
   6       12.343214     12.323643
 
 -0.3437500E+00  0.4062500E+00  0.3125000E-01  0.1171875E-01
   1        1.482362      1.465971
   2        4.589587      4.567779
   3        5.753304      5.739890
   4        9.192861      9.178739
   5       10.541802     10.531967
   6       11.860515     11.840836
 
 -0.2812500E+00  0.4062500E+00  0.3125000E-01  0.1171875E-01
   1        1.711560      1.695351
   2        4.660575      4.642196
   3        5.300559      5.283260
   4        8.791248      8.776777
   5       10.532150     10.521216
   6       11.708029     11.689307
 
 -0.2187500E+00  0.4062500E+00  0.3125000E-01  0.5859375E-02
   1        1.841008      1.824869
   2        4.546456      4.530970
   3        5.254759      5.234302
   4        8.603413      8.588871
   5       10.508187     10.496721
   6       11.698823     11.680626
 
 -0.4687500E+00  0.4687500E+00  0.3125000E-01  0.5859375E-02
   1        1.407899      1.391284
   2        4.255461      4.233372
   3        7.024129      7.011676
   4        9.478135      9.465131
   5       10.675024     10.665384
   6       13.285314     13.266942
 
 -0.4062500E+00  0.4687500E+00  0.3125000E-01  0.1171875E-01
   1        1.600081      1.583577
   2        4.405778      4.383906
   3        6.375351      6.362929
   4        9.278749      9.265289
   5       10.799122     10.788662
   6       13.064658     13.046252
 
 -0.3437500E+00  0.4687500E+00  0.3125000E-01  0.1171875E-01
   1        1.983284      1.966771
   2        4.520649      4.500413
   3        5.638411      5.624508
   4        9.070254      9.056064
   5       10.678904     10.667305
   6       13.075089     13.057416
 
 -0.2812500E+00  0.4687500E+00  0.3125000E-01  0.1171875E-01
   1        2.381741      2.364875
   2        4.368137      4.352588
   3        5.294946      5.276762
   4        8.933556      8.918647
   5       10.485574     10.473512
   6       13.174709     13.157527
 
 -0.4687500E+00 -0.4687500E+00  0.3125000E-01  0.5859375E-02
   1        1.611232      1.594730
   2        4.343114      4.321231
   3        6.709695      6.697549
   4        9.210572      9.197526
   5       10.980408     10.969755
   6       13.588810     13.571149
 
 -0.4062500E+00 -0.4687500E+00  0.3125000E-01  0.1171875E-01
   1        2.028789      2.012267
   2        4.448209      4.427214
   3        6.042977      6.030591
   4        9.071577      9.058023
   5       11.001157     10.988922
   6       14.048314     14.031859
 
 -0.3437500E+00 -0.4687500E+00  0.3125000E-01  0.1171875E-01
   1        2.570278      2.553174
   2        4.409858      4.392064
   3        5.420487      5.406122
   4        9.158983      9.144475
   5       10.664802     10.651525
   6       14.527464     14.511745
 
 -0.2812500E+00 -0.4687500E+00  0.3125000E-01  0.5859375E-02
   1        2.909787      2.891564
   2        4.228076      4.214004
   3        5.219861      5.203192
   4        9.291793      9.276556
   5       10.408163     10.394829
   6       14.726237     14.710653
 
 -0.4062500E+00 -0.4062500E+00  0.3125000E-01  0.5859375E-02
   1        2.592272      2.575228
   2        4.452090      4.432901
   3        5.502829      5.490382
   4        9.179447      9.165165
   5       10.892665     10.879007
   6       15.176436     15.161572
 
 -0.3437500E+00 -0.4062500E+00  0.3125000E-01  0.1171875E-01
   1        3.132462      3.113560
   2        4.358551      4.343421
   3        5.026602      5.012893
   4        9.586410      9.571364
   5       10.511040     10.496663
   6       15.086255     15.066385
 
 -0.3437500E+00 -0.3437500E+00  0.3125000E-01  0.1953125E-02
   1        3.398508      3.377696
   2        4.570276      4.557130
   3        4.570277      4.557130
   4       10.144070     10.129076
   5       10.144070     10.129076
   6       14.567699     14.547150
 
  0.9375000E-01  0.9375000E-01  0.9375000E-01  0.1953125E-02
   1       -0.134445     -0.150098
   2        5.297718      5.276785
   3        5.297718      5.276785
   4        9.104361      9.082528
   5        9.487890      9.478504
   6        9.487890      9.478504
 
  0.1562500E+00  0.9375000E-01  0.9375000E-01  0.5859375E-02
   1        0.724461      0.708657
   2        4.883202      4.862273
   3        4.954620      4.935266
   4        9.468454      9.457684
   5        9.841398      9.832010
   6       10.348969     10.328041
 
  0.2187500E+00  0.9375000E-01  0.9375000E-01  0.5859375E-02
   1        1.541506      1.525301
   2        4.546080      4.525034
   3        4.863479      4.845870
   4        9.608456      9.596642
   5       10.138421     10.129088
   6       11.719831     11.700051
 
  0.2812500E+00  0.9375000E-01  0.9375000E-01  0.5859375E-02
   1        2.014152      1.997386
   2        4.300389      4.279209
   3        5.285095      5.269154
   4        9.790188      9.777854
   5       10.384330     10.375034
   6       13.077865     13.059528
 
  0.3437500E+00  0.9375000E-01  0.9375000E-01  0.5859375E-02
   1        2.131710      2.114720
   2        4.151625      4.130350
   3        6.038135      6.023228
   4        9.880740      9.868414
   5       10.560495     10.551208
   6       14.172308     14.155517
 
  0.4062500E+00  0.9375000E-01  0.9375000E-01  0.2929688E-02
   1        2.137739      2.120727
   2        4.101888      4.080578
   3        6.436370      6.421809
   4        9.877027      9.864837
   5       10.626547     10.617259
   6       14.626243     14.610300
 
 -0.9375000E-01  0.9375000E-01  0.9375000E-01  0.1464844E-02
   1       -1.425315     -1.440859
   2        6.367105      6.344303
   3        6.367105      6.344303
   4        6.817415      6.794306
   5        8.509603      8.501916
   6       10.099968     10.092808
 
  0.1562500E+00  0.1562500E+00  0.9375000E-01  0.5859375E-02
   1        1.600358      1.584323
   2        4.575255      4.556326
   3        4.624347      4.604015
   4        9.652963      9.641904
   5       10.097121     10.087381
   6       11.743013     11.723253
 
  0.2187500E+00  0.1562500E+00  0.9375000E-01  0.1171875E-01
   1        2.352217      2.335589
   2        4.336034      4.316423
   3        4.645366      4.627047
   4        9.818517      9.806917
   5       10.365052     10.355395
   6       13.175010     13.156752
 
  0.2812500E+00  0.1562500E+00  0.9375000E-01  0.1171875E-01
   1        2.658708      2.641436
   2        4.186014      4.165774
   3        5.202565      5.186220
   4        9.983759      9.971886
   5       10.540522     10.530950
   6       14.454848     14.438317
 
  0.3437500E+00  0.1562500E+00  0.9375000E-01  0.1171875E-01
   1        2.689050      2.671646
   2        4.113924      4.093416
   3        5.825365      5.809975
   4       10.046022     10.034186
   5       10.646650     10.637068
   6       15.187137     15.167453
 
 -0.1562500E+00  0.1562500E+00  0.9375000E-01  0.5859375E-02
   1       -0.811742     -0.827187
   2        6.125883      6.103272
   3        6.236196      6.214834
   4        7.369569      7.346761
   5        7.961441      7.952342
   6       10.315560     10.307955
 
  0.2187500E+00  0.2187500E+00  0.9375000E-01  0.5859375E-02
   1        2.990914      2.973121
   2        4.273182      4.255641
   3        4.677260      4.658515
   4       10.004125      9.992473
   5       10.530734     10.520924
   6       14.587046     14.570622
 
  0.2812500E+00  0.2187500E+00  0.9375000E-01  0.1171875E-01
   1        3.193235      3.174548
   2        4.263760      4.245620
   3        5.112173      5.095563
   4       10.177589     10.165968
   5       10.600982     10.590916
   6       14.841707     14.820470
 
  0.3437500E+00  0.2187500E+00  0.9375000E-01  0.5859375E-02
   1        3.209409      3.190639
   2        4.256881      4.238331
   3        5.389873      5.374130
   4       10.233354     10.221811
   5       10.645503     10.635283
   6       14.227692     14.205961
 
 -0.2187500E+00  0.2187500E+00  0.9375000E-01  0.5859375E-02
   1       -0.004625     -0.020026
   2        5.726431      5.704015
   3        5.827381      5.809817
   4        7.889909      7.877389
   5        8.311844      8.289504
   6       10.473424     10.465121
 
 -0.1562500E+00  0.2187500E+00  0.9375000E-01  0.5859375E-02
   1       -0.107734     -0.123047
   2        5.941036      5.922310
   3        6.028474      6.006258
   4        7.535818      7.523996
   5        7.991310      7.968875
   6       10.555687     10.547480
 
  0.2812500E+00  0.2812500E+00  0.9375000E-01  0.5859375E-02
   1        3.405937      3.385944
   2        4.560798      4.544235
   3        4.971808      4.955468
   4       10.391148     10.379836
   5       10.569728     10.559054
   6       13.848360     13.826321
 
 -0.2812500E+00  0.2812500E+00  0.9375000E-01  0.5859375E-02
   1        0.824982      0.809418
   2        5.321422      5.299181
   3        5.422051      5.407384
   4        8.209238      8.194630
   5        9.516433      9.494745
   6       10.575964     10.566900
 
 -0.2187500E+00  0.2812500E+00  0.9375000E-01  0.1171875E-01
   1        0.720934      0.705659
   2        5.398397      5.382664
   3        5.760527      5.739000
   4        7.655135      7.640249
   5        9.026352      9.004536
   6       10.687588     10.678525
 
 -0.3437500E+00  0.3437500E+00  0.9375000E-01  0.5859375E-02
   1        1.427163      1.411232
   2        4.975440      4.953334
   3        5.389113      5.376320
   4        8.652977      8.637843
   5       10.665308     10.655440
   6       10.887740     10.866952
 
 -0.2812500E+00  0.3437500E+00  0.9375000E-01  0.1171875E-01
   1        1.473444      1.457957
   2        4.985805      4.971159
   3        5.481789      5.461456
   4        8.086525      8.070541
   5       10.239585     10.219849
   6       10.805415     10.794104
 
 -0.2187500E+00  0.3437500E+00  0.9375000E-01  0.5859375E-02
   1        1.509701      1.494410
   2        4.848989      4.834969
   3        5.719381      5.698210
   4        7.789208      7.772958
   5       10.032437     10.012650
   6       10.853219     10.841936
 
 -0.4062500E+00  0.4062500E+00  0.9375000E-01  0.5859375E-02
   1        1.670590      1.654458
   2        4.726492      4.704475
   3        5.789724      5.777967
   4        8.872813      8.858486
   5       10.954721     10.943774
   6       12.246080     12.226492
 
 -0.3437500E+00  0.4062500E+00  0.9375000E-01  0.1171875E-01
   1        1.910549      1.894769
   2        4.880630      4.863338
   3        5.366852      5.350634
   4        8.480766      8.465280
   5       10.765558     10.752770
   6       11.842158     11.823632
 
 -0.2812500E+00  0.4062500E+00  0.9375000E-01  0.1171875E-01
   1        2.165730      2.150127
   2        4.485654      4.472307
   3        5.598676      5.578767
   4        8.194165      8.177502
   5       10.414824     10.400764
   6       11.826691     11.809453
 
 -0.4687500E+00  0.4687500E+00  0.9375000E-01  0.5859375E-02
   1        1.709747      1.693619
   2        4.597104      4.575131
   3        6.248195      6.236809
   4        8.766572      8.753081
   5       11.407651     11.396227
   6       13.205253     13.186859
 
 -0.4062500E+00  0.4687500E+00  0.9375000E-01  0.1171875E-01
   1        2.024474      2.008677
   2        4.837209      4.816314
   3        5.591844      5.579931
   4        8.497938      8.483567
   5       11.319537     11.306199
   6       13.083296     13.065529
 
 -0.3437500E+00  0.4687500E+00  0.9375000E-01  0.1171875E-01
   1        2.478712      2.462937
   2        4.509757      4.495475
   3        5.432311      5.414793
   4        8.500422      8.484484
   5       10.705703     10.690994
   6       13.257935     13.240951
 
 -0.2812500E+00  0.4687500E+00  0.9375000E-01  0.5859375E-02
   1        2.779475      2.763299
   2        4.134716      4.122095
   3        5.503047      5.484829
   4        8.602591      8.585477
   5       10.335060     10.320414
   6       13.348219     13.331352
 
 -0.4687500E+00 -0.4687500E+00  0.9375000E-01  0.5859375E-02
   1        2.029337      2.013586
   2        4.804104      4.782609
   3        5.777346      5.766251
   4        8.398647      8.384611
   5       11.708835     11.695478
   6       13.646779     13.629749
 
 -0.4062500E+00 -0.4687500E+00  0.9375000E-01  0.1171875E-01
   1        2.524503      2.508900
   2        4.766135      4.748000
   3        5.254236      5.241206
   4        8.502044      8.486623
   5       11.286126     11.270851
   6       14.394879     14.379036
 
 -0.3437500E+00 -0.4687500E+00  0.9375000E-01  0.1171875E-01
   1        3.100481      3.084149
   2        4.192052      4.178845
   3        5.149186      5.133170
   4        8.990488      8.973658
   5       10.576194     10.560311
   6       14.872729     14.856893
 
 -0.4062500E+00 -0.4062500E+00  0.9375000E-01  0.5859375E-02
   1        3.139572      3.123656
   2        4.582707      4.564924
   3        4.710434      4.699104
   4        9.080481      9.063853
   5       10.887676     10.871455
   6       15.502542     15.483630
 
 -0.3437500E+00 -0.4062500E+00  0.9375000E-01  0.5859375E-02
   1        3.676318      3.657705
   2        4.095375      4.083497
   3        4.583600      4.569669
   4        9.702122      9.685098
   5       10.380969     10.364401
   6       15.130323     15.110977
 
  0.1562500E+00  0.1562500E+00  0.1562500E+00  0.1953125E-02
   1        2.512281      2.496057
   2        4.336219      4.316806
   3        4.336219      4.316806
   4       10.128717     10.118357
   5       10.128717     10.118357
   6       13.237103     13.218790
 
  0.2187500E+00  0.1562500E+00  0.1562500E+00  0.5859375E-02
   1        3.192538      3.175598
   2        4.186773      4.166934
   3        4.460848      4.442903
   4       10.230157     10.219372
   5       10.449816     10.440050
   6       14.644689     14.628105
 
  0.2812500E+00  0.1562500E+00  0.1562500E+00  0.5859375E-02
   1        3.298229      3.280678
   2        4.107469      4.087336
   3        5.144152      5.127510
   4       10.312204     10.301247
   5       10.632116     10.622749
   6       14.837898     14.816336
 
  0.3437500E+00  0.1562500E+00  0.1562500E+00  0.2929688E-02
   1        3.279521      3.261918
   2        4.082767      4.062530
   3        5.525683      5.509431
   4       10.330897     10.319910
   5       10.691082     10.681857
   6       14.215025     14.193107
 
 -0.1562500E+00  0.1562500E+00  0.1562500E+00  0.1464844E-02
   1       -0.222069     -0.237298
   2        6.386684      6.364495
   3        6.386684      6.364495
   4        7.017125      7.008721
   5        7.450724      7.427932
   6       10.634841     10.626740
 
  0.2187500E+00  0.2187500E+00  0.1562500E+00  0.5859375E-02
   1        3.728361      3.709961
   2        4.255779      4.237473
   3        4.523015      4.505067
   4       10.435537     10.425137
   5       10.596564     10.586940
   6       14.722829     14.701020
 
  0.2812500E+00  0.2187500E+00  0.1562500E+00  0.1171875E-01
   1        3.752648      3.733763
   2        4.273369      4.254824
   3        5.005143      4.988137
   4       10.523800     10.513492
   5       10.687879     10.678447
   6       13.643606     13.621192
 
 -0.2187500E+00  0.2187500E+00  0.1562500E+00  0.5859375E-02
   1        0.552375      0.537378
   2        5.885890      5.871967
   3        6.237386      6.215360
   4        6.944192      6.927721
   5        8.178991      8.156642
   6       10.787337     10.778298
 
  0.2812500E+00  0.2812500E+00  0.1562500E+00  0.1953125E-02
   1        3.825073      3.805468
   2        4.705613      4.688215
   3        4.705614      4.688215
   4       10.656762     10.646986
   5       10.656762     10.646986
   6       13.174787     13.152045
 
 -0.2812500E+00  0.2812500E+00  0.1562500E+00  0.5859375E-02
   1        1.357904      1.343002
   2        5.179409      5.167358
   3        5.917843      5.895918
   4        7.445121      7.427473
   5        9.333925      9.312249
   6       10.797932     10.787701
 
 -0.2187500E+00  0.2812500E+00  0.1562500E+00  0.5859375E-02
   1        1.325164      1.310489
   2        5.238148      5.226487
   3        6.294691      6.273133
   4        7.053949      7.035207
   5        8.942455      8.920652
   6       10.820320     10.810004
 
 -0.3437500E+00  0.3437500E+00  0.1562500E+00  0.5859375E-02
   1        1.965278      1.950247
   2        4.837416      4.826225
   3        5.613946      5.592109
   4        7.949990      7.933080
   5       10.698919     10.678133
   6       10.878144     10.866375
 
 -0.2812500E+00  0.3437500E+00  0.1562500E+00  0.1171875E-01
   1        2.045448      2.030929
   2        4.626349      4.615093
   3        6.116431      6.095306
   4        7.542155      7.523607
   5       10.011893      9.992092
   6       10.901399     10.888380
 
 -0.4062500E+00  0.4062500E+00  0.1562500E+00  0.5859375E-02
   1        2.204682      2.189633
   2        4.956019      4.945273
   3        5.388031      5.366257
   4        8.069228      8.053852
   5       11.447512     11.434166
   6       12.073862     12.054246
 
 -0.3437500E+00  0.4062500E+00  0.1562500E+00  0.1171875E-01
   1        2.491296      2.476820
   2        4.389914      4.378893
   3        5.863659      5.842973
   4        7.922310      7.905067
   5       10.720894     10.704784
   6       11.884978     11.867384
 
 -0.2812500E+00  0.4062500E+00  0.1562500E+00  0.5859375E-02
   1        2.667447      2.653155
   2        4.111170      4.100060
   3        6.060167      6.040415
   4        7.973670      7.954790
   5       10.235204     10.219007
   6       11.912031     11.894712
 
 -0.4687500E+00  0.4687500E+00  0.1562500E+00  0.5859375E-02
   1        2.222768      2.207843
   2        5.236118      5.225520
   3        5.268841      5.247099
   4        7.887740      7.873081
   5       12.287684     12.274086
   6       13.060367     13.041935
 
 -0.4062500E+00  0.4687500E+00  0.1562500E+00  0.1171875E-01
   1        2.581022      2.566823
   2        4.575817      4.564860
   3        5.617065      5.596683
   4        7.893805      7.877506
   5       11.605566     11.589168
   6       13.209223     13.192086
 
 -0.3437500E+00  0.4687500E+00  0.1562500E+00  0.1171875E-01
   1        3.030451      3.016546
   2        3.949567      3.938426
   3        5.707028      5.688217
   4        8.420664      8.402345
   5       10.601147     10.584197
   6       13.428467     13.411338
 
 -0.4687500E+00 -0.4687500E+00  0.1562500E+00  0.5859375E-02
   1        2.565219      2.551169
   2        4.765808      4.755385
   3        5.473045      5.452302
   4        7.805168      7.788976
   5       12.181657     12.165287
   6       13.911504     13.895214
 
 -0.4062500E+00 -0.4687500E+00  0.1562500E+00  0.1171875E-01
   1        3.037452      3.024244
   2        4.221997      4.211145
   3        5.297290      5.278169
   4        8.529966      8.512027
   5       11.329644     11.312271
   6       14.811559     14.795320
 
 -0.3437500E+00 -0.4687500E+00  0.1562500E+00  0.5859375E-02
   1        3.552640      3.539335
   2        3.677657      3.666825
   3        5.184699      5.166250
   4        9.238625      9.220092
   5       10.602351     10.584739
   6       15.048607     15.032115
 
 -0.4062500E+00 -0.4062500E+00  0.1562500E+00  0.5859375E-02
   1        3.538180      3.526493
   2        3.941871      3.931313
   3        4.808759      4.788762
   4        9.598525      9.580217
   5       10.721973     10.704086
   6       15.415584     15.396946
 