Automatically generated mesh
     140
Reciprocal lattice
    0.03125000000000    0.03125000000000    0.03125000000000             8
    0.09375000000000    0.03125000000000    0.03125000000000            24
    0.15625000000000    0.03125000000000    0.03125000000000            24
    0.21875000000000    0.03125000000000    0.03125000000000            24
    0.28125000000000    0.03125000000000    0.03125000000000            24
    0.34375000000000    0.03125000000000    0.03125000000000            24
    0.40625000000000    0.03125000000000    0.03125000000000            24
    0.46875000000000    0.03125000000000    0.03125000000000            12
   -0.03125000000000    0.03125000000000    0.03125000000000             6
    0.09375000000000    0.09375000000000    0.03125000000000            24
    0.15625000000000    0.09375000000000    0.03125000000000            48
    0.21875000000000    0.09375000000000    0.03125000000000            48
    0.28125000000000    0.09375000000000    0.03125000000000            48
    0.34375000000000    0.09375000000000    0.03125000000000            48
    0.40625000000000    0.09375000000000    0.03125000000000            48
   -0.09375000000000    0.09375000000000    0.03125000000000            24
    0.15625000000000    0.15625000000000    0.03125000000000            24
    0.21875000000000    0.15625000000000    0.03125000000000            48
    0.28125000000000    0.15625000000000    0.03125000000000            48
    0.34375000000000    0.15625000000000    0.03125000000000            48
    0.40625000000000    0.15625000000000    0.03125000000000            24
   -0.15625000000000    0.15625000000000    0.03125000000000            24
   -0.09375000000000    0.15625000000000    0.03125000000000            24
    0.21875000000000    0.21875000000000    0.03125000000000            24
    0.28125000000000    0.21875000000000    0.03125000000000            48
    0.34375000000000    0.21875000000000    0.03125000000000            48
   -0.21875000000000    0.21875000000000    0.03125000000000            24
   -0.15625000000000    0.21875000000000    0.03125000000000            48
    0.28125000000000    0.28125000000000    0.03125000000000            24
    0.34375000000000    0.28125000000000    0.03125000000000            24
   -0.28125000000000    0.28125000000000    0.03125000000000            24
   -0.21875000000000    0.28125000000000    0.03125000000000            48
   -0.15625000000000    0.28125000000000    0.03125000000000            24
   -0.34375000000000    0.34375000000000    0.03125000000000            24
   -0.28125000000000    0.34375000000000    0.03125000000000            48
   -0.21875000000000    0.34375000000000    0.03125000000000            48
   -0.40625000000000    0.40625000000000    0.03125000000000            24
   -0.34375000000000    0.40625000000000    0.03125000000000            48
   -0.28125000000000    0.40625000000000    0.03125000000000            48
   -0.21875000000000    0.40625000000000    0.03125000000000            24
   -0.46875000000000    0.46875000000000    0.03125000000000            24
   -0.40625000000000    0.46875000000000    0.03125000000000            48
   -0.34375000000000    0.46875000000000    0.03125000000000            48
   -0.28125000000000    0.46875000000000    0.03125000000000            48
   -0.46875000000000   -0.46875000000000    0.03125000000000            24
   -0.40625000000000   -0.46875000000000    0.03125000000000            48
   -0.34375000000000   -0.46875000000000    0.03125000000000            48
   -0.28125000000000   -0.46875000000000    0.03125000000000            24
   -0.40625000000000   -0.40625000000000    0.03125000000000            24
   -0.34375000000000   -0.40625000000000    0.03125000000000            48
   -0.34375000000000   -0.34375000000000    0.03125000000000             8
    0.09375000000000    0.09375000000000    0.09375000000000             8
    0.15625000000000    0.09375000000000    0.09375000000000            24
    0.21875000000000    0.09375000000000    0.09375000000000            24
    0.28125000000000    0.09375000000000    0.09375000000000            24
    0.34375000000000    0.09375000000000    0.09375000000000            24
    0.40625000000000    0.09375000000000    0.09375000000000            12
   -0.09375000000000    0.09375000000000    0.09375000000000             6
    0.15625000000000    0.15625000000000    0.09375000000000            24
    0.21875000000000    0.15625000000000    0.09375000000000            48
    0.28125000000000    0.15625000000000    0.09375000000000            48
    0.34375000000000    0.15625000000000    0.09375000000000            48
   -0.15625000000000    0.15625000000000    0.09375000000000            24
    0.21875000000000    0.21875000000000    0.09375000000000            24
    0.28125000000000    0.21875000000000    0.09375000000000            48
    0.34375000000000    0.21875000000000    0.09375000000000            24
   -0.21875000000000    0.21875000000000    0.09375000000000            24
   -0.15625000000000    0.21875000000000    0.09375000000000            24
    0.28125000000000    0.28125000000000    0.09375000000000            24
   -0.28125000000000    0.28125000000000    0.09375000000000            24
   -0.21875000000000    0.28125000000000    0.09375000000000            48
   -0.34375000000000    0.34375000000000    0.09375000000000            24
   -0.28125000000000    0.34375000000000    0.09375000000000            48
   -0.21875000000000    0.34375000000000    0.09375000000000            24
   -0.40625000000000    0.40625000000000    0.09375000000000            24
   -0.34375000000000    0.40625000000000    0.09375000000000            48
   -0.28125000000000    0.40625000000000    0.09375000000000            48
   -0.46875000000000    0.46875000000000    0.09375000000000            24
   -0.40625000000000    0.46875000000000    0.09375000000000            48
   -0.34375000000000    0.46875000000000    0.09375000000000            48
   -0.28125000000000    0.46875000000000    0.09375000000000            24
   -0.46875000000000   -0.46875000000000    0.09375000000000            24
   -0.40625000000000   -0.46875000000000    0.09375000000000            48
   -0.34375000000000   -0.46875000000000    0.09375000000000            48
   -0.40625000000000   -0.40625000000000    0.09375000000000            24
   -0.34375000000000   -0.40625000000000    0.09375000000000            24
    0.15625000000000    0.15625000000000    0.15625000000000             8
    0.21875000000000    0.15625000000000    0.15625000000000            24
    0.28125000000000    0.15625000000000    0.15625000000000            24
    0.34375000000000    0.15625000000000    0.15625000000000            12
   -0.15625000000000    0.15625000000000    0.15625000000000             6
    0.21875000000000    0.21875000000000    0.15625000000000            24
    0.28125000000000    0.21875000000000    0.15625000000000            48
   -0.21875000000000    0.21875000000000    0.15625000000000            24
    0.28125000000000    0.28125000000000    0.15625000000000             8
   -0.28125000000000    0.28125000000000    0.15625000000000            24
   -0.21875000000000    0.28125000000000    0.15625000000000            24
   -0.34375000000000    0.34375000000000    0.15625000000000            24
   -0.28125000000000    0.34375000000000    0.15625000000000            48
   -0.40625000000000    0.40625000000000    0.15625000000000            24
   -0.34375000000000    0.40625000000000    0.15625000000000            48
   -0.28125000000000    0.40625000000000    0.15625000000000            24
   -0.46875000000000    0.46875000000000    0.15625000000000            24
   -0.40625000000000    0.46875000000000    0.15625000000000            48
   -0.34375000000000    0.46875000000000    0.15625000000000            48
   -0.46875000000000   -0.46875000000000    0.15625000000000            24
   -0.40625000000000   -0.46875000000000    0.15625000000000            48
   -0.34375000000000   -0.46875000000000    0.15625000000000            24
   -0.40625000000000   -0.40625000000000    0.15625000000000            24
    0.21875000000000    0.21875000000000    0.21875000000000             8
    0.28125000000000    0.21875000000000    0.21875000000000            12
   -0.21875000000000    0.21875000000000    0.21875000000000             6
   -0.28125000000000    0.28125000000000    0.21875000000000            24
   -0.34375000000000    0.34375000000000    0.21875000000000            24
   -0.28125000000000    0.34375000000000    0.21875000000000            24
   -0.40625000000000    0.40625000000000    0.21875000000000            24
   -0.34375000000000    0.40625000000000    0.21875000000000            48
   -0.46875000000000    0.46875000000000    0.21875000000000            24
   -0.40625000000000    0.46875000000000    0.21875000000000            48
   -0.34375000000000    0.46875000000000    0.21875000000000            24
   -0.46875000000000   -0.46875000000000    0.21875000000000            24
   -0.40625000000000   -0.46875000000000    0.21875000000000            48
   -0.40625000000000   -0.40625000000000    0.21875000000000             8
   -0.28125000000000    0.28125000000000    0.28125000000000             6
   -0.34375000000000    0.34375000000000    0.28125000000000            24
   -0.40625000000000    0.40625000000000    0.28125000000000            24
   -0.34375000000000    0.40625000000000    0.28125000000000            24
   -0.46875000000000    0.46875000000000    0.28125000000000            24
   -0.40625000000000    0.46875000000000    0.28125000000000            48
   -0.46875000000000   -0.46875000000000    0.28125000000000            24
   -0.40625000000000   -0.46875000000000    0.28125000000000            24
   -0.34375000000000    0.34375000000000    0.34375000000000             6
   -0.40625000000000    0.40625000000000    0.34375000000000            24
   -0.46875000000000    0.46875000000000    0.34375000000000            24
   -0.40625000000000    0.46875000000000    0.34375000000000            24
   -0.46875000000000   -0.46875000000000    0.34375000000000            24
   -0.40625000000000    0.40625000000000    0.40625000000000             6
   -0.46875000000000    0.46875000000000    0.40625000000000            24
   -0.46875000000000   -0.46875000000000    0.40625000000000             8
   -0.46875000000000    0.46875000000000    0.46875000000000             6
