       N       E                     dE             d eps       ncg     rms          rms(c)
DAV:   1     0.100213959933E+02    0.10021E+02   -0.19578E+03  3480   0.548E+02
DAV:   2    -0.120950576489E+01   -0.11231E+02   -0.97286E+01  5964   0.741E+01
DAV:   3    -0.130579935530E+01   -0.96294E-01   -0.86040E-01  3504   0.867E+00
DAV:   4    -0.130676918374E+01   -0.96983E-03   -0.96983E-03  4386   0.406E-01
DAV:   5    -0.130677493396E+01   -0.57502E-05   -0.57508E-05  3072   0.253E-02    0.763E+00
DAV:   6    -0.116967397247E+02   -0.10390E+02   -0.34299E+00  3522   0.904E+00    0.387E+00
DAV:   7    -0.117697961965E+02   -0.73056E-01   -0.23294E-02  3804   0.137E+00    0.343E+00
DAV:   8    -0.116489279877E+02    0.12087E+00   -0.32735E-01  3672   0.471E+00    0.300E+00
DAV:   9    -0.118300642281E+02   -0.18114E+00   -0.14864E-01  3732   0.334E+00    0.846E-01
DAV:  10    -0.118599532812E+02   -0.29889E-01   -0.66205E-03  3852   0.661E-01    0.323E-01
DAV:  11    -0.118620909473E+02   -0.21377E-02   -0.54521E-03  3672   0.536E-01    0.887E-02
DAV:  12    -0.118616701400E+02    0.42081E-03   -0.11481E-03  3492   0.337E-01    0.107E-01
DAV:  13    -0.118620406012E+02   -0.37046E-03   -0.12979E-04  2034   0.123E-01    0.651E-02
DAV:  14    -0.118622182615E+02   -0.17766E-03   -0.76001E-05  1764   0.665E-02    0.308E-02
DAV:  15    -0.118622336670E+02   -0.15405E-04   -0.41036E-06  1692   0.172E-02
   1 F= -.11862234E+02 E0= -.11862158E+02  d E =-.226468E-03  mag=    -0.0009
