       N       E                     dE             d eps       ncg     rms          rms(c)
DAV:   1    -0.398338962726E+01   -0.39834E+01   -0.14741E+03  1716   0.424E+02
DAV:   2    -0.123182930872E+02   -0.83349E+01   -0.78878E+01  2970   0.672E+01
DAV:   3    -0.123557466484E+02   -0.37454E-01   -0.37436E-01  1734   0.630E+00
DAV:   4    -0.123558211126E+02   -0.74464E-04   -0.74465E-04  2262   0.206E-01
DAV:   5    -0.123558212835E+02   -0.17093E-06   -0.17070E-06  1464   0.756E-03    0.325E+00
DAV:   6    -0.120171697452E+02    0.33865E+00   -0.20771E-01  1926   0.341E+00    0.177E+00
DAV:   7    -0.118629655354E+02    0.15420E+00   -0.33458E-01  1944   0.419E+00    0.212E-01
DAV:   8    -0.118631373157E+02   -0.17178E-03   -0.51021E-04  1848   0.261E-01    0.229E-01
DAV:   9    -0.118623145133E+02    0.82280E-03   -0.39872E-03  1728   0.476E-01    0.594E-02
DAV:  10    -0.118622707873E+02    0.43726E-04   -0.57335E-05  1044   0.563E-02
   1 F= -.11862271E+02 E0= -.11862186E+02  d E =-.255400E-03
