 vasp.5.2.12 11Nov11 complex                                                    
  
 executed on             LinuxIFC date 2012.10.17  10:14:54
 running on    1 nodes
 distr:  one band on    1 nodes,    1 groups


--------------------------------------------------------------------------------------------------------


 INCAR:
 POTCAR:    PAW_PBE Ta 17Jan2003                  
 POTCAR:    PAW_PBE Ta 17Jan2003                  
   VRHFIN =Ta:  6s5d                                                            
   LEXCH  = PE                                                                  
   EATOM  =   130.6506 eV,    9.6025 Ry                                         
                                                                                
   TITEL  = PAW_PBE Ta 17Jan2003                                                
   LULTRA =        F    use ultrasoft PP ?                                      
   IUNSCR =        1    unscreen: 0-lin 1-nonlin 2-no                           
   RPACOR =    2.330    partial core radius                                     
   POMASS =  180.948; ZVAL   =    5.000    mass and valenz                      
   RCORE  =    2.900    outmost cutoff radius                                   
   RWIGS  =    2.840; RWIGS  =    1.503    wigner-seitz radius (au A)           
   ENMAX  =  223.667; ENMIN  =  167.750 eV                                      
   RCLOC  =    2.205    cutoff for local pot                                    
   LCOR   =        T    correct aug charges                                     
   LPAW   =        T    paw PP                                                  
   EAUG   =  332.075                                                            
   DEXC   =    -.049                                                            
   RMAX   =    3.083    core radius for proj-oper                               
   RAUG   =    1.300    factor for augmentation sphere                          
   RDEP   =    3.060    radius for radial grids                                 
   QCUT   =   -4.055; QGAM   =    8.109    optimization parameters              
                                                                                
   Description                                                                  
     l     E      TYP  RCUT    TYP  RCUT                                        
     2   .000     23  2.500                                                     
     2   .000     23  2.500                                                     
     0   .000     23  2.500                                                     
     0   .000     23  2.500                                                     
     1   .000     23  2.900                                                     
     1  2.000     23  2.900                                                     
     3   .000      7   .000                                                     
  local pseudopotential read in
  partial core-charges read in
  atomic valenz-charges read in
  non local Contribution for L=           2  read in
    real space projection operators read in
  non local Contribution for L=           2  read in
    real space projection operators read in
  non local Contribution for L=           0  read in
    real space projection operators read in
  non local Contribution for L=           0  read in
    real space projection operators read in
  non local Contribution for L=           1  read in
    real space projection operators read in
  non local Contribution for L=           1  read in
    real space projection operators read in
    PAW grid and wavefunctions read in
 
   number of l-projection  operators is LMAX  =           6
   number of lm-projection operators is LMMAX =          18
 
  PAW_PBE Ta 17Jan2003                  :
 energy of atom  1       EATOM= -130.6506
 kinetic energy error for atom=    0.0044 (will be added to EATOM!!)
 
 
 POSCAR: Ta                                      
  positions in cartesian coordinates
  No initial velocities read in
 exchange correlation table for  LEXCH =        8
   RHO(1)=    0.500       N(1)  =     2000
   RHO(2)=  100.500       N(2)  =     4000
 


--------------------------------------------------------------------------------------------------------


 ion  position               nearest neighbor table
   1  0.000  0.000  0.000-
 
  LATTYP: Found a body centered cubic cell.
 ALAT       =     3.3100000000
  
  Lattice vectors:
  
 A1 = (   2.8665440865,   0.0000000000,   0.0000000000)
 A2 = (  -0.9555146955,   2.7026036829,   0.0000000000)
 A3 = (  -0.9555146955,  -1.3513018414,   2.3405234457)
 Subroutine PRICEL returns:
 Original cell was already a primitive cell.
 

Analysis of symmetry for initial positions (statically):

 Routine SETGRP: Setting up the symmetry group for a 
 body centered cubic supercell.


 Subroutine GETGRP returns: Found 48 space group operations
 (whereof 48 operations were pure point group operations)
 out of a pool of 48 trial point group operations.


The static configuration has the point symmetry O_h .

Analysis of symmetry for dynamics (positions and initial velocities):

 Subroutine DYNSYM returns: Found 48 space group operations
 (whereof 48 operations were pure point group operations)
 out of a pool of 48 trial space group operations
 (whereof 48 operations were pure point group operations)
 and found also     1 'primitive' translations


The dynamic configuration has the point symmetry O_h .

Analysis of magnetic symmetry:

 Subroutine MAGSYM returns: Found 48 space group operations
 (whereof 48 operations were pure point group operations)
 out of a pool of 48 trial space group operations
 (whereof 48 operations were pure point group operations)
 and found also     1 'primitive' translations


The magnetic configuration has the point symmetry O_h .
 
 
 KPOINTS: KPOINTS created by Atomic Simulation Env

Automatic generation of k-mesh.
 
 Subroutine IBZKPT returns following result:
 ===========================================
 
 Found    140 irreducible k-points:
 
 Following reciprocal coordinates:
            Coordinates               Weight
  0.031250  0.031250  0.031250      8.000000
  0.093750  0.031250  0.031250     24.000000
  0.156250  0.031250  0.031250     24.000000
  0.218750  0.031250  0.031250     24.000000
  0.281250  0.031250  0.031250     24.000000
  0.343750  0.031250  0.031250     24.000000
  0.406250  0.031250  0.031250     24.000000
  0.468750  0.031250  0.031250     12.000000
 -0.031250  0.031250  0.031250      6.000000
  0.093750  0.093750  0.031250     24.000000
  0.156250  0.093750  0.031250     48.000000
  0.218750  0.093750  0.031250     48.000000
  0.281250  0.093750  0.031250     48.000000
  0.343750  0.093750  0.031250     48.000000
  0.406250  0.093750  0.031250     48.000000
 -0.093750  0.093750  0.031250     24.000000
  0.156250  0.156250  0.031250     24.000000
  0.218750  0.156250  0.031250     48.000000
  0.281250  0.156250  0.031250     48.000000
  0.343750  0.156250  0.031250     48.000000
  0.406250  0.156250  0.031250     24.000000
 -0.156250  0.156250  0.031250     24.000000
 -0.093750  0.156250  0.031250     24.000000
  0.218750  0.218750  0.031250     24.000000
  0.281250  0.218750  0.031250     48.000000
  0.343750  0.218750  0.031250     48.000000
 -0.218750  0.218750  0.031250     24.000000
 -0.156250  0.218750  0.031250     48.000000
  0.281250  0.281250  0.031250     24.000000
  0.343750  0.281250  0.031250     24.000000
 -0.281250  0.281250  0.031250     24.000000
 -0.218750  0.281250  0.031250     48.000000
 -0.156250  0.281250  0.031250     24.000000
 -0.343750  0.343750  0.031250     24.000000
 -0.281250  0.343750  0.031250     48.000000
 -0.218750  0.343750  0.031250     48.000000
 -0.406250  0.406250  0.031250     24.000000
 -0.343750  0.406250  0.031250     48.000000
 -0.281250  0.406250  0.031250     48.000000
 -0.218750  0.406250  0.031250     24.000000
 -0.468750  0.468750  0.031250     24.000000
 -0.406250  0.468750  0.031250     48.000000
 -0.343750  0.468750  0.031250     48.000000
 -0.281250  0.468750  0.031250     48.000000
 -0.468750 -0.468750  0.031250     24.000000
 -0.406250 -0.468750  0.031250     48.000000
 -0.343750 -0.468750  0.031250     48.000000
 -0.281250 -0.468750  0.031250     24.000000
 -0.406250 -0.406250  0.031250     24.000000
 -0.343750 -0.406250  0.031250     48.000000
 -0.343750 -0.343750  0.031250      8.000000
  0.093750  0.093750  0.093750      8.000000
  0.156250  0.093750  0.093750     24.000000
  0.218750  0.093750  0.093750     24.000000
  0.281250  0.093750  0.093750     24.000000
  0.343750  0.093750  0.093750     24.000000
  0.406250  0.093750  0.093750     12.000000
 -0.093750  0.093750  0.093750      6.000000
  0.156250  0.156250  0.093750     24.000000
  0.218750  0.156250  0.093750     48.000000
  0.281250  0.156250  0.093750     48.000000
  0.343750  0.156250  0.093750     48.000000
 -0.156250  0.156250  0.093750     24.000000
  0.218750  0.218750  0.093750     24.000000
  0.281250  0.218750  0.093750     48.000000
  0.343750  0.218750  0.093750     24.000000
 -0.218750  0.218750  0.093750     24.000000
 -0.156250  0.218750  0.093750     24.000000
  0.281250  0.281250  0.093750     24.000000
 -0.281250  0.281250  0.093750     24.000000
 -0.218750  0.281250  0.093750     48.000000
 -0.343750  0.343750  0.093750     24.000000
 -0.281250  0.343750  0.093750     48.000000
 -0.218750  0.343750  0.093750     24.000000
 -0.406250  0.406250  0.093750     24.000000
 -0.343750  0.406250  0.093750     48.000000
 -0.281250  0.406250  0.093750     48.000000
 -0.468750  0.468750  0.093750     24.000000
 -0.406250  0.468750  0.093750     48.000000
 -0.343750  0.468750  0.093750     48.000000
 -0.281250  0.468750  0.093750     24.000000
 -0.468750 -0.468750  0.093750     24.000000
 -0.406250 -0.468750  0.093750     48.000000
 -0.343750 -0.468750  0.093750     48.000000
 -0.406250 -0.406250  0.093750     24.000000
 -0.343750 -0.406250  0.093750     24.000000
  0.156250  0.156250  0.156250      8.000000
  0.218750  0.156250  0.156250     24.000000
  0.281250  0.156250  0.156250     24.000000
  0.343750  0.156250  0.156250     12.000000
 -0.156250  0.156250  0.156250      6.000000
  0.218750  0.218750  0.156250     24.000000
  0.281250  0.218750  0.156250     48.000000
 -0.218750  0.218750  0.156250     24.000000
  0.281250  0.281250  0.156250      8.000000
 -0.281250  0.281250  0.156250     24.000000
 -0.218750  0.281250  0.156250     24.000000
 -0.343750  0.343750  0.156250     24.000000
 -0.281250  0.343750  0.156250     48.000000
 -0.406250  0.406250  0.156250     24.000000
 -0.343750  0.406250  0.156250     48.000000
 -0.281250  0.406250  0.156250     24.000000
 -0.468750  0.468750  0.156250     24.000000
 -0.406250  0.468750  0.156250     48.000000
 -0.343750  0.468750  0.156250     48.000000
 -0.468750 -0.468750  0.156250     24.000000
 -0.406250 -0.468750  0.156250     48.000000
 -0.343750 -0.468750  0.156250     24.000000
 -0.406250 -0.406250  0.156250     24.000000
  0.218750  0.218750  0.218750      8.000000
  0.281250  0.218750  0.218750     12.000000
 -0.218750  0.218750  0.218750      6.000000
 -0.281250  0.281250  0.218750     24.000000
 -0.343750  0.343750  0.218750     24.000000
 -0.281250  0.343750  0.218750     24.000000
 -0.406250  0.406250  0.218750     24.000000
 -0.343750  0.406250  0.218750     48.000000
 -0.468750  0.468750  0.218750     24.000000
 -0.406250  0.468750  0.218750     48.000000
 -0.343750  0.468750  0.218750     24.000000
 -0.468750 -0.468750  0.218750     24.000000
 -0.406250 -0.468750  0.218750     48.000000
 -0.406250 -0.406250  0.218750      8.000000
 -0.281250  0.281250  0.281250      6.000000
 -0.343750  0.343750  0.281250     24.000000
 -0.406250  0.406250  0.281250     24.000000
 -0.343750  0.406250  0.281250     24.000000
 -0.468750  0.468750  0.281250     24.000000
 -0.406250  0.468750  0.281250     48.000000
 -0.468750 -0.468750  0.281250     24.000000
 -0.406250 -0.468750  0.281250     24.000000
 -0.343750  0.343750  0.343750      6.000000
 -0.406250  0.406250  0.343750     24.000000
 -0.468750  0.468750  0.343750     24.000000
 -0.406250  0.468750  0.343750     24.000000
 -0.468750 -0.468750  0.343750     24.000000
 -0.406250  0.406250  0.406250      6.000000
 -0.468750  0.468750  0.406250     24.000000
 -0.468750 -0.468750  0.406250      8.000000
 -0.468750  0.468750  0.468750      6.000000
 
 Following cartesian coordinates:
            Coordinates               Weight
  0.010902  0.015417  0.026703      8.000000
  0.032705  0.023126  0.040055     24.000000
  0.054508  0.030834  0.053407     24.000000
  0.076311  0.038543  0.066759     24.000000
  0.098115  0.046252  0.080110     24.000000
  0.119918  0.053960  0.093462     24.000000
  0.141721  0.061669  0.106814     24.000000
  0.163524  0.069378  0.120165     12.000000
 -0.010902  0.007709  0.013352      6.000000
  0.032705  0.046252  0.053407     24.000000
  0.054508  0.053960  0.066759     48.000000
  0.076311  0.061669  0.080110     48.000000
  0.098115  0.069378  0.093462     48.000000
  0.119918  0.077086  0.106814     48.000000
  0.141721  0.084795  0.120165     48.000000
 -0.032705  0.023126  0.013352     24.000000
  0.054508  0.077086  0.080110     24.000000
  0.076311  0.084795  0.093462     48.000000
  0.098115  0.092503  0.106814     48.000000
  0.119918  0.100212  0.120165     48.000000
  0.141721  0.107921  0.133517     24.000000
 -0.054508  0.038543  0.013352     24.000000
 -0.032705  0.046252  0.026703     24.000000
  0.076311  0.107921  0.106814     24.000000
  0.098115  0.115629  0.120165     48.000000
  0.119918  0.123338  0.133517     48.000000
 -0.076311  0.053960  0.013352     24.000000
 -0.054508  0.061669  0.026703     48.000000
  0.098115  0.138755  0.133517     24.000000
  0.119918  0.146464  0.146869     24.000000
 -0.098115  0.069378  0.013352     24.000000
 -0.076311  0.077086  0.026703     48.000000
 -0.054508  0.084795  0.040055     24.000000
 -0.119918  0.084795  0.013352     24.000000
 -0.098115  0.092503  0.026703     48.000000
 -0.076311  0.100212  0.040055     48.000000
 -0.141721  0.100212  0.013352     24.000000
 -0.119918  0.107921  0.026703     48.000000
 -0.098115  0.115629  0.040055     48.000000
 -0.076311  0.123338  0.053407     24.000000
 -0.163524  0.115629  0.013352     24.000000
 -0.141721  0.123338  0.026703     48.000000
 -0.119918  0.131046  0.040055     48.000000
 -0.098115  0.138755  0.053407     48.000000
 -0.163524 -0.231258 -0.186924     24.000000
 -0.141721 -0.223550 -0.173572     48.000000
 -0.119918 -0.215841 -0.160221     48.000000
 -0.098115 -0.208133 -0.146869     24.000000
 -0.141721 -0.200424 -0.160221     24.000000
 -0.119918 -0.192715 -0.146869     48.000000
 -0.119918 -0.169590 -0.133517      8.000000
  0.032705  0.046252  0.080110      8.000000
  0.054508  0.053960  0.093462     24.000000
  0.076311  0.061669  0.106814     24.000000
  0.098115  0.069378  0.120165     24.000000
  0.119918  0.077086  0.133517     24.000000
  0.141721  0.084795  0.146869     12.000000
 -0.032705  0.023126  0.040055      6.000000
  0.054508  0.077086  0.106814     24.000000
  0.076311  0.084795  0.120165     48.000000
  0.098115  0.092503  0.133517     48.000000
  0.119918  0.100212  0.146869     48.000000
 -0.054508  0.038543  0.040055     24.000000
  0.076311  0.107921  0.133517     24.000000
  0.098115  0.115629  0.146869     48.000000
  0.119918  0.123338  0.160221     24.000000
 -0.076311  0.053960  0.040055     24.000000
 -0.054508  0.061669  0.053407     24.000000
  0.098115  0.138755  0.160221     24.000000
 -0.098115  0.069378  0.040055     24.000000
 -0.076311  0.077086  0.053407     48.000000
 -0.119918  0.084795  0.040055     24.000000
 -0.098115  0.092503  0.053407     48.000000
 -0.076311  0.100212  0.066759     24.000000
 -0.141721  0.100212  0.040055     24.000000
 -0.119918  0.107921  0.053407     48.000000
 -0.098115  0.115629  0.066759     48.000000
 -0.163524  0.115629  0.040055     24.000000
 -0.141721  0.123338  0.053407     48.000000
 -0.119918  0.131046  0.066759     48.000000
 -0.098115  0.138755  0.080110     24.000000
 -0.163524 -0.231258 -0.160221     24.000000
 -0.141721 -0.223550 -0.146869     48.000000
 -0.119918 -0.215841 -0.133517     48.000000
 -0.141721 -0.200424 -0.133517     24.000000
 -0.119918 -0.192715 -0.120165     24.000000
  0.054508  0.077086  0.133517      8.000000
  0.076311  0.084795  0.146869     24.000000
  0.098115  0.092503  0.160221     24.000000
  0.119918  0.100212  0.173572     12.000000
 -0.054508  0.038543  0.066759      6.000000
  0.076311  0.107921  0.160221     24.000000
  0.098115  0.115629  0.173572     48.000000
 -0.076311  0.053960  0.066759     24.000000
  0.098115  0.138755  0.186924      8.000000
 -0.098115  0.069378  0.066759     24.000000
 -0.076311  0.077086  0.080110     24.000000
 -0.119918  0.084795  0.066759     24.000000
 -0.098115  0.092503  0.080110     48.000000
 -0.141721  0.100212  0.066759     24.000000
 -0.119918  0.107921  0.080110     48.000000
 -0.098115  0.115629  0.093462     24.000000
 -0.163524  0.115629  0.066759     24.000000
 -0.141721  0.123338  0.080110     48.000000
 -0.119918  0.131046  0.093462     48.000000
 -0.163524 -0.231258 -0.133517     24.000000
 -0.141721 -0.223550 -0.120165     48.000000
 -0.119918 -0.215841 -0.106814     24.000000
 -0.141721 -0.200424 -0.106814     24.000000
  0.076311  0.107921  0.186924      8.000000
  0.098115  0.115629  0.200276     12.000000
 -0.076311  0.053960  0.093462      6.000000
 -0.098115  0.069378  0.093462     24.000000
 -0.119918  0.084795  0.093462     24.000000
 -0.098115  0.092503  0.106814     24.000000
 -0.141721  0.100212  0.093462     24.000000
 -0.119918  0.107921  0.106814     48.000000
 -0.163524  0.115629  0.093462     24.000000
 -0.141721  0.123338  0.106814     48.000000
 -0.119918  0.131046  0.120165     24.000000
 -0.163524 -0.231258 -0.106814     24.000000
 -0.141721 -0.223550 -0.093462     48.000000
 -0.141721 -0.200424 -0.080110      8.000000
 -0.098115  0.069378  0.120165      6.000000
 -0.119918  0.084795  0.120165     24.000000
 -0.141721  0.100212  0.120165     24.000000
 -0.119918  0.107921  0.133517     24.000000
 -0.163524  0.115629  0.120165     24.000000
 -0.141721  0.123338  0.133517     48.000000
 -0.163524 -0.231258 -0.080110     24.000000
 -0.141721 -0.223550 -0.066759     24.000000
 -0.119918  0.084795  0.146869      6.000000
 -0.141721  0.100212  0.146869     24.000000
 -0.163524  0.115629  0.146869     24.000000
 -0.141721  0.123338  0.160221     24.000000
 -0.163524 -0.231258 -0.053407     24.000000
 -0.141721  0.100212  0.173572      6.000000
 -0.163524  0.115629  0.173572     24.000000
 -0.163524 -0.231258 -0.026703      8.000000
 -0.163524  0.115629  0.200276      6.000000
 


--------------------------------------------------------------------------------------------------------




 Dimension of arrays:
   k-points           NKPTS =    140   k-points in BZ     NKDIM =    140   number of bands    NBANDS=      6
   number of dos      NEDOS =    301   number of ions     NIONS =      1
   non local maximal  LDIM  =      6   non local SUM 2l+1 LMDIM =     18
   total plane-waves  NPLWV =   5832
   max r-space proj   IRMAX =      1   max aug-charges    IRDMAX=  22091
   dimension x,y,z NGX =    18 NGY =   18 NGZ =   18
   dimension x,y,z NGXF=    36 NGYF=   36 NGZF=   36
   support grid    NGXF=    36 NGYF=   36 NGZF=   36
   ions per type =               1
 NGX,Y,Z   is equivalent  to a cutoff of  10.44, 10.44, 10.44 a.u.
 NGXF,Y,Z  is equivalent  to a cutoff of  20.88, 20.88, 20.88 a.u.


 I would recommend the setting:
   dimension x,y,z NGX =    17 NGY =   17 NGZ =   17
 SYSTEM =  unknown system                          
 POSCAR =  Ta                                      

 Startparameter for this run:
   NWRITE =      2    write-flag & timer
   PREC   = accura    normal or accurate (medium, high low for compatibility)
   ISTART =      0    job   : 0-new  1-cont  2-samecut
   ICHARG =      2    charge: 1-file 2-atom 10-const
   ISPIN  =      2    spin polarized calculation?
   LNONCOLLINEAR =      F non collinear calculations
   LSORBIT =      F    spin-orbit coupling
   INIWAV =      1    electr: 0-lowe 1-rand  2-diag
   LASPH  =      F    aspherical Exc in radial PAW
   METAGGA=      F    non-selfconsistent MetaGGA calc.

 Electronic Relaxation 1
   ENCUT  =  350.0 eV  25.72 Ry    5.07 a.u.   4.37  4.37  4.37*2*pi/ulx,y,z
   ENINI  =  350.0     initial cutoff
   ENAUG  =  332.1 eV  augmentation charge cutoff
   NELM   =     60;   NELMIN=  2; NELMDL= -5     # of ELM steps 
   EDIFF  = 0.1E-03   stopping-criterion for ELM
   LREAL  =      F    real-space projection
   NLSPLINE    = F    spline interpolate recip. space projectors
   LCOMPAT=      F    compatible to vasp.4.4
   GGA_COMPAT  = T    GGA compatible to vasp.4.4-vasp.4.6
   LMAXPAW     = -100 max onsite density
   LMAXMIX     =    2 max onsite mixed and CHGCAR
   VOSKOWN=      0    Vosko Wilk Nusair interpolation
   ROPT   =    0.00000
 Ionic relaxation
   EDIFFG = 0.1E-02   stopping-criterion for IOM
   NSW    =      0    number of steps for IOM
   NBLOCK =      1;   KBLOCK =      1    inner block; outer block 
   IBRION =     -1    ionic relax: 0-MD 1-quasi-New 2-CG
   NFREE  =      0    steps in history (QN), initial steepest desc. (CG)
   ISIF   =      2    stress and relaxation
   IWAVPR =     10    prediction:  0-non 1-charg 2-wave 3-comb
   ISYM   =      2    0-nonsym 1-usesym 2-fastsym
   LCORR  =      T    Harris-Foulkes like correction to forces

   POTIM  = 0.5000    time-step for ionic-motion
   TEIN   =    0.0    initial temperature
   TEBEG  =    0.0;   TEEND  =   0.0 temperature during run
   SMASS  =  -3.00    Nose mass-parameter (am)
   estimated Nose-frequenzy (Omega)   =  0.10E-29 period in steps =****** mass=  -0.188E-27a.u.
   SCALEE = 1.0000    scale energy and forces
   NPACO  =    256;   APACO  = 16.0  distance and # of slots for P.C.
   PSTRESS=    0.0 pullay stress

  Mass of Ions in am
   POMASS = 180.95
  Ionic Valenz
   ZVAL   =   5.00
  Atomic Wigner-Seitz radii
   RWIGS  =  -1.00
  virtual crystal weights 
   VCA    =   1.00
   NELECT =       5.0000    total number of electrons
   NUPDOWN=      -1.0000    fix difference up-down

 DOS related values:
   EMIN   =  10.00;   EMAX   =-10.00  energy-range for DOS
   EFERMI =   0.00
   ISMEAR =     1;   SIGMA  =   0.05  broadening in eV -4-tet -1-fermi 0-gaus

 Electronic relaxation 2 (details)
   IALGO  =     38    algorithm
   LDIAG  =      T    sub-space diagonalisation (order eigenvalues)
   LSUBROT=      T    optimize rotation matrix (better conditioning)
   TURBO    =      0    0=normal 1=particle mesh
   IRESTART =      0    0=no restart 2=restart with 2 vectors
   NREBOOT  =      0    no. of reboots
   NMIN     =      0    reboot dimension
   EREF     =   0.00    reference energy to select bands
   IMIX   =      4    mixing-type and parameters
     AMIX     =   0.40;   BMIX     =  1.00
     AMIX_MAG =   1.60;   BMIX_MAG =  1.00
     AMIN     =   0.10
     WC   =   100.;   INIMIX=   1;  MIXPRE=   1

 Intra band minimization:
   WEIMIN = 0.0000     energy-eigenvalue tresh-hold
   EBREAK =  0.42E-05  absolut break condition
   DEPER  =   0.30     relativ break condition  

   TIME   =   0.40     timestep for ELM

  volume/ion in A,a.u.               =      18.13       122.36
  Fermi-wavevector in a.u.,A,eV,Ry     =   1.065566  2.013627 15.448462  1.135430
  Thomas-Fermi vector in A             =   2.201121
 
 Write flags
   LWAVE  =      T    write WAVECAR
   LCHARG =      T    write CHGCAR
   LVTOT  =      F    write LOCPOT, total local potential
   LVHAR  =      F    write LOCPOT, Hartree potential only
   LELF   =      F    write electronic localiz. function (ELF)
   LORBIT =     11    0 simple, 1 ext, 2 COOP (PROOUT)


 Dipole corrections
   LMONO  =      F    monopole corrections only (constant potential shift)
   LDIPOL =      F    correct potential (dipole corrections)
   IDIPOL =      0    1-x, 2-y, 3-z, 4-all directions 
   EPSILON=  1.0000000 bulk dielectric constant

 Exchange correlation treatment:
   GGA     =    --    GGA type
   LEXCH   =     8    internal setting for exchange type
   VOSKOWN=      0    Vosko Wilk Nusair interpolation
   LHFCALC =     F    Hartree Fock is set to
   LHFONE  =     F    Hartree Fock one center treatment
   AEXX    =    0.0000 exact exchange contribution

 Linear response parameters
   LEPSILON=     F    determine dielectric tensor
   LRPA    =     F    only Hartree local field effects (RPA)
   LNABLA  =     F    use nabla operator in PAW spheres
   LVEL    =     F    velocity operator in full k-point grid
   LINTERFAST=   F  fast interpolation
   KINTER  =     0    interpolate to denser k-point grid
   CSHIFT  =0.1000    complex shift for real part using Kramers Kronig
   OMEGAMAX=  -1.0    maximum frequency
   RTIME   =    0.100 relaxation time in fs

 Orbital magnetization related:
   ORBITALMAG=     F  switch on orbital magnetization
   LCHIMAG   =     F  perturbation theory with respect to B field
   DQ        =  0.001000  dq finite difference perturbation B field



--------------------------------------------------------------------------------------------------------


 Static calculation
 charge density and potential will be updated during run
 spin polarized calculation
 Variant of blocked Davidson
 Davidson routine will perform the subspace rotation
 perform sub-space diagonalisation
    after iterative eigenvector-optimisation
 modified Broyden-mixing scheme, WC =      100.0
 initial mixing is a Kerker type mixing with AMIX =  0.4000 and BMIX =      1.0000
 Hartree-type preconditioning will be used
 using additional bands            3
 reciprocal scheme for non local part
 use partial core corrections
 calculate Harris-corrections to forces 
   (improved forces if not selfconsistent)
 use gradient corrections 
 use of overlap-Matrix (Vanderbilt PP)
 Methfessel and Paxton  Order N= 1 SIGMA  =   0.05


--------------------------------------------------------------------------------------------------------


  energy-cutoff  :      350.00
  volume of cell :       18.13
      direct lattice vectors                 reciprocal lattice vectors
     2.866544087  0.000000000  0.000000000     0.348852126  0.123337852  0.213627426
    -0.955514696  2.702603683  0.000000000     0.000000000  0.370013556  0.213627426
    -0.955514696 -1.351301841  2.340523446     0.000000000  0.000000000  0.427254853

  length of vectors
     2.866544087  2.866544087  2.866544087     0.427254853  0.427254853  0.427254853


 
 k-points in units of 2pi/SCALE and weight: KPOINTS created by Atomic Simulation Env
   0.01090163  0.01541723  0.02670343       0.002
   0.03270489  0.02312585  0.04005514       0.006
   0.05450814  0.03083446  0.05340686       0.006
   0.07631140  0.03854308  0.06675857       0.006
   0.09811466  0.04625169  0.08011028       0.006
   0.11991792  0.05396031  0.09346200       0.006
   0.14172118  0.06166893  0.10681371       0.006
   0.16352443  0.06937754  0.12016543       0.003
  -0.01090163  0.00770862  0.01335171       0.001
   0.03270489  0.04625169  0.05340686       0.006
   0.05450814  0.05396031  0.06675857       0.012
   0.07631140  0.06166893  0.08011028       0.012
   0.09811466  0.06937754  0.09346200       0.012
   0.11991792  0.07708616  0.10681371       0.012
   0.14172118  0.08479477  0.12016543       0.012
  -0.03270489  0.02312585  0.01335171       0.006
   0.05450814  0.07708616  0.08011028       0.006
   0.07631140  0.08479477  0.09346200       0.012
   0.09811466  0.09250339  0.10681371       0.012
   0.11991792  0.10021200  0.12016543       0.012
   0.14172118  0.10792062  0.13351714       0.006
  -0.05450814  0.03854308  0.01335171       0.006
  -0.03270489  0.04625169  0.02670343       0.006
   0.07631140  0.10792062  0.10681371       0.006
   0.09811466  0.11562924  0.12016543       0.012
   0.11991792  0.12333785  0.13351714       0.012
  -0.07631140  0.05396031  0.01335171       0.006
  -0.05450814  0.06166893  0.02670343       0.012
   0.09811466  0.13875508  0.13351714       0.006
   0.11991792  0.14646370  0.14686886       0.006
  -0.09811466  0.06937754  0.01335171       0.006
  -0.07631140  0.07708616  0.02670343       0.012
  -0.05450814  0.08479477  0.04005514       0.006
  -0.11991792  0.08479477  0.01335171       0.006
  -0.09811466  0.09250339  0.02670343       0.012
  -0.07631140  0.10021200  0.04005514       0.012
  -0.14172118  0.10021200  0.01335171       0.006
  -0.11991792  0.10792062  0.02670343       0.012
  -0.09811466  0.11562924  0.04005514       0.012
  -0.07631140  0.12333785  0.05340686       0.006
  -0.16352443  0.11562924  0.01335171       0.006
  -0.14172118  0.12333785  0.02670343       0.012
  -0.11991792  0.13104647  0.04005514       0.012
  -0.09811466  0.13875508  0.05340686       0.012
  -0.16352443 -0.23125847 -0.18692400       0.006
  -0.14172118 -0.22354986 -0.17357228       0.012
  -0.11991792 -0.21584124 -0.16022057       0.012
  -0.09811466 -0.20813263 -0.14686886       0.006
  -0.14172118 -0.20042401 -0.16022057       0.006
  -0.11991792 -0.19271539 -0.14686886       0.012
  -0.11991792 -0.16958955 -0.13351714       0.002
   0.03270489  0.04625169  0.08011028       0.002
   0.05450814  0.05396031  0.09346200       0.006
   0.07631140  0.06166893  0.10681371       0.006
   0.09811466  0.06937754  0.12016543       0.006
   0.11991792  0.07708616  0.13351714       0.006
   0.14172118  0.08479477  0.14686886       0.003
  -0.03270489  0.02312585  0.04005514       0.001
   0.05450814  0.07708616  0.10681371       0.006
   0.07631140  0.08479477  0.12016543       0.012
   0.09811466  0.09250339  0.13351714       0.012
   0.11991792  0.10021200  0.14686886       0.012
  -0.05450814  0.03854308  0.04005514       0.006
   0.07631140  0.10792062  0.13351714       0.006
   0.09811466  0.11562924  0.14686886       0.012
   0.11991792  0.12333785  0.16022057       0.006
  -0.07631140  0.05396031  0.04005514       0.006
  -0.05450814  0.06166893  0.05340686       0.006
   0.09811466  0.13875508  0.16022057       0.006
  -0.09811466  0.06937754  0.04005514       0.006
  -0.07631140  0.07708616  0.05340686       0.012
  -0.11991792  0.08479477  0.04005514       0.006
  -0.09811466  0.09250339  0.05340686       0.012
  -0.07631140  0.10021200  0.06675857       0.006
  -0.14172118  0.10021200  0.04005514       0.006
  -0.11991792  0.10792062  0.05340686       0.012
  -0.09811466  0.11562924  0.06675857       0.012
  -0.16352443  0.11562924  0.04005514       0.006
  -0.14172118  0.12333785  0.05340686       0.012
  -0.11991792  0.13104647  0.06675857       0.012
  -0.09811466  0.13875508  0.08011028       0.006
  -0.16352443 -0.23125847 -0.16022057       0.006
  -0.14172118 -0.22354986 -0.14686886       0.012
  -0.11991792 -0.21584124 -0.13351714       0.012
  -0.14172118 -0.20042401 -0.13351714       0.006
  -0.11991792 -0.19271539 -0.12016543       0.006
   0.05450814  0.07708616  0.13351714       0.002
   0.07631140  0.08479477  0.14686886       0.006
   0.09811466  0.09250339  0.16022057       0.006
   0.11991792  0.10021200  0.17357228       0.003
  -0.05450814  0.03854308  0.06675857       0.001
   0.07631140  0.10792062  0.16022057       0.006
   0.09811466  0.11562924  0.17357228       0.012
  -0.07631140  0.05396031  0.06675857       0.006
   0.09811466  0.13875508  0.18692400       0.002
  -0.09811466  0.06937754  0.06675857       0.006
  -0.07631140  0.07708616  0.08011028       0.006
  -0.11991792  0.08479477  0.06675857       0.006
  -0.09811466  0.09250339  0.08011028       0.012
  -0.14172118  0.10021200  0.06675857       0.006
  -0.11991792  0.10792062  0.08011028       0.012
  -0.09811466  0.11562924  0.09346200       0.006
  -0.16352443  0.11562924  0.06675857       0.006
  -0.14172118  0.12333785  0.08011028       0.012
  -0.11991792  0.13104647  0.09346200       0.012
  -0.16352443 -0.23125847 -0.13351714       0.006
  -0.14172118 -0.22354986 -0.12016543       0.012
  -0.11991792 -0.21584124 -0.10681371       0.006
  -0.14172118 -0.20042401 -0.10681371       0.006
   0.07631140  0.10792062  0.18692400       0.002
   0.09811466  0.11562924  0.20027571       0.003
  -0.07631140  0.05396031  0.09346200       0.001
  -0.09811466  0.06937754  0.09346200       0.006
  -0.11991792  0.08479477  0.09346200       0.006
  -0.09811466  0.09250339  0.10681371       0.006
  -0.14172118  0.10021200  0.09346200       0.006
  -0.11991792  0.10792062  0.10681371       0.012
  -0.16352443  0.11562924  0.09346200       0.006
  -0.14172118  0.12333785  0.10681371       0.012
  -0.11991792  0.13104647  0.12016543       0.006
  -0.16352443 -0.23125847 -0.10681371       0.006
  -0.14172118 -0.22354986 -0.09346200       0.012
  -0.14172118 -0.20042401 -0.08011028       0.002
  -0.09811466  0.06937754  0.12016543       0.001
  -0.11991792  0.08479477  0.12016543       0.006
  -0.14172118  0.10021200  0.12016543       0.006
  -0.11991792  0.10792062  0.13351714       0.006
  -0.16352443  0.11562924  0.12016543       0.006
  -0.14172118  0.12333785  0.13351714       0.012
  -0.16352443 -0.23125847 -0.08011028       0.006
  -0.14172118 -0.22354986 -0.06675857       0.006
  -0.11991792  0.08479477  0.14686886       0.001
  -0.14172118  0.10021200  0.14686886       0.006
  -0.16352443  0.11562924  0.14686886       0.006
  -0.14172118  0.12333785  0.16022057       0.006
  -0.16352443 -0.23125847 -0.05340686       0.006
  -0.14172118  0.10021200  0.17357228       0.001
  -0.16352443  0.11562924  0.17357228       0.006
  -0.16352443 -0.23125847 -0.02670343       0.002
  -0.16352443  0.11562924  0.20027571       0.001
 
 k-points in reciprocal lattice and weights: KPOINTS created by Atomic Simulation Env
   0.03125000  0.03125000  0.03125000       0.002
   0.09375000  0.03125000  0.03125000       0.006
   0.15625000  0.03125000  0.03125000       0.006
   0.21875000  0.03125000  0.03125000       0.006
   0.28125000  0.03125000  0.03125000       0.006
   0.34375000  0.03125000  0.03125000       0.006
   0.40625000  0.03125000  0.03125000       0.006
   0.46875000  0.03125000  0.03125000       0.003
  -0.03125000  0.03125000  0.03125000       0.001
   0.09375000  0.09375000  0.03125000       0.006
   0.15625000  0.09375000  0.03125000       0.012
   0.21875000  0.09375000  0.03125000       0.012
   0.28125000  0.09375000  0.03125000       0.012
   0.34375000  0.09375000  0.03125000       0.012
   0.40625000  0.09375000  0.03125000       0.012
  -0.09375000  0.09375000  0.03125000       0.006
   0.15625000  0.15625000  0.03125000       0.006
   0.21875000  0.15625000  0.03125000       0.012
   0.28125000  0.15625000  0.03125000       0.012
   0.34375000  0.15625000  0.03125000       0.012
   0.40625000  0.15625000  0.03125000       0.006
  -0.15625000  0.15625000  0.03125000       0.006
  -0.09375000  0.15625000  0.03125000       0.006
   0.21875000  0.21875000  0.03125000       0.006
   0.28125000  0.21875000  0.03125000       0.012
   0.34375000  0.21875000  0.03125000       0.012
  -0.21875000  0.21875000  0.03125000       0.006
  -0.15625000  0.21875000  0.03125000       0.012
   0.28125000  0.28125000  0.03125000       0.006
   0.34375000  0.28125000  0.03125000       0.006
  -0.28125000  0.28125000  0.03125000       0.006
  -0.21875000  0.28125000  0.03125000       0.012
  -0.15625000  0.28125000  0.03125000       0.006
  -0.34375000  0.34375000  0.03125000       0.006
  -0.28125000  0.34375000  0.03125000       0.012
  -0.21875000  0.34375000  0.03125000       0.012
  -0.40625000  0.40625000  0.03125000       0.006
  -0.34375000  0.40625000  0.03125000       0.012
  -0.28125000  0.40625000  0.03125000       0.012
  -0.21875000  0.40625000  0.03125000       0.006
  -0.46875000  0.46875000  0.03125000       0.006
  -0.40625000  0.46875000  0.03125000       0.012
  -0.34375000  0.46875000  0.03125000       0.012
  -0.28125000  0.46875000  0.03125000       0.012
  -0.46875000 -0.46875000  0.03125000       0.006
  -0.40625000 -0.46875000  0.03125000       0.012
  -0.34375000 -0.46875000  0.03125000       0.012
  -0.28125000 -0.46875000  0.03125000       0.006
  -0.40625000 -0.40625000  0.03125000       0.006
  -0.34375000 -0.40625000  0.03125000       0.012
  -0.34375000 -0.34375000  0.03125000       0.002
   0.09375000  0.09375000  0.09375000       0.002
   0.15625000  0.09375000  0.09375000       0.006
   0.21875000  0.09375000  0.09375000       0.006
   0.28125000  0.09375000  0.09375000       0.006
   0.34375000  0.09375000  0.09375000       0.006
   0.40625000  0.09375000  0.09375000       0.003
  -0.09375000  0.09375000  0.09375000       0.001
   0.15625000  0.15625000  0.09375000       0.006
   0.21875000  0.15625000  0.09375000       0.012
   0.28125000  0.15625000  0.09375000       0.012
   0.34375000  0.15625000  0.09375000       0.012
  -0.15625000  0.15625000  0.09375000       0.006
   0.21875000  0.21875000  0.09375000       0.006
   0.28125000  0.21875000  0.09375000       0.012
   0.34375000  0.21875000  0.09375000       0.006
  -0.21875000  0.21875000  0.09375000       0.006
  -0.15625000  0.21875000  0.09375000       0.006
   0.28125000  0.28125000  0.09375000       0.006
  -0.28125000  0.28125000  0.09375000       0.006
  -0.21875000  0.28125000  0.09375000       0.012
  -0.34375000  0.34375000  0.09375000       0.006
  -0.28125000  0.34375000  0.09375000       0.012
  -0.21875000  0.34375000  0.09375000       0.006
  -0.40625000  0.40625000  0.09375000       0.006
  -0.34375000  0.40625000  0.09375000       0.012
  -0.28125000  0.40625000  0.09375000       0.012
  -0.46875000  0.46875000  0.09375000       0.006
  -0.40625000  0.46875000  0.09375000       0.012
  -0.34375000  0.46875000  0.09375000       0.012
  -0.28125000  0.46875000  0.09375000       0.006
  -0.46875000 -0.46875000  0.09375000       0.006
  -0.40625000 -0.46875000  0.09375000       0.012
  -0.34375000 -0.46875000  0.09375000       0.012
  -0.40625000 -0.40625000  0.09375000       0.006
  -0.34375000 -0.40625000  0.09375000       0.006
   0.15625000  0.15625000  0.15625000       0.002
   0.21875000  0.15625000  0.15625000       0.006
   0.28125000  0.15625000  0.15625000       0.006
   0.34375000  0.15625000  0.15625000       0.003
  -0.15625000  0.15625000  0.15625000       0.001
   0.21875000  0.21875000  0.15625000       0.006
   0.28125000  0.21875000  0.15625000       0.012
  -0.21875000  0.21875000  0.15625000       0.006
   0.28125000  0.28125000  0.15625000       0.002
  -0.28125000  0.28125000  0.15625000       0.006
  -0.21875000  0.28125000  0.15625000       0.006
  -0.34375000  0.34375000  0.15625000       0.006
  -0.28125000  0.34375000  0.15625000       0.012
  -0.40625000  0.40625000  0.15625000       0.006
  -0.34375000  0.40625000  0.15625000       0.012
  -0.28125000  0.40625000  0.15625000       0.006
  -0.46875000  0.46875000  0.15625000       0.006
  -0.40625000  0.46875000  0.15625000       0.012
  -0.34375000  0.46875000  0.15625000       0.012
  -0.46875000 -0.46875000  0.15625000       0.006
  -0.40625000 -0.46875000  0.15625000       0.012
  -0.34375000 -0.46875000  0.15625000       0.006
  -0.40625000 -0.40625000  0.15625000       0.006
   0.21875000  0.21875000  0.21875000       0.002
   0.28125000  0.21875000  0.21875000       0.003
  -0.21875000  0.21875000  0.21875000       0.001
  -0.28125000  0.28125000  0.21875000       0.006
  -0.34375000  0.34375000  0.21875000       0.006
  -0.28125000  0.34375000  0.21875000       0.006
  -0.40625000  0.40625000  0.21875000       0.006
  -0.34375000  0.40625000  0.21875000       0.012
  -0.46875000  0.46875000  0.21875000       0.006
  -0.40625000  0.46875000  0.21875000       0.012
  -0.34375000  0.46875000  0.21875000       0.006
  -0.46875000 -0.46875000  0.21875000       0.006
  -0.40625000 -0.46875000  0.21875000       0.012
  -0.40625000 -0.40625000  0.21875000       0.002
  -0.28125000  0.28125000  0.28125000       0.001
  -0.34375000  0.34375000  0.28125000       0.006
  -0.40625000  0.40625000  0.28125000       0.006
  -0.34375000  0.40625000  0.28125000       0.006
  -0.46875000  0.46875000  0.28125000       0.006
  -0.40625000  0.46875000  0.28125000       0.012
  -0.46875000 -0.46875000  0.28125000       0.006
  -0.40625000 -0.46875000  0.28125000       0.006
  -0.34375000  0.34375000  0.34375000       0.001
  -0.40625000  0.40625000  0.34375000       0.006
  -0.46875000  0.46875000  0.34375000       0.006
  -0.40625000  0.46875000  0.34375000       0.006
  -0.46875000 -0.46875000  0.34375000       0.006
  -0.40625000  0.40625000  0.40625000       0.001
  -0.46875000  0.46875000  0.40625000       0.006
  -0.46875000 -0.46875000  0.40625000       0.002
  -0.46875000  0.46875000  0.46875000       0.001
 
 position of ions in fractional coordinates (direct lattice) 
   0.00000000  0.00000000  0.00000000
 
 position of ions in cartesian coordinates  (Angst):
   0.00000000  0.00000000  0.00000000
 


--------------------------------------------------------------------------------------------------------


 k-point  1 :  0.03120.03120.0312  plane waves:     267
 k-point  2 :  0.09380.03120.0312  plane waves:     270
 k-point  3 :  0.15620.03120.0312  plane waves:     272
 k-point  4 :  0.21880.03120.0312  plane waves:     271
 k-point  5 :  0.28120.03130.0312  plane waves:     269
 k-point  6 :  0.34380.03130.0313  plane waves:     269
 k-point  7 :  0.40620.03130.0312  plane waves:     272
 k-point  8 :  0.46880.03120.0312  plane waves:     272
 k-point  9 :  -.03120.03120.0312  plane waves:     253
 k-point 10 :  0.09380.09380.0312  plane waves:     272
 k-point 11 :  0.15620.09380.0312  plane waves:     274
 k-point 12 :  0.21880.09380.0312  plane waves:     270
 k-point 13 :  0.28120.09380.0313  plane waves:     268
 k-point 14 :  0.34380.09380.0313  plane waves:     270
 k-point 15 :  0.40620.09380.0312  plane waves:     270
 k-point 16 :  -.09380.09380.0312  plane waves:     274
 k-point 17 :  0.15620.15620.0312  plane waves:     271
 k-point 18 :  0.21880.15620.0312  plane waves:     273
 k-point 19 :  0.28120.15620.0312  plane waves:     270
 k-point 20 :  0.34380.15620.0313  plane waves:     271
 k-point 21 :  0.40620.15630.0312  plane waves:     268
 k-point 22 :  -.15620.15620.0312  plane waves:     273
 k-point 23 :  -.09380.15620.0312  plane waves:     268
 k-point 24 :  0.21880.21880.0312  plane waves:     272
 k-point 25 :  0.28120.21880.0312  plane waves:     271
 k-point 26 :  0.34380.21880.0312  plane waves:     270
 k-point 27 :  -.21880.21880.0312  plane waves:     273
 k-point 28 :  -.15620.21880.0312  plane waves:     274
 k-point 29 :  0.28120.28120.0312  plane waves:     270
 k-point 30 :  0.34380.28130.0312  plane waves:     272
 k-point 31 :  -.28120.28120.0312  plane waves:     269
 k-point 32 :  -.21880.28120.0312  plane waves:     271
 k-point 33 :  -.15620.28120.0312  plane waves:     271
 k-point 34 :  -.34380.34370.0312  plane waves:     269
 k-point 35 :  -.28120.34380.0312  plane waves:     269
 k-point 36 :  -.21880.34380.0312  plane waves:     271
 k-point 37 :  -.40620.40620.0312  plane waves:     271
 k-point 38 :  -.34380.40620.0312  plane waves:     270
 k-point 39 :  -.28120.40620.0312  plane waves:     270
 k-point 40 :  -.21880.40620.0312  plane waves:     272
 k-point 41 :  -.46880.46880.0312  plane waves:     272
 k-point 42 :  -.40620.46880.0312  plane waves:     272
 k-point 43 :  -.34380.46880.0312  plane waves:     271
 k-point 44 :  -.28120.46880.0312  plane waves:     275
 k-point 45 :  -.4688-.46880.0312  plane waves:     270
 k-point 46 :  -.4062-.46880.0312  plane waves:     271
 k-point 47 :  -.3438-.46880.0313  plane waves:     273
 k-point 48 :  -.2812-.46880.0313  plane waves:     272
 k-point 49 :  -.4062-.40620.0312  plane waves:     272
 k-point 50 :  -.3438-.40630.0313  plane waves:     274
 k-point 51 :  -.3438-.34380.0313  plane waves:     273
 k-point 52 :  0.09380.09380.0937  plane waves:     270
 k-point 53 :  0.15620.09380.0938  plane waves:     265
 k-point 54 :  0.21880.09380.0937  plane waves:     271
 k-point 55 :  0.28120.09380.0937  plane waves:     273
 k-point 56 :  0.34380.09380.0938  plane waves:     270
 k-point 57 :  0.40620.09380.0937  plane waves:     268
 k-point 58 :  -.09380.09380.0938  plane waves:     265
 k-point 59 :  0.15620.15620.0937  plane waves:     265
 k-point 60 :  0.21880.15620.0938  plane waves:     271
 k-point 61 :  0.28120.15620.0937  plane waves:     272
 k-point 62 :  0.34380.15620.0938  plane waves:     269
 k-point 63 :  -.15620.15620.0937  plane waves:     270
 k-point 64 :  0.21880.21880.0937  plane waves:     273
 k-point 65 :  0.28120.21880.0937  plane waves:     273
 k-point 66 :  0.34380.21880.0938  plane waves:     270
 k-point 67 :  -.21880.21880.0937  plane waves:     271
 k-point 68 :  -.15620.21880.0937  plane waves:     269
 k-point 69 :  0.28120.28120.0938  plane waves:     274
 k-point 70 :  -.28120.28120.0937  plane waves:     271
 k-point 71 :  -.21880.28120.0937  plane waves:     269
 k-point 72 :  -.34380.34370.0937  plane waves:     269
 k-point 73 :  -.28120.34380.0937  plane waves:     272
 k-point 74 :  -.21880.34380.0938  plane waves:     273
 k-point 75 :  -.40620.40620.0937  plane waves:     272
 k-point 76 :  -.34380.40620.0937  plane waves:     271
 k-point 77 :  -.28120.40620.0937  plane waves:     275
 k-point 78 :  -.46880.46880.0937  plane waves:     272
 k-point 79 :  -.40620.46880.0938  plane waves:     273
 k-point 80 :  -.34380.46880.0937  plane waves:     271
 k-point 81 :  -.28120.46880.0937  plane waves:     270
 k-point 82 :  -.4688-.46880.0938  plane waves:     272
 k-point 83 :  -.4062-.46880.0938  plane waves:     271
 k-point 84 :  -.3438-.46880.0938  plane waves:     274
 k-point 85 :  -.4062-.40620.0938  plane waves:     274
 k-point 86 :  -.3438-.40630.0938  plane waves:     276
 k-point 87 :  0.15620.15620.1562  plane waves:     273
 k-point 88 :  0.21880.15620.1562  plane waves:     272
 k-point 89 :  0.28120.15620.1562  plane waves:     273
 k-point 90 :  0.34380.15620.1563  plane waves:     272
 k-point 91 :  -.15620.15620.1562  plane waves:     277
 k-point 92 :  0.21880.21880.1562  plane waves:     273
 k-point 93 :  0.28120.21880.1562  plane waves:     269
 k-point 94 :  -.21880.21880.1562  plane waves:     268
 k-point 95 :  0.28120.28120.1563  plane waves:     270
 k-point 96 :  -.28120.28120.1562  plane waves:     270
 k-point 97 :  -.21880.28120.1562  plane waves:     271
 k-point 98 :  -.34380.34370.1562  plane waves:     269
 k-point 99 :  -.28120.34380.1562  plane waves:     270
 k-point ** :  -.40620.40620.1562  plane waves:     268
 k-point ** :  -.34380.40620.1562  plane waves:     270
 k-point ** :  -.28120.40620.1562  plane waves:     274
 k-point ** :  -.46880.46880.1562  plane waves:     275
 k-point ** :  -.40620.46880.1562  plane waves:     272
 k-point ** :  -.34380.46880.1562  plane waves:     269
 k-point ** :  -.4688-.46880.1562  plane waves:     270
 k-point ** :  -.4062-.46880.1562  plane waves:     270
 k-point ** :  -.3438-.46880.1563  plane waves:     270
 k-point ** :  -.4062-.40620.1562  plane waves:     270
 k-point ** :  0.21880.21880.2188  plane waves:     270
 k-point ** :  0.28120.21880.2187  plane waves:     276
 k-point ** :  -.21880.21880.2187  plane waves:     269
 k-point ** :  -.28120.28120.2187  plane waves:     266
 k-point ** :  -.34380.34370.2187  plane waves:     270
 k-point ** :  -.28120.34380.2187  plane waves:     267
 k-point ** :  -.40620.40620.2187  plane waves:     269
 k-point ** :  -.34380.40620.2187  plane waves:     265
 k-point ** :  -.46880.46880.2187  plane waves:     269
 k-point ** :  -.40620.46880.2187  plane waves:     261
 k-point ** :  -.34380.46880.2187  plane waves:     264
 k-point ** :  -.4688-.46880.2187  plane waves:     263
 k-point ** :  -.4062-.46880.2187  plane waves:     264
 k-point ** :  -.4062-.40620.2187  plane waves:     267
 k-point ** :  -.28120.28120.2812  plane waves:     269
 k-point ** :  -.34380.34370.2812  plane waves:     263
 k-point ** :  -.40620.40620.2812  plane waves:     261
 k-point ** :  -.34380.40620.2812  plane waves:     260
 k-point ** :  -.46880.46880.2812  plane waves:     261
 k-point ** :  -.40620.46880.2812  plane waves:     260
 k-point ** :  -.4688-.46880.2812  plane waves:     261
 k-point ** :  -.4062-.46880.2812  plane waves:     261
 k-point ** :  -.34380.34370.3437  plane waves:     265
 k-point ** :  -.40620.40620.3438  plane waves:     260
 k-point ** :  -.46880.46880.3437  plane waves:     261
 k-point ** :  -.40620.46880.3438  plane waves:     258
 k-point ** :  -.4688-.46880.3438  plane waves:     258
 k-point ** :  -.40620.40620.4062  plane waves:     261
 k-point ** :  -.46880.46880.4062  plane waves:     255
 k-point ** :  -.4688-.46880.4062  plane waves:     257
 k-point ** :  -.46880.46880.4687  plane waves:     261

 maximum and minimum number of plane-waves per node :       277      253

 maximum number of plane-waves:       277
 maximum index in each direction: 
   IXMAX=    4   IYMAX=    4   IZMAX=    4
   IXMIN=   -4   IYMIN=   -4   IZMIN=   -4

 NGX is ok and might be reduce to  18
 NGY is ok and might be reduce to  18
 NGZ is ok and might be reduce to  18

 serial   3D FFT for wavefunctions
 parallel 3D FFT for charge:
    minimum data exchange during FFTs selected (reduces bandwidth)


 total amount of memory used by VASP on root node    49205. kBytes
========================================================================

   base      :      30000. kBytes
   nonl-proj :       5588. kBytes
   fftplans  :       1676. kBytes
   grid      :       3981. kBytes
   one-center:         31. kBytes
   wavefun   :       7929. kBytes
 
 Broyden mixing: mesh for mixing (old mesh)
   NGX =  9   NGY =  9   NGZ =  9
  (NGX  = 36   NGY  = 36   NGZ  = 36)
  gives a total of    729 points

 initial charge density was supplied:
 charge density of overlapping atoms calculated
 number of electron       5.0000000 magnetization       6.0000000
 keeping initial charge density in first step


--------------------------------------------------------------------------------------------------------


 Maximum index for augmentation-charges        21187 (set IRDMAX)


--------------------------------------------------------------------------------------------------------


 First call to EWALD:  gamma=   0.675
 Maximum number of real-space cells 3x 3x 3
 Maximum number of reciprocal cells 3x 3x 3

    FEWALD:  cpu time    0.00: real time    0.00


----------------------------------------- Iteration    1(   1)  ---------------------------------------


    POTLOK:  cpu time    0.14: real time    0.14
    SETDIJ:  cpu time    0.03: real time    0.03
     EDDAV:  cpu time    3.20: real time    3.20
       DOS:  cpu time    0.01: real time    0.01
    --------------------------------------------
      LOOP:  cpu time    3.39: real time    3.40

 eigenvalue-minimisations  :  3480
 total energy-change (2. order) : 0.1002140E+02  (-0.1957783E+03)
 number of electron       5.0000000 magnetization       6.0000000
 augmentation part        5.0000000 magnetization       6.0000000

 Free energy of the ion-electron system (eV)
  ---------------------------------------------------
  alpha Z        PSCENC =        30.58334069
  Ewald energy   TEWEN  =      -197.90100875
  -1/2 Hartree   DENC   =        -2.50452612
  -exchange  EXHF       =         0.00000000
  -V(xc)+E(xc)   XCENC  =       -60.69825643
  PAW double counting   =       143.51874798      -69.33493833
  entropy T*S    EENTRO =         0.00019755
  eigenvalues    EBANDS =        35.71162460
  atomic energy  EATOM  =       130.64621481
  ---------------------------------------------------
  free energy    TOTEN  =        10.02139599 eV

  energy without entropy =       10.02119845  energy(sigma->0) =       10.02133014


--------------------------------------------------------------------------------------------------------




----------------------------------------- Iteration    1(   2)  ---------------------------------------


     EDDAV:  cpu time    4.93: real time    4.93
       DOS:  cpu time    0.01: real time    0.01
    --------------------------------------------
      LOOP:  cpu time    4.94: real time    4.94

 eigenvalue-minimisations  :  5964
 total energy-change (2. order) :-0.1123090E+02  (-0.9728610E+01)
 number of electron       5.0000000 magnetization       6.0000000
 augmentation part        5.0000000 magnetization       6.0000000

 Free energy of the ion-electron system (eV)
  ---------------------------------------------------
  alpha Z        PSCENC =        30.58334069
  Ewald energy   TEWEN  =      -197.90100875
  -1/2 Hartree   DENC   =        -2.50452612
  -exchange  EXHF       =         0.00000000
  -V(xc)+E(xc)   XCENC  =       -60.69825643
  PAW double counting   =       143.51874798      -69.33493833
  entropy T*S    EENTRO =        -0.00003194
  eigenvalues    EBANDS =        24.48095233
  atomic energy  EATOM  =       130.64621481
  ---------------------------------------------------
  free energy    TOTEN  =        -1.20950576 eV

  energy without entropy =       -1.20947383  energy(sigma->0) =       -1.20949512


--------------------------------------------------------------------------------------------------------




----------------------------------------- Iteration    1(   3)  ---------------------------------------


     EDDAV:  cpu time    3.21: real time    3.22
       DOS:  cpu time    0.01: real time    0.01
    --------------------------------------------
      LOOP:  cpu time    3.22: real time    3.34

 eigenvalue-minimisations  :  3504
 total energy-change (2. order) :-0.9629359E-01  (-0.8603984E-01)
 number of electron       5.0000000 magnetization       6.0000000
 augmentation part        5.0000000 magnetization       6.0000000

 Free energy of the ion-electron system (eV)
  ---------------------------------------------------
  alpha Z        PSCENC =        30.58334069
  Ewald energy   TEWEN  =      -197.90100875
  -1/2 Hartree   DENC   =        -2.50452612
  -exchange  EXHF       =         0.00000000
  -V(xc)+E(xc)   XCENC  =       -60.69825643
  PAW double counting   =       143.51874798      -69.33493833
  entropy T*S    EENTRO =        -0.00014838
  eigenvalues    EBANDS =        24.38477518
  atomic energy  EATOM  =       130.64621481
  ---------------------------------------------------
  free energy    TOTEN  =        -1.30579936 eV

  energy without entropy =       -1.30565097  energy(sigma->0) =       -1.30574989


--------------------------------------------------------------------------------------------------------




----------------------------------------- Iteration    1(   4)  ---------------------------------------


     EDDAV:  cpu time    3.81: real time    3.82
       DOS:  cpu time    0.01: real time    0.01
    --------------------------------------------
      LOOP:  cpu time    3.82: real time    3.85

 eigenvalue-minimisations  :  4386
 total energy-change (2. order) :-0.9698284E-03  (-0.9698263E-03)
 number of electron       5.0000000 magnetization       6.0000000
 augmentation part        5.0000000 magnetization       6.0000000

 Free energy of the ion-electron system (eV)
  ---------------------------------------------------
  alpha Z        PSCENC =        30.58334069
  Ewald energy   TEWEN  =      -197.90100875
  -1/2 Hartree   DENC   =        -2.50452612
  -exchange  EXHF       =         0.00000000
  -V(xc)+E(xc)   XCENC  =       -60.69825643
  PAW double counting   =       143.51874798      -69.33493833
  entropy T*S    EENTRO =        -0.00014947
  eigenvalues    EBANDS =        24.38380644
  atomic energy  EATOM  =       130.64621481
  ---------------------------------------------------
  free energy    TOTEN  =        -1.30676918 eV

  energy without entropy =       -1.30661971  energy(sigma->0) =       -1.30671936


--------------------------------------------------------------------------------------------------------




----------------------------------------- Iteration    1(   5)  ---------------------------------------


     EDDAV:  cpu time    2.94: real time    2.95
       DOS:  cpu time    0.01: real time    0.01
    CHARGE:  cpu time    0.30: real time    0.30
    MIXING:  cpu time    0.00: real time    0.00
    --------------------------------------------
      LOOP:  cpu time    3.26: real time    3.27

 eigenvalue-minimisations  :  3072
 total energy-change (2. order) :-0.5750226E-05  (-0.5750811E-05)
 number of electron       5.0000001 magnetization       1.9836560
 augmentation part        0.4552509 magnetization      -0.8360069

 Broyden mixing:
  rms(total) = 0.76282E+00    rms(broyden)= 0.76281E+00
  rms(prec ) = 0.97124E+00
  weight for this iteration     100.00

 Free energy of the ion-electron system (eV)
  ---------------------------------------------------
  alpha Z        PSCENC =        30.58334069
  Ewald energy   TEWEN  =      -197.90100875
  -1/2 Hartree   DENC   =        -2.50452612
  -exchange  EXHF       =         0.00000000
  -V(xc)+E(xc)   XCENC  =       -60.69825643
  PAW double counting   =       143.51874798      -69.33493833
  entropy T*S    EENTRO =        -0.00014948
  eigenvalues    EBANDS =        24.38380070
  atomic energy  EATOM  =       130.64621481
  ---------------------------------------------------
  free energy    TOTEN  =        -1.30677493 eV

  energy without entropy =       -1.30662545  energy(sigma->0) =       -1.30672511


--------------------------------------------------------------------------------------------------------




----------------------------------------- Iteration    1(   6)  ---------------------------------------


    POTLOK:  cpu time    0.14: real time    0.14
    SETDIJ:  cpu time    0.04: real time    0.04
     EDDAV:  cpu time    3.21: real time    3.21
       DOS:  cpu time    0.01: real time    0.01
    CHARGE:  cpu time    0.26: real time    0.26
    MIXING:  cpu time    0.00: real time    0.00
    --------------------------------------------
      LOOP:  cpu time    3.66: real time    3.68

 eigenvalue-minimisations  :  3522
 total energy-change (2. order) :-0.1038996E+02  (-0.3429908E+00)
 number of electron       5.0000001 magnetization       1.7534574
 augmentation part        0.3692377 magnetization       1.0312627

 Broyden mixing:
  rms(total) = 0.38691E+00    rms(broyden)= 0.38690E+00
  rms(prec ) = 0.11314E+01
  weight for this iteration     100.00

 eigenvalues of (default mixing * dielectric matrix)
  average eigenvalue GAMMA=   1.5017
  1.5017

 Free energy of the ion-electron system (eV)
  ---------------------------------------------------
  alpha Z        PSCENC =        30.58334069
  Ewald energy   TEWEN  =      -197.90100875
  -1/2 Hartree   DENC   =        -1.99974195
  -exchange  EXHF       =         0.00000000
  -V(xc)+E(xc)   XCENC  =       -66.16098922
  PAW double counting   =       163.87122798      -89.92552346
  entropy T*S    EENTRO =         0.00018830
  eigenvalues    EBANDS =        19.18955188
  atomic energy  EATOM  =       130.64621481
  ---------------------------------------------------
  free energy    TOTEN  =       -11.69673972 eV

  energy without entropy =      -11.69692802  energy(sigma->0) =      -11.69680249


--------------------------------------------------------------------------------------------------------




----------------------------------------- Iteration    1(   7)  ---------------------------------------


    POTLOK:  cpu time    0.14: real time    0.14
    SETDIJ:  cpu time    0.04: real time    0.04
     EDDAV:  cpu time    3.40: real time    3.40
       DOS:  cpu time    0.01: real time    0.01
    CHARGE:  cpu time    0.26: real time    0.26
    MIXING:  cpu time    0.00: real time    0.00
    --------------------------------------------
      LOOP:  cpu time    3.85: real time    3.87

 eigenvalue-minimisations  :  3804
 total energy-change (2. order) :-0.7305647E-01  (-0.2329370E-02)
 number of electron       5.0000001 magnetization       1.7662852
 augmentation part        0.3696523 magnetization       1.0861397

 Broyden mixing:
  rms(total) = 0.34280E+00    rms(broyden)= 0.34280E+00
  rms(prec ) = 0.10611E+01
  weight for this iteration     100.00

 eigenvalues of (default mixing * dielectric matrix)
  average eigenvalue GAMMA=   1.0613
  1.0613  1.0613

 Free energy of the ion-electron system (eV)
  ---------------------------------------------------
  alpha Z        PSCENC =        30.58334069
  Ewald energy   TEWEN  =      -197.90100875
  -1/2 Hartree   DENC   =        -1.88456590
  -exchange  EXHF       =         0.00000000
  -V(xc)+E(xc)   XCENC  =       -66.22007860
  PAW double counting   =       165.89527112      -91.98357486
  entropy T*S    EENTRO =         0.00004491
  eigenvalues    EBANDS =        19.09456038
  atomic energy  EATOM  =       130.64621481
  ---------------------------------------------------
  free energy    TOTEN  =       -11.76979620 eV

  energy without entropy =      -11.76984111  energy(sigma->0) =      -11.76981117


--------------------------------------------------------------------------------------------------------




----------------------------------------- Iteration    1(   8)  ---------------------------------------


    POTLOK:  cpu time    0.14: real time    0.14
    SETDIJ:  cpu time    0.04: real time    0.04
     EDDAV:  cpu time    3.33: real time    3.33
       DOS:  cpu time    0.01: real time    0.01
    CHARGE:  cpu time    0.26: real time    0.26
    MIXING:  cpu time    0.00: real time    0.00
    --------------------------------------------
      LOOP:  cpu time    3.78: real time    3.80

 eigenvalue-minimisations  :  3672
 total energy-change (2. order) : 0.1208682E+00  (-0.3273536E-01)
 number of electron       5.0000001 magnetization       0.5729719
 augmentation part        0.3905314 magnetization      -0.0478420

 Broyden mixing:
  rms(total) = 0.29974E+00    rms(broyden)= 0.29974E+00
  rms(prec ) = 0.48422E+00
  weight for this iteration     100.00

 eigenvalues of (default mixing * dielectric matrix)
  average eigenvalue GAMMA=   1.1376
  1.3677  1.3677  0.6774

 Free energy of the ion-electron system (eV)
  ---------------------------------------------------
  alpha Z        PSCENC =        30.58334069
  Ewald energy   TEWEN  =      -197.90100875
  -1/2 Hartree   DENC   =        -0.98367868
  -exchange  EXHF       =         0.00000000
  -V(xc)+E(xc)   XCENC  =       -65.91012731
  PAW double counting   =       175.26016285     -101.63619688
  entropy T*S    EENTRO =        -0.00025361
  eigenvalues    EBANDS =        18.29261888
  atomic energy  EATOM  =       130.64621481
  ---------------------------------------------------
  free energy    TOTEN  =       -11.64892799 eV

  energy without entropy =      -11.64867438  energy(sigma->0) =      -11.64884345


--------------------------------------------------------------------------------------------------------




----------------------------------------- Iteration    1(   9)  ---------------------------------------


    POTLOK:  cpu time    0.14: real time    0.14
    SETDIJ:  cpu time    0.04: real time    0.04
     EDDAV:  cpu time    3.35: real time    3.35
       DOS:  cpu time    0.01: real time    0.01
    CHARGE:  cpu time    0.25: real time    0.25
    MIXING:  cpu time    0.00: real time    0.00
    --------------------------------------------
      LOOP:  cpu time    3.80: real time    3.81

 eigenvalue-minimisations  :  3732
 total energy-change (2. order) :-0.1811362E+00  (-0.1486358E-01)
 number of electron       5.0000001 magnetization       0.1897313
 augmentation part        0.4019471 magnetization      -0.0418329

 Broyden mixing:
  rms(total) = 0.84641E-01    rms(broyden)= 0.84639E-01
  rms(prec ) = 0.87259E-01
  weight for this iteration     100.00

 eigenvalues of (default mixing * dielectric matrix)
  average eigenvalue GAMMA=   1.1266
  2.1698  0.8455  0.8455  0.6455

 Free energy of the ion-electron system (eV)
  ---------------------------------------------------
  alpha Z        PSCENC =        30.58334069
  Ewald energy   TEWEN  =      -197.90100875
  -1/2 Hartree   DENC   =        -0.57392130
  -exchange  EXHF       =         0.00000000
  -V(xc)+E(xc)   XCENC  =       -65.96323523
  PAW double counting   =       187.30355147     -113.84794715
  entropy T*S    EENTRO =        -0.00001791
  eigenvalues    EBANDS =        17.92295915
  atomic energy  EATOM  =       130.64621481
  ---------------------------------------------------
  free energy    TOTEN  =       -11.83006423 eV

  energy without entropy =      -11.83004632  energy(sigma->0) =      -11.83005826


--------------------------------------------------------------------------------------------------------




----------------------------------------- Iteration    1(  10)  ---------------------------------------


    POTLOK:  cpu time    0.14: real time    0.14
    SETDIJ:  cpu time    0.04: real time    0.04
     EDDAV:  cpu time    3.45: real time    3.46
       DOS:  cpu time    0.01: real time    0.01
    CHARGE:  cpu time    0.25: real time    0.25
    MIXING:  cpu time    0.00: real time    0.00
    --------------------------------------------
      LOOP:  cpu time    3.90: real time    3.92

 eigenvalue-minimisations  :  3852
 total energy-change (2. order) :-0.2988905E-01  (-0.6620468E-03)
 number of electron       5.0000001 magnetization       0.0577044
 augmentation part        0.4035090 magnetization      -0.0149806

 Broyden mixing:
  rms(total) = 0.32342E-01    rms(broyden)= 0.32339E-01
  rms(prec ) = 0.62885E-01
  weight for this iteration     100.00

 eigenvalues of (default mixing * dielectric matrix)
  average eigenvalue GAMMA=   1.1333
  1.7741  1.2725  0.9901  0.9901  0.6394

 Free energy of the ion-electron system (eV)
  ---------------------------------------------------
  alpha Z        PSCENC =        30.58334069
  Ewald energy   TEWEN  =      -197.90100875
  -1/2 Hartree   DENC   =        -0.53815468
  -exchange  EXHF       =         0.00000000
  -V(xc)+E(xc)   XCENC  =       -65.96846922
  PAW double counting   =       189.99270818     -116.56579006
  entropy T*S    EENTRO =         0.00032157
  eigenvalues    EBANDS =        17.89088417
  atomic energy  EATOM  =       130.64621481
  ---------------------------------------------------
  free energy    TOTEN  =       -11.85995328 eV

  energy without entropy =      -11.86027485  energy(sigma->0) =      -11.86006047


--------------------------------------------------------------------------------------------------------




----------------------------------------- Iteration    1(  11)  ---------------------------------------


    POTLOK:  cpu time    0.14: real time    0.14
    SETDIJ:  cpu time    0.04: real time    0.04
     EDDAV:  cpu time    3.31: real time    3.31
       DOS:  cpu time    0.01: real time    0.01
    CHARGE:  cpu time    0.25: real time    0.25
    MIXING:  cpu time    0.00: real time    0.00
    --------------------------------------------
      LOOP:  cpu time    3.75: real time    3.77

 eigenvalue-minimisations  :  3672
 total energy-change (2. order) :-0.2137666E-02  (-0.5452105E-03)
 number of electron       5.0000001 magnetization      -0.0944622
 augmentation part        0.4014808 magnetization      -0.1261921

 Broyden mixing:
  rms(total) = 0.88704E-02    rms(broyden)= 0.88684E-02
  rms(prec ) = 0.20480E-01
  weight for this iteration     100.00

 eigenvalues of (default mixing * dielectric matrix)
  average eigenvalue GAMMA=   1.1401
  1.6876  1.6876  1.0463  1.0463  0.6348  0.7382

 Free energy of the ion-electron system (eV)
  ---------------------------------------------------
  alpha Z        PSCENC =        30.58334069
  Ewald energy   TEWEN  =      -197.90100875
  -1/2 Hartree   DENC   =        -0.60153463
  -exchange  EXHF       =         0.00000000
  -V(xc)+E(xc)   XCENC  =       -66.00955622
  PAW double counting   =       190.87086984     -117.43274566
  entropy T*S    EENTRO =        -0.00018757
  eigenvalues    EBANDS =        17.98251654
  atomic energy  EATOM  =       130.64621481
  ---------------------------------------------------
  free energy    TOTEN  =       -11.86209095 eV

  energy without entropy =      -11.86190338  energy(sigma->0) =      -11.86202843


--------------------------------------------------------------------------------------------------------




----------------------------------------- Iteration    1(  12)  ---------------------------------------


    POTLOK:  cpu time    0.14: real time    0.14
    SETDIJ:  cpu time    0.04: real time    0.04
     EDDAV:  cpu time    3.18: real time    3.19
       DOS:  cpu time    0.01: real time    0.01
    CHARGE:  cpu time    0.25: real time    0.25
    MIXING:  cpu time    0.00: real time    0.00
    --------------------------------------------
      LOOP:  cpu time    3.63: real time    3.65

 eigenvalue-minimisations  :  3492
 total energy-change (2. order) : 0.4208073E-03  (-0.1148060E-03)
 number of electron       5.0000001 magnetization      -0.0593683
 augmentation part        0.4015156 magnetization      -0.0098757

 Broyden mixing:
  rms(total) = 0.10725E-01    rms(broyden)= 0.10723E-01
  rms(prec ) = 0.17692E-01
  weight for this iteration     100.00

 eigenvalues of (default mixing * dielectric matrix)
  average eigenvalue GAMMA=   1.2416
  2.2281  2.2281  0.9597  0.9597  1.0114  0.6522  0.6522

 Free energy of the ion-electron system (eV)
  ---------------------------------------------------
  alpha Z        PSCENC =        30.58334069
  Ewald energy   TEWEN  =      -197.90100875
  -1/2 Hartree   DENC   =        -0.60133858
  -exchange  EXHF       =         0.00000000
  -V(xc)+E(xc)   XCENC  =       -66.00572106
  PAW double counting   =       193.70835279     -120.28759309
  entropy T*S    EENTRO =         0.00000619
  eigenvalues    EBANDS =        17.99607686
  atomic energy  EATOM  =       130.64621481
  ---------------------------------------------------
  free energy    TOTEN  =       -11.86167014 eV

  energy without entropy =      -11.86167633  energy(sigma->0) =      -11.86167220


--------------------------------------------------------------------------------------------------------




----------------------------------------- Iteration    1(  13)  ---------------------------------------


    POTLOK:  cpu time    0.14: real time    0.14
    SETDIJ:  cpu time    0.04: real time    0.04
     EDDAV:  cpu time    2.26: real time    2.26
       DOS:  cpu time    0.01: real time    0.01
    CHARGE:  cpu time    0.25: real time    0.25
    MIXING:  cpu time    0.00: real time    0.00
    --------------------------------------------
      LOOP:  cpu time    2.71: real time    2.72

 eigenvalue-minimisations  :  2034
 total energy-change (2. order) :-0.3704612E-03  (-0.1297870E-04)
 number of electron       5.0000001 magnetization      -0.0289325
 augmentation part        0.4020146 magnetization       0.0028107

 Broyden mixing:
  rms(total) = 0.65064E-02    rms(broyden)= 0.65063E-02
  rms(prec ) = 0.71177E-02
  weight for this iteration     100.00

 eigenvalues of (default mixing * dielectric matrix)
  average eigenvalue GAMMA=   1.2497
  2.8463  1.7784  1.2086  1.0810  1.0810  0.7430  0.6294  0.6294

 Free energy of the ion-electron system (eV)
  ---------------------------------------------------
  alpha Z        PSCENC =        30.58334069
  Ewald energy   TEWEN  =      -197.90100875
  -1/2 Hartree   DENC   =        -0.59301313
  -exchange  EXHF       =         0.00000000
  -V(xc)+E(xc)   XCENC  =       -66.00108938
  PAW double counting   =       193.90085628     -120.48293601
  entropy T*S    EENTRO =        -0.00015181
  eigenvalues    EBANDS =        17.98574670
  atomic energy  EATOM  =       130.64621481
  ---------------------------------------------------
  free energy    TOTEN  =       -11.86204060 eV

  energy without entropy =      -11.86188879  energy(sigma->0) =      -11.86199000


--------------------------------------------------------------------------------------------------------




----------------------------------------- Iteration    1(  14)  ---------------------------------------


    POTLOK:  cpu time    0.14: real time    0.14
    SETDIJ:  cpu time    0.04: real time    0.04
     EDDAV:  cpu time    2.09: real time    2.09
       DOS:  cpu time    0.01: real time    0.01
    CHARGE:  cpu time    0.25: real time    0.25
    MIXING:  cpu time    0.00: real time    0.00
    --------------------------------------------
      LOOP:  cpu time    2.54: real time    2.55

 eigenvalue-minimisations  :  1764
 total energy-change (2. order) :-0.1776604E-03  (-0.7600098E-05)
 number of electron       5.0000001 magnetization      -0.0252429
 augmentation part        0.4022805 magnetization      -0.0088491

 Broyden mixing:
  rms(total) = 0.30822E-02    rms(broyden)= 0.30820E-02
  rms(prec ) = 0.44027E-02
  weight for this iteration     100.00

 eigenvalues of (default mixing * dielectric matrix)
  average eigenvalue GAMMA=   1.1622
  2.9047  1.5537  1.5537  1.0707  1.0707  0.7337  0.6071  0.6071  0.3582

 Free energy of the ion-electron system (eV)
  ---------------------------------------------------
  alpha Z        PSCENC =        30.58334069
  Ewald energy   TEWEN  =      -197.90100875
  -1/2 Hartree   DENC   =        -0.58885134
  -exchange  EXHF       =         0.00000000
  -V(xc)+E(xc)   XCENC  =       -65.99883231
  PAW double counting   =       193.81304689     -120.39501672
  entropy T*S    EENTRO =        -0.00022055
  eigenvalues    EBANDS =        17.97910902
  atomic energy  EATOM  =       130.64621481
  ---------------------------------------------------
  free energy    TOTEN  =       -11.86221826 eV

  energy without entropy =      -11.86199771  energy(sigma->0) =      -11.86214475


--------------------------------------------------------------------------------------------------------




----------------------------------------- Iteration    1(  15)  ---------------------------------------


    POTLOK:  cpu time    0.14: real time    0.14
    SETDIJ:  cpu time    0.04: real time    0.04
     EDDAV:  cpu time    2.04: real time    2.04
       DOS:  cpu time    0.01: real time    0.01
    --------------------------------------------
      LOOP:  cpu time    2.22: real time    2.24

 eigenvalue-minimisations  :  1692
 total energy-change (2. order) :-0.1540548E-04  (-0.4103595E-06)
 number of electron       5.0000001 magnetization      -0.0252429
 augmentation part        0.4022805 magnetization      -0.0088491

 Free energy of the ion-electron system (eV)
  ---------------------------------------------------
  alpha Z        PSCENC =        30.58334069
  Ewald energy   TEWEN  =      -197.90100875
  -1/2 Hartree   DENC   =        -0.58876925
  -exchange  EXHF       =         0.00000000
  -V(xc)+E(xc)   XCENC  =       -65.99873456
  PAW double counting   =       193.81748574     -120.39932529
  entropy T*S    EENTRO =        -0.00022647
  eigenvalues    EBANDS =        17.97878940
  atomic energy  EATOM  =       130.64621481
  ---------------------------------------------------
  free energy    TOTEN  =       -11.86223367 eV

  energy without entropy =      -11.86200720  energy(sigma->0) =      -11.86215818


--------------------------------------------------------------------------------------------------------




 average (electrostatic) potential at core
  the test charge radii are     1.2538
  (the norm of the test charge is              1.0000)
       1 -35.0292
 
 
 
 E-fermi :   5.7212     XC(G=0): -12.3701     alpha+bet :-13.5035


 spin component 1

 k-point   1 :       0.0312    0.0312    0.0312
  band No.  band energies     occupation 
      1      -1.9183      1.00000
      2       6.3166      0.00000
      3       6.3166      0.00000
      4       6.7492      0.00000
      5       9.5570      0.00000
      6       9.5570      0.00000

 k-point   2 :       0.0938    0.0312    0.0312
  band No.  band energies     occupation 
      1      -1.4343      1.00000
      2       5.9987      0.00000
      3       6.1395      0.00000
      4       7.2893      0.00000
      5       9.2205      0.00000
      6       9.6211      0.00000

 k-point   3 :       0.1562    0.0312    0.0312
  band No.  band energies     occupation 
      1      -0.6974      1.00000
      2       5.5763      1.00016
      3       5.8329     -0.00349
      4       8.1170      0.00000
      5       9.0483      0.00000
      6       9.7216      0.00000

 k-point   4 :       0.2188    0.0312    0.0312
  band No.  band energies     occupation 
      1       0.1615      1.00000
      2       5.1371      1.00000
      3       5.5154      1.00000
      4       9.0842      0.00000
      5       9.2694      0.00000
      6       9.8689      0.00000

 k-point   5 :       0.2812    0.0313    0.0312
  band No.  band energies     occupation 
      1       0.9133      1.00000
      2       4.7441      1.00000
      3       5.4884      1.00000
      4       9.3711      0.00000
      5      10.0691      0.00000
      6      10.5241      0.00000

 k-point   6 :       0.3438    0.0313    0.0313
  band No.  band energies     occupation 
      1       1.3289      1.00000
      2       4.4389      1.00000
      3       5.9697      0.00000
      4       9.5977      0.00000
      5      10.3004      0.00000
      6      11.8925      0.00000

 k-point   7 :       0.4062    0.0313    0.0312
  band No.  band energies     occupation 
      1       1.4471      1.00000
      2       4.2467      1.00000
      3       6.7397      0.00000
      4       9.6517      0.00000
      5      10.5000      0.00000
      6      13.0759      0.00000

 k-point   8 :       0.4688    0.0312    0.0312
  band No.  band energies     occupation 
      1       1.4596      1.00000
      2       4.1812      1.00000
      3       7.1542      0.00000
      4       9.6002      0.00000
      5      10.5817      0.00000
      6      13.5880      0.00000

 k-point   9 :      -0.0312    0.0312    0.0312
  band No.  band energies     occupation 
      1      -2.0860      1.00000
      2       6.4377      0.00000
      3       6.4377      0.00000
      4       6.4923      0.00000
      5       9.5336      0.00000
      6       9.7320      0.00000

 k-point  10 :       0.0938    0.0938    0.0312
  band No.  band energies     occupation 
      1      -0.8309      1.00000
      2       5.6887      0.94096
      3       5.7566      0.03739
      4       8.0636      0.00000
      5       9.0820      0.00000
      6       9.6938      0.00000

 k-point  11 :       0.1562    0.0938    0.0312
  band No.  band energies     occupation 
      1      -0.0219      1.00000
      2       5.2693      1.00000
      3       5.3949      1.00000
      4       8.9925      0.00000
      5       9.1224      0.00000
      6       9.9025      0.00000

 k-point  12 :       0.2188    0.0938    0.0312
  band No.  band energies     occupation 
      1       0.8299      1.00000
      2       4.8604      1.00000
      3       5.1790      1.00000
      4       9.1589      0.00000
      5      10.1165      0.00000
      6      10.3494      0.00000

 k-point  13 :       0.2812    0.0938    0.0313
  band No.  band energies     occupation 
      1       1.4581      1.00000
      2       4.5346      1.00000
      3       5.3610      1.00000
      4       9.4205      0.00000
      5      10.3130      0.00000
      6      11.7119      0.00000

 k-point  14 :       0.3438    0.0938    0.0313
  band No.  band energies     occupation 
      1       1.7121      1.00000
      2       4.3095      1.00000
      3       6.0043      0.00000
      4       9.6201      0.00000
[...]
      3       6.2251      0.00000
      4       7.3818      0.00000
      5      12.8587      0.00000
      6      12.9783      0.00000

 k-point 119 :      -0.4062    0.4688    0.2187
  band No.  band energies     occupation 
      1       2.9322      1.00000
      2       3.7365      1.00000
      3       6.3485      0.00000
      4       8.0440      0.00000
      5      11.5945      0.00000
      6      13.3330      0.00000

 k-point 120 :      -0.3438    0.4688    0.2187
  band No.  band energies     occupation 
      1       3.2314      1.00000
      2       3.3472      1.00000
      3       6.2600      0.00000
      4       8.8221      0.00000
      5      10.6956      0.00000
      6      13.4463      0.00000

 k-point 121 :      -0.4688   -0.4688    0.2187
  band No.  band energies     occupation 
      1       2.8668      1.00000
      2       3.8248      1.00000
      3       6.2256      0.00000
      4       8.0220      0.00000
      5      12.2448      0.00000
      6      14.3233      0.00000

 k-point 122 :      -0.4062   -0.4688    0.2187
  band No.  band energies     occupation 
      1       3.1150      1.00000
      2       3.4524      1.00000
      3       5.9591      0.00000
      4       9.2729      0.00000
      5      11.2248      0.00000
      6      15.0447      0.00000

 k-point 123 :      -0.4062   -0.4062    0.2187
  band No.  band energies     occupation 
      1       3.2717      1.00000
      2       3.2717      1.00000
      3       5.7830     -0.03544
      4      10.4659      0.00000
      5      10.4659      0.00000
      6      15.5043      0.00000

 k-point 124 :      -0.2812    0.2812    0.2812
  band No.  band energies     occupation 
      1       2.5353      1.00000
      2       4.1401      1.00000
      3       7.3385      0.00000
      4       7.3385      0.00000
      5       9.4460      0.00000
      6      10.5050      0.00000

 k-point 125 :      -0.3438    0.3437    0.2812
  band No.  band energies     occupation 
      1       2.8872      1.00000
      2       3.5949      1.00000
      3       7.5511      0.00000
      4       7.7707      0.00000
      5      10.3749      0.00000
      6      10.6999      0.00000

 k-point 126 :      -0.4062    0.4062    0.2812
  band No.  band energies     occupation 
      1       2.9285      1.00000
      2       3.3520      1.00000
      3       7.5205      0.00000
      4       7.8440      0.00000
      5      11.6471      0.00000
      6      11.8050      0.00000

 k-point 127 :      -0.3438    0.4062    0.2812
  band No.  band energies     occupation 
      1       2.9971      1.00000
      2       3.1479      1.00000
      3       7.5735      0.00000
      4       8.5570      0.00000
      5      10.7258      0.00000
      6      11.7648      0.00000

 k-point 128 :      -0.4688    0.4688    0.2812
  band No.  band energies     occupation 
      1       2.7832      1.00000
      2       3.3824      1.00000
      3       7.4715      0.00000
      4       7.7393      0.00000
      5      12.6675      0.00000
      6      13.3975      0.00000

 k-point 129 :      -0.4062    0.4688    0.2812
  band No.  band energies     occupation 
      1       2.8281      1.00000
      2       3.0453      1.00000
      3       7.4026      0.00000
      4       9.0104      0.00000
      5      11.5396      0.00000
      6      13.3717      0.00000

 k-point 130 :      -0.4688   -0.4688    0.2812
  band No.  band energies     occupation 
      1       2.7262      1.00000
      2       3.0473      1.00000
      3       7.3271      0.00000
      4       9.0910      0.00000
      5      12.1485      0.00000
      6      14.6641      0.00000

 k-point 131 :      -0.4062   -0.4688    0.2812
  band No.  band energies     occupation 
      1       2.7710      1.00000
      2       2.8605      1.00000
      3       7.2272      0.00000
      4      10.2404      0.00000
      5      11.2922      0.00000
      6      15.1137      0.00000

 k-point 132 :      -0.3438    0.3437    0.3437
  band No.  band energies     occupation 
      1       2.9127      1.00000
      2       3.0800      1.00000
      3       8.4643      0.00000
      4       8.4643      0.00000
      5      10.6392      0.00000
      6      10.8311      0.00000

 k-point 133 :      -0.4062    0.4062    0.3438
  band No.  band energies     occupation 
      1       2.7041      1.00000
      2       2.8003      1.00000
      3       8.8557      0.00000
      4       8.8747      0.00000
      5      11.5356      0.00000
      6      11.8623      0.00000

 k-point 134 :      -0.4688    0.4688    0.3437
  band No.  band energies     occupation 
      1       2.5097      1.00000
      2       2.7080      1.00000
      3       8.9237      0.00000
      4       8.9310      0.00000
      5      12.4978      0.00000
      6      13.5787      0.00000

 k-point 135 :      -0.4062    0.4688    0.3438
  band No.  band energies     occupation 
      1       2.4593      1.00000
      2       2.5637      1.00000
      3       8.8662      0.00000
      4      10.0841      0.00000
      5      11.7586      0.00000
      6      13.3584      0.00000

 k-point 136 :      -0.4688   -0.4688    0.3438
  band No.  band energies     occupation 
      1       2.3836      1.00000
      2       2.4656      1.00000
      3       8.8425      0.00000
      4      10.5303      0.00000
      5      12.0217      0.00000
      6      14.8418      0.00000

 k-point 137 :      -0.4062    0.4062    0.4062
  band No.  band energies     occupation 
      1       2.3532      1.00000
      2       2.4585      1.00000
      3      10.0285      0.00000
      4      10.0285      0.00000
      5      11.7126      0.00000
      6      12.3166      0.00000

 k-point 138 :      -0.4688    0.4688    0.4062
  band No.  band energies     occupation 
      1       2.1778      1.00000
      2       2.2462      1.00000
      3      10.5101      0.00000
      4      10.5141      0.00000
      5      12.3770      0.00000
      6      13.6686      0.00000

 k-point 139 :      -0.4688   -0.4688    0.4062
  band No.  band energies     occupation 
      1       2.1062      1.00000
      2       2.1062      1.00000
      3      10.5678      0.00000
      4      11.9270      0.00000
      5      11.9270      0.00000
      6      14.9074      0.00000

 k-point 140 :      -0.4688    0.4688    0.4687
  band No.  band energies     occupation 
      1       1.9844      1.00000
      2       2.0044      1.00000
      3      11.8927      0.00000
      4      11.8927      0.00000
      5      12.3769      0.00000
      6      13.9522      0.00000


--------------------------------------------------------------------------------------------------------


 soft charge-density along one line, spin component           1
         0         1         2         3         4         5         6         7         8         9
 total charge-density along one line
 
 soft charge-density along one line, spin component           2
         0         1         2         3         4         5         6         7         8         9
 total charge-density along one line
 
 pseudopotential strength for first ion, spin component:           1
 -6.574   0.000   0.003   0.000   0.002   0.089   0.000   0.000
  0.000  -6.572   0.000   0.004   0.000   0.000   0.090   0.000
  0.003   0.000  -6.571   0.000  -0.001   0.000   0.000   0.090
  0.000   0.004   0.000  -6.574   0.000   0.000   0.000   0.000
  0.002   0.000  -0.001   0.000  -6.570   0.000   0.000   0.000
  0.089   0.000   0.000   0.000   0.000   0.071   0.000   0.000
  0.000   0.090   0.000   0.000   0.000   0.000   0.071   0.000
  0.000   0.000   0.090   0.000   0.000   0.000   0.000   0.071
  0.000   0.000   0.000   0.089   0.000   0.000   0.000   0.000
  0.000   0.000   0.000   0.000   0.090   0.000   0.000   0.000
  0.000   0.000   0.000   0.000   0.000   0.000   0.000   0.000
  0.000   0.000   0.000   0.000   0.000   0.000   0.000   0.000
  0.000   0.000   0.000   0.000   0.000   0.000   0.000   0.000
  0.000   0.000   0.000   0.000   0.000   0.000   0.000   0.000
  0.000   0.000   0.000   0.000   0.000   0.000   0.000   0.000
  0.000   0.000   0.000   0.000   0.000   0.000   0.000   0.000
  0.000   0.000   0.000   0.000   0.000   0.000   0.000   0.000
  0.000   0.000   0.000   0.000   0.000   0.000   0.000   0.000
 pseudopotential strength for first ion, spin component:           2
 -6.575   0.000   0.003   0.000   0.002   0.089   0.000   0.000
  0.000  -6.573   0.000   0.003   0.000   0.000   0.089   0.000
  0.003   0.000  -6.572   0.000  -0.001   0.000   0.000   0.089
  0.000   0.003   0.000  -6.575   0.000   0.000   0.000   0.000
  0.002   0.000  -0.001   0.000  -6.571   0.000   0.000   0.000
  0.089   0.000   0.000   0.000   0.000   0.071   0.000   0.000
  0.000   0.089   0.000   0.000   0.000   0.000   0.071   0.000
  0.000   0.000   0.089   0.000   0.000   0.000   0.000   0.071
  0.000   0.000   0.000   0.089   0.000   0.000   0.000   0.000
  0.000   0.000   0.000   0.000   0.089   0.000   0.000   0.000
  0.000   0.000   0.000   0.000   0.000   0.000   0.000   0.000
  0.000   0.000   0.000   0.000   0.000   0.000   0.000   0.000
  0.000   0.000   0.000   0.000   0.000   0.000   0.000   0.000
  0.000   0.000   0.000   0.000   0.000   0.000   0.000   0.000
  0.000   0.000   0.000   0.000   0.000   0.000   0.000   0.000
  0.000   0.000   0.000   0.000   0.000   0.000   0.000   0.000
  0.000   0.000   0.000   0.000   0.000   0.000   0.000   0.000
  0.000   0.000   0.000   0.000   0.000   0.000   0.000   0.000
 total augmentation occupancy for first ion, spin component:           1
  0.638   0.000   0.084   0.000   0.049  -0.518   0.000  -0.022   0.000  -0.013   0.000   0.000   0.000   0.000   0.000   0.000
  0.000   0.707   0.000   0.097   0.000   0.000  -0.536   0.000  -0.025   0.000   0.000   0.000   0.000   0.000   0.000   0.000
  0.084   0.000   0.724   0.000  -0.030  -0.022   0.000  -0.541   0.000   0.008   0.000   0.000   0.000   0.000   0.000   0.000
  0.000   0.097   0.000   0.638   0.000   0.000  -0.025   0.000  -0.518   0.000   0.000   0.000   0.000   0.000   0.000   0.000
  0.049   0.000  -0.030   0.000   0.758  -0.013   0.000   0.008   0.000  -0.549   0.000   0.000   0.000   0.000   0.000   0.000
 -0.518   0.000  -0.022   0.000  -0.013   0.465   0.000  -0.014   0.000  -0.008   0.000   0.000   0.000   0.000   0.000   0.000
  0.000  -0.536   0.000  -0.025   0.000   0.000   0.454   0.000  -0.016   0.000   0.000   0.000   0.000   0.000   0.000   0.000
 -0.022   0.000  -0.541   0.000   0.008  -0.014   0.000   0.451   0.000   0.005   0.000   0.000   0.000   0.000   0.000   0.000
  0.000  -0.025   0.000  -0.518   0.000   0.000  -0.016   0.000   0.465   0.000   0.000   0.000   0.000   0.000   0.000   0.000
 -0.013   0.000   0.008   0.000  -0.549  -0.008   0.000   0.005   0.000   0.445   0.000   0.000   0.000   0.000   0.000   0.000
  0.000   0.000   0.000   0.000   0.000   0.000   0.000   0.000   0.000   0.000   1.400  -0.279   0.000   0.000   0.000   0.000
  0.000   0.000   0.000   0.000   0.000   0.000   0.000   0.000   0.000   0.000  -0.279   0.060   0.000   0.000   0.000   0.000
  0.000   0.000   0.000   0.000   0.000   0.000   0.000   0.000   0.000   0.000   0.000   0.000   0.301   0.000   0.000   0.012
  0.000   0.000   0.000   0.000   0.000   0.000   0.000   0.000   0.000   0.000   0.000   0.000   0.000   0.301   0.000   0.000
  0.000   0.000   0.000   0.000   0.000   0.000   0.000   0.000   0.000   0.000   0.000   0.000   0.000   0.000   0.301   0.000
  0.000   0.000   0.000   0.000   0.000   0.000   0.000   0.000   0.000   0.000   0.000   0.000   0.012   0.000   0.000   0.001
  0.000   0.000   0.000   0.000   0.000   0.000   0.000   0.000   0.000   0.000   0.000   0.000   0.000   0.012   0.000   0.000
  0.000   0.000   0.000   0.000   0.000   0.000   0.000   0.000   0.000   0.000   0.000   0.000   0.000   0.000   0.012   0.000
 total augmentation occupancy for first ion, spin component:           2
 -0.002   0.000  -0.002   0.000  -0.001   0.001   0.000   0.001   0.000   0.001   0.000   0.000   0.000   0.000   0.000   0.000
  0.000  -0.004   0.000  -0.003   0.000   0.000   0.002   0.000   0.001   0.000   0.000   0.000   0.000   0.000   0.000   0.000
 -0.002   0.000  -0.004   0.000   0.001   0.001   0.000   0.002   0.000   0.000   0.000   0.000   0.000   0.000   0.000   0.000
  0.000  -0.003   0.000  -0.002   0.000   0.000   0.001   0.000   0.001   0.000   0.000   0.000   0.000   0.000   0.000   0.000
 -0.001   0.000   0.001   0.000  -0.005   0.001   0.000   0.000   0.000   0.002   0.000   0.000   0.000   0.000   0.000   0.000
  0.001   0.000   0.001   0.000   0.001  -0.001   0.000   0.000   0.000   0.000   0.000   0.000   0.000   0.000   0.000   0.000
  0.000   0.002   0.000   0.001   0.000   0.000  -0.001   0.000   0.000   0.000   0.000   0.000   0.000   0.000   0.000   0.000
  0.001   0.000   0.002   0.000   0.000   0.000   0.000  -0.001   0.000   0.000   0.000   0.000   0.000   0.000   0.000   0.000
  0.000   0.001   0.000   0.001   0.000   0.000   0.000   0.000  -0.001   0.000   0.000   0.000   0.000   0.000   0.000   0.000
  0.001   0.000   0.000   0.000   0.002   0.000   0.000   0.000   0.000  -0.001   0.000   0.000   0.000   0.000   0.000   0.000
  0.000   0.000   0.000   0.000   0.000   0.000   0.000   0.000   0.000   0.000  -0.001   0.000   0.000   0.000   0.000   0.000
  0.000   0.000   0.000   0.000   0.000   0.000   0.000   0.000   0.000   0.000   0.000   0.000   0.000   0.000   0.000   0.000
  0.000   0.000   0.000   0.000   0.000   0.000   0.000   0.000   0.000   0.000   0.000   0.000  -0.001   0.000   0.000   0.000
  0.000   0.000   0.000   0.000   0.000   0.000   0.000   0.000   0.000   0.000   0.000   0.000   0.000  -0.001   0.000   0.000
  0.000   0.000   0.000   0.000   0.000   0.000   0.000   0.000   0.000   0.000   0.000   0.000   0.000   0.000  -0.001   0.000
  0.000   0.000   0.000   0.000   0.000   0.000   0.000   0.000   0.000   0.000   0.000   0.000   0.000   0.000   0.000   0.000
  0.000   0.000   0.000   0.000   0.000   0.000   0.000   0.000   0.000   0.000   0.000   0.000   0.000   0.000   0.000   0.000
  0.000   0.000   0.000   0.000   0.000   0.000   0.000   0.000   0.000   0.000   0.000   0.000   0.000   0.000   0.000   0.000


------------------------ aborting loop because EDIFF is reached ----------------------------------------


 


 total charge     
 
# of ion     s       p       d       tot
----------------------------------------
  1        0.708   0.698   3.356   4.762
 


 magnetization (x)
 
# of ion     s       p       d       tot
----------------------------------------
  1        0.000  -0.002  -0.014  -0.017
 
    CHARGE:  cpu time    0.25: real time    0.25
    FORLOC:  cpu time    0.00: real time    0.00
    FORNL :  cpu time    0.34: real time    0.34
    STRESS:  cpu time    0.83: real time    0.83
    FORCOR:  cpu time    0.14: real time    0.14
    FORHAR:  cpu time    0.02: real time    0.02
    MIXING:  cpu time    0.00: real time    0.00

  FORCE on cell =-STRESS in cart. coord.  units (eV):
  Direction    XX          YY          ZZ          XY          YZ          ZX
  --------------------------------------------------------------------------------------
  Alpha Z    30.58334    30.58334    30.58334
  Ewald     -65.96700   -65.96700   -65.96700     0.00000     0.00000     0.00000
  Hartree     0.19769     0.19769     0.19769     0.00000     0.00000     0.00000
  E(xc)     -22.45571   -22.45571   -22.45571     0.00000     0.00000     0.00000
  Local       3.85878     3.85878     3.85878     0.00000     0.00000     0.00000
  n-local    -7.78262    -8.58082    -5.79186     1.51150    -2.16275    -1.60015
  augment     2.91921     2.91921     2.91921     0.00000     0.00000     0.00000
  Kinetic    59.20071    60.05449    55.24862     0.17820     2.93615     1.56389
  Fock        0.00000     0.00000     0.00000     0.00000     0.00000     0.00000
  -------------------------------------------------------------------------------------
  Total      -0.08085    -0.08085    -0.08085     0.00000     0.00000     0.00000
  in kB      -7.14364    -7.14364    -7.14364     0.00000     0.00000     0.00000
  external pressure =       -7.14 kB  Pullay stress =        0.00 kB


 VOLUME and BASIS-vectors are now :
 -----------------------------------------------------------------------------
  energy-cutoff  :      350.00
  volume of cell :       18.13
      direct lattice vectors                 reciprocal lattice vectors
     2.866544087  0.000000000  0.000000000     0.348852126  0.123337852  0.213627426
    -0.955514696  2.702603683  0.000000000     0.000000000  0.370013556  0.213627426
    -0.955514696 -1.351301841  2.340523446     0.000000000  0.000000000  0.427254853

  length of vectors
     2.866544087  2.866544087  2.866544087     0.427254853  0.427254853  0.427254853


 FORCES acting on ions
    electron-ion (+dipol)            ewald-force                    non-local-force                 convergence-correction
 -----------------------------------------------------------------------------------------------
   0.624E-15 0.105E-14 0.346E-14   -.279E-15 -.214E-15 0.640E-15   0.207E-24 0.000E+00 0.000E+00   0.855E-16 -.609E-16 0.326E-15
 -----------------------------------------------------------------------------------------------
   0.624E-15 0.105E-14 0.346E-14   -.279E-15 -.214E-15 0.640E-15   0.207E-24 0.000E+00 0.000E+00   0.855E-16 -.609E-16 0.326E-15
 
 
 POSITION                                       TOTAL-FORCE (eV/Angst)
 -----------------------------------------------------------------------------------
      0.00000      0.00000      0.00000         0.000000      0.000000      0.000000
 -----------------------------------------------------------------------------------
    total drift:                                0.000000      0.000000      0.000000


--------------------------------------------------------------------------------------------------------



  FREE ENERGIE OF THE ION-ELECTRON SYSTEM (eV)
  ---------------------------------------------------
  free  energy   TOTEN  =       -11.862234 eV

  energy  without entropy=      -11.862007  energy(sigma->0) =      -11.862158
 


--------------------------------------------------------------------------------------------------------


    POTLOK:  cpu time    0.17: real time    0.17


--------------------------------------------------------------------------------------------------------


 writing wavefunctions
     LOOP+:  cpu time   54.50: real time   54.96
    4ORBIT:  cpu time    0.00: real time    0.00
 


 total charge     
 
# of ion     s       p       d       tot
----------------------------------------
  1        0.708   0.698   3.356   4.762
 


 magnetization (x)
 
# of ion     s       p       d       tot
----------------------------------------
  1        0.000  -0.002  -0.014  -0.017
 

 total amount of memory used by VASP on root node    49205. kBytes
========================================================================

   base      :      30000. kBytes
   nonl-proj :       5588. kBytes
   fftplans  :       1676. kBytes
   grid      :       3981. kBytes
   one-center:         31. kBytes
   wavefun   :       7929. kBytes
 
  
  
 General timing and accounting informations for this job:
 ========================================================
  
                  Total CPU time used (sec):       55.264
                            User time (sec):       55.084
                          System time (sec):        0.180
                         Elapsed time (sec):       55.992
  
                   Maximum memory used (kb):           0.
                   Average memory used (kb):           0.
  
                          Minor page faults:        14810
                          Major page faults:            0
                 Voluntary context switches:          637
