 vasp.5.2.12 11Nov11 complex                                                    
  
 executed on             LinuxIFC date 2012.10.14  15:40:41
 running on    1 nodes
 distr:  one band on    1 nodes,    1 groups


--------------------------------------------------------------------------------------------------------


 INCAR:
 POTCAR:    PAW_PBE Ta 17Jan2003                  
 POTCAR:    PAW_PBE Ta 17Jan2003                  
   VRHFIN =Ta:  6s5d                                                            
   LEXCH  = PE                                                                  
   EATOM  =   130.6506 eV,    9.6025 Ry                                         
                                                                                
   TITEL  = PAW_PBE Ta 17Jan2003                                                
   LULTRA =        F    use ultrasoft PP ?                                      
   IUNSCR =        1    unscreen: 0-lin 1-nonlin 2-no                           
   RPACOR =    2.330    partial core radius                                     
   POMASS =  180.948; ZVAL   =    5.000    mass and valenz                      
   RCORE  =    2.900    outmost cutoff radius                                   
   RWIGS  =    2.840; RWIGS  =    1.503    wigner-seitz radius (au A)           
   ENMAX  =  223.667; ENMIN  =  167.750 eV                                      
   RCLOC  =    2.205    cutoff for local pot                                    
   LCOR   =        T    correct aug charges                                     
   LPAW   =        T    paw PP                                                  
   EAUG   =  332.075                                                            
   DEXC   =    -.049                                                            
   RMAX   =    3.083    core radius for proj-oper                               
   RAUG   =    1.300    factor for augmentation sphere                          
   RDEP   =    3.060    radius for radial grids                                 
   QCUT   =   -4.055; QGAM   =    8.109    optimization parameters              
                                                                                
   Description                                                                  
     l     E      TYP  RCUT    TYP  RCUT                                        
     2   .000     23  2.500                                                     
     2   .000     23  2.500                                                     
     0   .000     23  2.500                                                     
     0   .000     23  2.500                                                     
     1   .000     23  2.900                                                     
     1  2.000     23  2.900                                                     
     3   .000      7   .000                                                     
  local pseudopotential read in
  partial core-charges read in
  atomic valenz-charges read in
  non local Contribution for L=           2  read in
    real space projection operators read in
  non local Contribution for L=           2  read in
    real space projection operators read in
  non local Contribution for L=           0  read in
    real space projection operators read in
  non local Contribution for L=           0  read in
    real space projection operators read in
  non local Contribution for L=           1  read in
    real space projection operators read in
  non local Contribution for L=           1  read in
    real space projection operators read in
    PAW grid and wavefunctions read in
 
   number of l-projection  operators is LMAX  =           6
   number of lm-projection operators is LMMAX =          18
 
  PAW_PBE Ta 17Jan2003                  :
 energy of atom  1       EATOM= -130.6506
 kinetic energy error for atom=    0.0044 (will be added to EATOM!!)
 
 
 POSCAR: Ta                                      
  positions in cartesian coordinates
  No initial velocities read in
 exchange correlation table for  LEXCH =        8
   RHO(1)=    0.500       N(1)  =     2000
   RHO(2)=  100.500       N(2)  =     4000
 


--------------------------------------------------------------------------------------------------------


 ion  position               nearest neighbor table
   1  0.000  0.000  0.000-
 
  LATTYP: Found a body centered cubic cell.
 ALAT       =     3.3100000000
  
  Lattice vectors:
  
 A1 = (   2.8665440865,   0.0000000000,   0.0000000000)
 A2 = (  -0.9555146955,   2.7026036829,   0.0000000000)
 A3 = (  -0.9555146955,  -1.3513018414,   2.3405234457)
 Subroutine PRICEL returns:
 Original cell was already a primitive cell.
 

Analysis of symmetry for initial positions (statically):

 Routine SETGRP: Setting up the symmetry group for a 
 body centered cubic supercell.


 Subroutine GETGRP returns: Found 48 space group operations
 (whereof 48 operations were pure point group operations)
 out of a pool of 48 trial point group operations.


The static configuration has the point symmetry O_h .

Analysis of symmetry for dynamics (positions and initial velocities):

 Subroutine DYNSYM returns: Found 48 space group operations
 (whereof 48 operations were pure point group operations)
 out of a pool of 48 trial space group operations
 (whereof 48 operations were pure point group operations)
 and found also     1 'primitive' translations


The dynamic configuration has the point symmetry O_h .
 
 
 KPOINTS: KPOINTS created by Atomic Simulation Env

Automatic generation of k-mesh.
 
 Subroutine IBZKPT returns following result:
 ===========================================
 
 Found    140 irreducible k-points:
 
 Following reciprocal coordinates:
            Coordinates               Weight
  0.031250  0.031250  0.031250      8.000000
  0.093750  0.031250  0.031250     24.000000
  0.156250  0.031250  0.031250     24.000000
  0.218750  0.031250  0.031250     24.000000
  0.281250  0.031250  0.031250     24.000000
  0.343750  0.031250  0.031250     24.000000
  0.406250  0.031250  0.031250     24.000000
  0.468750  0.031250  0.031250     12.000000
 -0.031250  0.031250  0.031250      6.000000
  0.093750  0.093750  0.031250     24.000000
  0.156250  0.093750  0.031250     48.000000
  0.218750  0.093750  0.031250     48.000000
  0.281250  0.093750  0.031250     48.000000
  0.343750  0.093750  0.031250     48.000000
  0.406250  0.093750  0.031250     48.000000
 -0.093750  0.093750  0.031250     24.000000
  0.156250  0.156250  0.031250     24.000000
  0.218750  0.156250  0.031250     48.000000
  0.281250  0.156250  0.031250     48.000000
  0.343750  0.156250  0.031250     48.000000
  0.406250  0.156250  0.031250     24.000000
 -0.156250  0.156250  0.031250     24.000000
 -0.093750  0.156250  0.031250     24.000000
  0.218750  0.218750  0.031250     24.000000
  0.281250  0.218750  0.031250     48.000000
  0.343750  0.218750  0.031250     48.000000
 -0.218750  0.218750  0.031250     24.000000
 -0.156250  0.218750  0.031250     48.000000
  0.281250  0.281250  0.031250     24.000000
  0.343750  0.281250  0.031250     24.000000
 -0.281250  0.281250  0.031250     24.000000
 -0.218750  0.281250  0.031250     48.000000
 -0.156250  0.281250  0.031250     24.000000
 -0.343750  0.343750  0.031250     24.000000
 -0.281250  0.343750  0.031250     48.000000
 -0.218750  0.343750  0.031250     48.000000
 -0.406250  0.406250  0.031250     24.000000
 -0.343750  0.406250  0.031250     48.000000
 -0.281250  0.406250  0.031250     48.000000
 -0.218750  0.406250  0.031250     24.000000
 -0.468750  0.468750  0.031250     24.000000
 -0.406250  0.468750  0.031250     48.000000
 -0.343750  0.468750  0.031250     48.000000
 -0.281250  0.468750  0.031250     48.000000
 -0.468750 -0.468750  0.031250     24.000000
 -0.406250 -0.468750  0.031250     48.000000
 -0.343750 -0.468750  0.031250     48.000000
 -0.281250 -0.468750  0.031250     24.000000
 -0.406250 -0.406250  0.031250     24.000000
 -0.343750 -0.406250  0.031250     48.000000
 -0.343750 -0.343750  0.031250      8.000000
  0.093750  0.093750  0.093750      8.000000
  0.156250  0.093750  0.093750     24.000000
  0.218750  0.093750  0.093750     24.000000
  0.281250  0.093750  0.093750     24.000000
  0.343750  0.093750  0.093750     24.000000
  0.406250  0.093750  0.093750     12.000000
 -0.093750  0.093750  0.093750      6.000000
  0.156250  0.156250  0.093750     24.000000
  0.218750  0.156250  0.093750     48.000000
  0.281250  0.156250  0.093750     48.000000
  0.343750  0.156250  0.093750     48.000000
 -0.156250  0.156250  0.093750     24.000000
  0.218750  0.218750  0.093750     24.000000
  0.281250  0.218750  0.093750     48.000000
  0.343750  0.218750  0.093750     24.000000
 -0.218750  0.218750  0.093750     24.000000
 -0.156250  0.218750  0.093750     24.000000
  0.281250  0.281250  0.093750     24.000000
 -0.281250  0.281250  0.093750     24.000000
 -0.218750  0.281250  0.093750     48.000000
 -0.343750  0.343750  0.093750     24.000000
 -0.281250  0.343750  0.093750     48.000000
 -0.218750  0.343750  0.093750     24.000000
 -0.406250  0.406250  0.093750     24.000000
 -0.343750  0.406250  0.093750     48.000000
 -0.281250  0.406250  0.093750     48.000000
 -0.468750  0.468750  0.093750     24.000000
 -0.406250  0.468750  0.093750     48.000000
 -0.343750  0.468750  0.093750     48.000000
 -0.281250  0.468750  0.093750     24.000000
 -0.468750 -0.468750  0.093750     24.000000
 -0.406250 -0.468750  0.093750     48.000000
 -0.343750 -0.468750  0.093750     48.000000
 -0.406250 -0.406250  0.093750     24.000000
 -0.343750 -0.406250  0.093750     24.000000
  0.156250  0.156250  0.156250      8.000000
  0.218750  0.156250  0.156250     24.000000
  0.281250  0.156250  0.156250     24.000000
  0.343750  0.156250  0.156250     12.000000
 -0.156250  0.156250  0.156250      6.000000
  0.218750  0.218750  0.156250     24.000000
  0.281250  0.218750  0.156250     48.000000
 -0.218750  0.218750  0.156250     24.000000
  0.281250  0.281250  0.156250      8.000000
 -0.281250  0.281250  0.156250     24.000000
 -0.218750  0.281250  0.156250     24.000000
 -0.343750  0.343750  0.156250     24.000000
 -0.281250  0.343750  0.156250     48.000000
 -0.406250  0.406250  0.156250     24.000000
 -0.343750  0.406250  0.156250     48.000000
 -0.281250  0.406250  0.156250     24.000000
 -0.468750  0.468750  0.156250     24.000000
 -0.406250  0.468750  0.156250     48.000000
 -0.343750  0.468750  0.156250     48.000000
 -0.468750 -0.468750  0.156250     24.000000
 -0.406250 -0.468750  0.156250     48.000000
 -0.343750 -0.468750  0.156250     24.000000
 -0.406250 -0.406250  0.156250     24.000000
  0.218750  0.218750  0.218750      8.000000
  0.281250  0.218750  0.218750     12.000000
 -0.218750  0.218750  0.218750      6.000000
 -0.281250  0.281250  0.218750     24.000000
 -0.343750  0.343750  0.218750     24.000000
 -0.281250  0.343750  0.218750     24.000000
 -0.406250  0.406250  0.218750     24.000000
 -0.343750  0.406250  0.218750     48.000000
 -0.468750  0.468750  0.218750     24.000000
 -0.406250  0.468750  0.218750     48.000000
 -0.343750  0.468750  0.218750     24.000000
 -0.468750 -0.468750  0.218750     24.000000
 -0.406250 -0.468750  0.218750     48.000000
 -0.406250 -0.406250  0.218750      8.000000
 -0.281250  0.281250  0.281250      6.000000
 -0.343750  0.343750  0.281250     24.000000
 -0.406250  0.406250  0.281250     24.000000
 -0.343750  0.406250  0.281250     24.000000
 -0.468750  0.468750  0.281250     24.000000
 -0.406250  0.468750  0.281250     48.000000
 -0.468750 -0.468750  0.281250     24.000000
 -0.406250 -0.468750  0.281250     24.000000
 -0.343750  0.343750  0.343750      6.000000
 -0.406250  0.406250  0.343750     24.000000
 -0.468750  0.468750  0.343750     24.000000
 -0.406250  0.468750  0.343750     24.000000
 -0.468750 -0.468750  0.343750     24.000000
 -0.406250  0.406250  0.406250      6.000000
 -0.468750  0.468750  0.406250     24.000000
 -0.468750 -0.468750  0.406250      8.000000
 -0.468750  0.468750  0.468750      6.000000
 
 Following cartesian coordinates:
            Coordinates               Weight
  0.010902  0.015417  0.026703      8.000000
  0.032705  0.023126  0.040055     24.000000
  0.054508  0.030834  0.053407     24.000000
  0.076311  0.038543  0.066759     24.000000
  0.098115  0.046252  0.080110     24.000000
  0.119918  0.053960  0.093462     24.000000
  0.141721  0.061669  0.106814     24.000000
  0.163524  0.069378  0.120165     12.000000
 -0.010902  0.007709  0.013352      6.000000
  0.032705  0.046252  0.053407     24.000000
  0.054508  0.053960  0.066759     48.000000
  0.076311  0.061669  0.080110     48.000000
  0.098115  0.069378  0.093462     48.000000
  0.119918  0.077086  0.106814     48.000000
  0.141721  0.084795  0.120165     48.000000
 -0.032705  0.023126  0.013352     24.000000
  0.054508  0.077086  0.080110     24.000000
  0.076311  0.084795  0.093462     48.000000
  0.098115  0.092503  0.106814     48.000000
  0.119918  0.100212  0.120165     48.000000
  0.141721  0.107921  0.133517     24.000000
 -0.054508  0.038543  0.013352     24.000000
 -0.032705  0.046252  0.026703     24.000000
  0.076311  0.107921  0.106814     24.000000
  0.098115  0.115629  0.120165     48.000000
  0.119918  0.123338  0.133517     48.000000
 -0.076311  0.053960  0.013352     24.000000
 -0.054508  0.061669  0.026703     48.000000
  0.098115  0.138755  0.133517     24.000000
  0.119918  0.146464  0.146869     24.000000
 -0.098115  0.069378  0.013352     24.000000
 -0.076311  0.077086  0.026703     48.000000
 -0.054508  0.084795  0.040055     24.000000
 -0.119918  0.084795  0.013352     24.000000
 -0.098115  0.092503  0.026703     48.000000
 -0.076311  0.100212  0.040055     48.000000
 -0.141721  0.100212  0.013352     24.000000
 -0.119918  0.107921  0.026703     48.000000
 -0.098115  0.115629  0.040055     48.000000
 -0.076311  0.123338  0.053407     24.000000
 -0.163524  0.115629  0.013352     24.000000
 -0.141721  0.123338  0.026703     48.000000
 -0.119918  0.131046  0.040055     48.000000
 -0.098115  0.138755  0.053407     48.000000
 -0.163524 -0.231258 -0.186924     24.000000
 -0.141721 -0.223550 -0.173572     48.000000
 -0.119918 -0.215841 -0.160221     48.000000
 -0.098115 -0.208133 -0.146869     24.000000
 -0.141721 -0.200424 -0.160221     24.000000
 -0.119918 -0.192715 -0.146869     48.000000
 -0.119918 -0.169590 -0.133517      8.000000
  0.032705  0.046252  0.080110      8.000000
  0.054508  0.053960  0.093462     24.000000
  0.076311  0.061669  0.106814     24.000000
  0.098115  0.069378  0.120165     24.000000
  0.119918  0.077086  0.133517     24.000000
  0.141721  0.084795  0.146869     12.000000
 -0.032705  0.023126  0.040055      6.000000
  0.054508  0.077086  0.106814     24.000000
  0.076311  0.084795  0.120165     48.000000
  0.098115  0.092503  0.133517     48.000000
  0.119918  0.100212  0.146869     48.000000
 -0.054508  0.038543  0.040055     24.000000
  0.076311  0.107921  0.133517     24.000000
  0.098115  0.115629  0.146869     48.000000
  0.119918  0.123338  0.160221     24.000000
 -0.076311  0.053960  0.040055     24.000000
 -0.054508  0.061669  0.053407     24.000000
  0.098115  0.138755  0.160221     24.000000
 -0.098115  0.069378  0.040055     24.000000
 -0.076311  0.077086  0.053407     48.000000
 -0.119918  0.084795  0.040055     24.000000
 -0.098115  0.092503  0.053407     48.000000
 -0.076311  0.100212  0.066759     24.000000
 -0.141721  0.100212  0.040055     24.000000
 -0.119918  0.107921  0.053407     48.000000
 -0.098115  0.115629  0.066759     48.000000
 -0.163524  0.115629  0.040055     24.000000
 -0.141721  0.123338  0.053407     48.000000
 -0.119918  0.131046  0.066759     48.000000
 -0.098115  0.138755  0.080110     24.000000
 -0.163524 -0.231258 -0.160221     24.000000
 -0.141721 -0.223550 -0.146869     48.000000
 -0.119918 -0.215841 -0.133517     48.000000
 -0.141721 -0.200424 -0.133517     24.000000
 -0.119918 -0.192715 -0.120165     24.000000
  0.054508  0.077086  0.133517      8.000000
  0.076311  0.084795  0.146869     24.000000
  0.098115  0.092503  0.160221     24.000000
  0.119918  0.100212  0.173572     12.000000
 -0.054508  0.038543  0.066759      6.000000
  0.076311  0.107921  0.160221     24.000000
  0.098115  0.115629  0.173572     48.000000
 -0.076311  0.053960  0.066759     24.000000
  0.098115  0.138755  0.186924      8.000000
 -0.098115  0.069378  0.066759     24.000000
 -0.076311  0.077086  0.080110     24.000000
 -0.119918  0.084795  0.066759     24.000000
 -0.098115  0.092503  0.080110     48.000000
 -0.141721  0.100212  0.066759     24.000000
 -0.119918  0.107921  0.080110     48.000000
 -0.098115  0.115629  0.093462     24.000000
 -0.163524  0.115629  0.066759     24.000000
 -0.141721  0.123338  0.080110     48.000000
 -0.119918  0.131046  0.093462     48.000000
 -0.163524 -0.231258 -0.133517     24.000000
 -0.141721 -0.223550 -0.120165     48.000000
 -0.119918 -0.215841 -0.106814     24.000000
 -0.141721 -0.200424 -0.106814     24.000000
  0.076311  0.107921  0.186924      8.000000
  0.098115  0.115629  0.200276     12.000000
 -0.076311  0.053960  0.093462      6.000000
 -0.098115  0.069378  0.093462     24.000000
 -0.119918  0.084795  0.093462     24.000000
 -0.098115  0.092503  0.106814     24.000000
 -0.141721  0.100212  0.093462     24.000000
 -0.119918  0.107921  0.106814     48.000000
 -0.163524  0.115629  0.093462     24.000000
 -0.141721  0.123338  0.106814     48.000000
 -0.119918  0.131046  0.120165     24.000000
 -0.163524 -0.231258 -0.106814     24.000000
 -0.141721 -0.223550 -0.093462     48.000000
 -0.141721 -0.200424 -0.080110      8.000000
 -0.098115  0.069378  0.120165      6.000000
 -0.119918  0.084795  0.120165     24.000000
 -0.141721  0.100212  0.120165     24.000000
 -0.119918  0.107921  0.133517     24.000000
 -0.163524  0.115629  0.120165     24.000000
 -0.141721  0.123338  0.133517     48.000000
 -0.163524 -0.231258 -0.080110     24.000000
 -0.141721 -0.223550 -0.066759     24.000000
 -0.119918  0.084795  0.146869      6.000000
 -0.141721  0.100212  0.146869     24.000000
 -0.163524  0.115629  0.146869     24.000000
 -0.141721  0.123338  0.160221     24.000000
 -0.163524 -0.231258 -0.053407     24.000000
 -0.141721  0.100212  0.173572      6.000000
 -0.163524  0.115629  0.173572     24.000000
 -0.163524 -0.231258 -0.026703      8.000000
 -0.163524  0.115629  0.200276      6.000000
 


--------------------------------------------------------------------------------------------------------




 Dimension of arrays:
   k-points           NKPTS =    140   k-points in BZ     NKDIM =    140   number of bands    NBANDS=      6
   number of dos      NEDOS =    301   number of ions     NIONS =      1
   non local maximal  LDIM  =      6   non local SUM 2l+1 LMDIM =     18
   total plane-waves  NPLWV =   5832
   max r-space proj   IRMAX =      1   max aug-charges    IRDMAX=  22091
   dimension x,y,z NGX =    18 NGY =   18 NGZ =   18
   dimension x,y,z NGXF=    36 NGYF=   36 NGZF=   36
   support grid    NGXF=    36 NGYF=   36 NGZF=   36
   ions per type =               1
 NGX,Y,Z   is equivalent  to a cutoff of  10.44, 10.44, 10.44 a.u.
 NGXF,Y,Z  is equivalent  to a cutoff of  20.88, 20.88, 20.88 a.u.


 I would recommend the setting:
   dimension x,y,z NGX =    17 NGY =   17 NGZ =   17
 SYSTEM =  unknown system                          
 POSCAR =  Ta                                      

 Startparameter for this run:
   NWRITE =      2    write-flag & timer
   PREC   = accura    normal or accurate (medium, high low for compatibility)
   ISTART =      0    job   : 0-new  1-cont  2-samecut
   ICHARG =      2    charge: 1-file 2-atom 10-const
   ISPIN  =      1    spin polarized calculation?
   LNONCOLLINEAR =      F non collinear calculations
   LSORBIT =      F    spin-orbit coupling
   INIWAV =      1    electr: 0-lowe 1-rand  2-diag
   LASPH  =      F    aspherical Exc in radial PAW
   METAGGA=      F    non-selfconsistent MetaGGA calc.

 Electronic Relaxation 1
   ENCUT  =  350.0 eV  25.72 Ry    5.07 a.u.   4.37  4.37  4.37*2*pi/ulx,y,z
   ENINI  =  350.0     initial cutoff
   ENAUG  =  332.1 eV  augmentation charge cutoff
   NELM   =     60;   NELMIN=  2; NELMDL= -5     # of ELM steps 
   EDIFF  = 0.1E-03   stopping-criterion for ELM
   LREAL  =      F    real-space projection
   NLSPLINE    = F    spline interpolate recip. space projectors
   LCOMPAT=      F    compatible to vasp.4.4
   GGA_COMPAT  = T    GGA compatible to vasp.4.4-vasp.4.6
   LMAXPAW     = -100 max onsite density
   LMAXMIX     =    2 max onsite mixed and CHGCAR
   VOSKOWN=      0    Vosko Wilk Nusair interpolation
   ROPT   =    0.00000
 Ionic relaxation
   EDIFFG = 0.1E-02   stopping-criterion for IOM
   NSW    =      0    number of steps for IOM
   NBLOCK =      1;   KBLOCK =      1    inner block; outer block 
   IBRION =     -1    ionic relax: 0-MD 1-quasi-New 2-CG
   NFREE  =      0    steps in history (QN), initial steepest desc. (CG)
   ISIF   =      2    stress and relaxation
   IWAVPR =     10    prediction:  0-non 1-charg 2-wave 3-comb
   ISYM   =      2    0-nonsym 1-usesym 2-fastsym
   LCORR  =      T    Harris-Foulkes like correction to forces

   POTIM  = 0.5000    time-step for ionic-motion
   TEIN   =    0.0    initial temperature
   TEBEG  =    0.0;   TEEND  =   0.0 temperature during run
   SMASS  =  -3.00    Nose mass-parameter (am)
   estimated Nose-frequenzy (Omega)   =  0.10E-29 period in steps =****** mass=  -0.188E-27a.u.
   SCALEE = 1.0000    scale energy and forces
   NPACO  =    256;   APACO  = 16.0  distance and # of slots for P.C.
   PSTRESS=    0.0 pullay stress

  Mass of Ions in am
   POMASS = 180.95
  Ionic Valenz
   ZVAL   =   5.00
  Atomic Wigner-Seitz radii
   RWIGS  =  -1.00
  virtual crystal weights 
   VCA    =   1.00
   NELECT =       5.0000    total number of electrons
   NUPDOWN=      -1.0000    fix difference up-down

 DOS related values:
   EMIN   =  10.00;   EMAX   =-10.00  energy-range for DOS
   EFERMI =   0.00
   ISMEAR =     1;   SIGMA  =   0.05  broadening in eV -4-tet -1-fermi 0-gaus

 Electronic relaxation 2 (details)
   IALGO  =     38    algorithm
   LDIAG  =      T    sub-space diagonalisation (order eigenvalues)
   LSUBROT=      T    optimize rotation matrix (better conditioning)
   TURBO    =      0    0=normal 1=particle mesh
   IRESTART =      0    0=no restart 2=restart with 2 vectors
   NREBOOT  =      0    no. of reboots
   NMIN     =      0    reboot dimension
   EREF     =   0.00    reference energy to select bands
   IMIX   =      4    mixing-type and parameters
     AMIX     =   0.40;   BMIX     =  1.00
     AMIX_MAG =   1.60;   BMIX_MAG =  1.00
     AMIN     =   0.10
     WC   =   100.;   INIMIX=   1;  MIXPRE=   1

 Intra band minimization:
   WEIMIN = 0.0000     energy-eigenvalue tresh-hold
   EBREAK =  0.42E-05  absolut break condition
   DEPER  =   0.30     relativ break condition  

   TIME   =   0.40     timestep for ELM

  volume/ion in A,a.u.               =      18.13       122.36
  Fermi-wavevector in a.u.,A,eV,Ry     =   1.065566  2.013627 15.448462  1.135430
  Thomas-Fermi vector in A             =   2.201121
 
 Write flags
   LWAVE  =      T    write WAVECAR
   LCHARG =      T    write CHGCAR
   LVTOT  =      F    write LOCPOT, total local potential
   LVHAR  =      F    write LOCPOT, Hartree potential only
   LELF   =      F    write electronic localiz. function (ELF)
   LORBIT =      0    0 simple, 1 ext, 2 COOP (PROOUT)


 Dipole corrections
   LMONO  =      F    monopole corrections only (constant potential shift)
   LDIPOL =      F    correct potential (dipole corrections)
   IDIPOL =      0    1-x, 2-y, 3-z, 4-all directions 
   EPSILON=  1.0000000 bulk dielectric constant

 Exchange correlation treatment:
   GGA     =    --    GGA type
   LEXCH   =     8    internal setting for exchange type
   VOSKOWN=      0    Vosko Wilk Nusair interpolation
   LHFCALC =     F    Hartree Fock is set to
   LHFONE  =     F    Hartree Fock one center treatment
   AEXX    =    0.0000 exact exchange contribution

 Linear response parameters
   LEPSILON=     F    determine dielectric tensor
   LRPA    =     F    only Hartree local field effects (RPA)
   LNABLA  =     F    use nabla operator in PAW spheres
   LVEL    =     F    velocity operator in full k-point grid
   LINTERFAST=   F  fast interpolation
   KINTER  =     0    interpolate to denser k-point grid
   CSHIFT  =0.1000    complex shift for real part using Kramers Kronig
   OMEGAMAX=  -1.0    maximum frequency
   RTIME   =    0.100 relaxation time in fs

 Orbital magnetization related:
   ORBITALMAG=     F  switch on orbital magnetization
   LCHIMAG   =     F  perturbation theory with respect to B field
   DQ        =  0.001000  dq finite difference perturbation B field



--------------------------------------------------------------------------------------------------------


 Static calculation
 charge density and potential will be updated during run
 non-spin polarized calculation
 Variant of blocked Davidson
 Davidson routine will perform the subspace rotation
 perform sub-space diagonalisation
    after iterative eigenvector-optimisation
 modified Broyden-mixing scheme, WC =      100.0
 initial mixing is a Kerker type mixing with AMIX =  0.4000 and BMIX =      1.0000
 Hartree-type preconditioning will be used
 using additional bands            3
 reciprocal scheme for non local part
 use partial core corrections
 calculate Harris-corrections to forces 
   (improved forces if not selfconsistent)
 use gradient corrections 
 use of overlap-Matrix (Vanderbilt PP)
 Methfessel and Paxton  Order N= 1 SIGMA  =   0.05


--------------------------------------------------------------------------------------------------------


  energy-cutoff  :      350.00
  volume of cell :       18.13
      direct lattice vectors                 reciprocal lattice vectors
     2.866544087  0.000000000  0.000000000     0.348852126  0.123337852  0.213627426
    -0.955514696  2.702603683  0.000000000     0.000000000  0.370013556  0.213627426
    -0.955514696 -1.351301841  2.340523446     0.000000000  0.000000000  0.427254853

  length of vectors
     2.866544087  2.866544087  2.866544087     0.427254853  0.427254853  0.427254853


 
 k-points in units of 2pi/SCALE and weight: KPOINTS created by Atomic Simulation Env
   0.01090163  0.01541723  0.02670343       0.002
   0.03270489  0.02312585  0.04005514       0.006
   0.05450814  0.03083446  0.05340686       0.006
   0.07631140  0.03854308  0.06675857       0.006
   0.09811466  0.04625169  0.08011028       0.006
   0.11991792  0.05396031  0.09346200       0.006
   0.14172118  0.06166893  0.10681371       0.006
   0.16352443  0.06937754  0.12016543       0.003
  -0.01090163  0.00770862  0.01335171       0.001
   0.03270489  0.04625169  0.05340686       0.006
   0.05450814  0.05396031  0.06675857       0.012
   0.07631140  0.06166893  0.08011028       0.012
   0.09811466  0.06937754  0.09346200       0.012
   0.11991792  0.07708616  0.10681371       0.012
   0.14172118  0.08479477  0.12016543       0.012
  -0.03270489  0.02312585  0.01335171       0.006
   0.05450814  0.07708616  0.08011028       0.006
   0.07631140  0.08479477  0.09346200       0.012
   0.09811466  0.09250339  0.10681371       0.012
   0.11991792  0.10021200  0.12016543       0.012
   0.14172118  0.10792062  0.13351714       0.006
  -0.05450814  0.03854308  0.01335171       0.006
  -0.03270489  0.04625169  0.02670343       0.006
   0.07631140  0.10792062  0.10681371       0.006
   0.09811466  0.11562924  0.12016543       0.012
   0.11991792  0.12333785  0.13351714       0.012
  -0.07631140  0.05396031  0.01335171       0.006
  -0.05450814  0.06166893  0.02670343       0.012
   0.09811466  0.13875508  0.13351714       0.006
   0.11991792  0.14646370  0.14686886       0.006
  -0.09811466  0.06937754  0.01335171       0.006
  -0.07631140  0.07708616  0.02670343       0.012
  -0.05450814  0.08479477  0.04005514       0.006
  -0.11991792  0.08479477  0.01335171       0.006
  -0.09811466  0.09250339  0.02670343       0.012
  -0.07631140  0.10021200  0.04005514       0.012
  -0.14172118  0.10021200  0.01335171       0.006
  -0.11991792  0.10792062  0.02670343       0.012
  -0.09811466  0.11562924  0.04005514       0.012
  -0.07631140  0.12333785  0.05340686       0.006
  -0.16352443  0.11562924  0.01335171       0.006
  -0.14172118  0.12333785  0.02670343       0.012
  -0.11991792  0.13104647  0.04005514       0.012
  -0.09811466  0.13875508  0.05340686       0.012
  -0.16352443 -0.23125847 -0.18692400       0.006
  -0.14172118 -0.22354986 -0.17357228       0.012
  -0.11991792 -0.21584124 -0.16022057       0.012
  -0.09811466 -0.20813263 -0.14686886       0.006
  -0.14172118 -0.20042401 -0.16022057       0.006
  -0.11991792 -0.19271539 -0.14686886       0.012
  -0.11991792 -0.16958955 -0.13351714       0.002
   0.03270489  0.04625169  0.08011028       0.002
   0.05450814  0.05396031  0.09346200       0.006
   0.07631140  0.06166893  0.10681371       0.006
   0.09811466  0.06937754  0.12016543       0.006
   0.11991792  0.07708616  0.13351714       0.006
   0.14172118  0.08479477  0.14686886       0.003
  -0.03270489  0.02312585  0.04005514       0.001
   0.05450814  0.07708616  0.10681371       0.006
   0.07631140  0.08479477  0.12016543       0.012
   0.09811466  0.09250339  0.13351714       0.012
   0.11991792  0.10021200  0.14686886       0.012
  -0.05450814  0.03854308  0.04005514       0.006
   0.07631140  0.10792062  0.13351714       0.006
   0.09811466  0.11562924  0.14686886       0.012
   0.11991792  0.12333785  0.16022057       0.006
  -0.07631140  0.05396031  0.04005514       0.006
  -0.05450814  0.06166893  0.05340686       0.006
   0.09811466  0.13875508  0.16022057       0.006
  -0.09811466  0.06937754  0.04005514       0.006
  -0.07631140  0.07708616  0.05340686       0.012
  -0.11991792  0.08479477  0.04005514       0.006
  -0.09811466  0.09250339  0.05340686       0.012
  -0.07631140  0.10021200  0.06675857       0.006
  -0.14172118  0.10021200  0.04005514       0.006
  -0.11991792  0.10792062  0.05340686       0.012
  -0.09811466  0.11562924  0.06675857       0.012
  -0.16352443  0.11562924  0.04005514       0.006
  -0.14172118  0.12333785  0.05340686       0.012
  -0.11991792  0.13104647  0.06675857       0.012
  -0.09811466  0.13875508  0.08011028       0.006
  -0.16352443 -0.23125847 -0.16022057       0.006
  -0.14172118 -0.22354986 -0.14686886       0.012
  -0.11991792 -0.21584124 -0.13351714       0.012
  -0.14172118 -0.20042401 -0.13351714       0.006
  -0.11991792 -0.19271539 -0.12016543       0.006
   0.05450814  0.07708616  0.13351714       0.002
   0.07631140  0.08479477  0.14686886       0.006
   0.09811466  0.09250339  0.16022057       0.006
   0.11991792  0.10021200  0.17357228       0.003
  -0.05450814  0.03854308  0.06675857       0.001
   0.07631140  0.10792062  0.16022057       0.006
   0.09811466  0.11562924  0.17357228       0.012
  -0.07631140  0.05396031  0.06675857       0.006
   0.09811466  0.13875508  0.18692400       0.002
  -0.09811466  0.06937754  0.06675857       0.006
  -0.07631140  0.07708616  0.08011028       0.006
  -0.11991792  0.08479477  0.06675857       0.006
  -0.09811466  0.09250339  0.08011028       0.012
  -0.14172118  0.10021200  0.06675857       0.006
  -0.11991792  0.10792062  0.08011028       0.012
  -0.09811466  0.11562924  0.09346200       0.006
  -0.16352443  0.11562924  0.06675857       0.006
  -0.14172118  0.12333785  0.08011028       0.012
  -0.11991792  0.13104647  0.09346200       0.012
  -0.16352443 -0.23125847 -0.13351714       0.006
  -0.14172118 -0.22354986 -0.12016543       0.012
  -0.11991792 -0.21584124 -0.10681371       0.006
  -0.14172118 -0.20042401 -0.10681371       0.006
   0.07631140  0.10792062  0.18692400       0.002
   0.09811466  0.11562924  0.20027571       0.003
  -0.07631140  0.05396031  0.09346200       0.001
  -0.09811466  0.06937754  0.09346200       0.006
  -0.11991792  0.08479477  0.09346200       0.006
  -0.09811466  0.09250339  0.10681371       0.006
  -0.14172118  0.10021200  0.09346200       0.006
  -0.11991792  0.10792062  0.10681371       0.012
  -0.16352443  0.11562924  0.09346200       0.006
  -0.14172118  0.12333785  0.10681371       0.012
  -0.11991792  0.13104647  0.12016543       0.006
  -0.16352443 -0.23125847 -0.10681371       0.006
  -0.14172118 -0.22354986 -0.09346200       0.012
  -0.14172118 -0.20042401 -0.08011028       0.002
  -0.09811466  0.06937754  0.12016543       0.001
  -0.11991792  0.08479477  0.12016543       0.006
  -0.14172118  0.10021200  0.12016543       0.006
  -0.11991792  0.10792062  0.13351714       0.006
  -0.16352443  0.11562924  0.12016543       0.006
  -0.14172118  0.12333785  0.13351714       0.012
  -0.16352443 -0.23125847 -0.08011028       0.006
  -0.14172118 -0.22354986 -0.06675857       0.006
  -0.11991792  0.08479477  0.14686886       0.001
  -0.14172118  0.10021200  0.14686886       0.006
  -0.16352443  0.11562924  0.14686886       0.006
  -0.14172118  0.12333785  0.16022057       0.006
  -0.16352443 -0.23125847 -0.05340686       0.006
  -0.14172118  0.10021200  0.17357228       0.001
  -0.16352443  0.11562924  0.17357228       0.006
  -0.16352443 -0.23125847 -0.02670343       0.002
  -0.16352443  0.11562924  0.20027571       0.001
 
 k-points in reciprocal lattice and weights: KPOINTS created by Atomic Simulation Env
   0.03125000  0.03125000  0.03125000       0.002
   0.09375000  0.03125000  0.03125000       0.006
   0.15625000  0.03125000  0.03125000       0.006
   0.21875000  0.03125000  0.03125000       0.006
   0.28125000  0.03125000  0.03125000       0.006
   0.34375000  0.03125000  0.03125000       0.006
   0.40625000  0.03125000  0.03125000       0.006
   0.46875000  0.03125000  0.03125000       0.003
  -0.03125000  0.03125000  0.03125000       0.001
   0.09375000  0.09375000  0.03125000       0.006
   0.15625000  0.09375000  0.03125000       0.012
   0.21875000  0.09375000  0.03125000       0.012
   0.28125000  0.09375000  0.03125000       0.012
   0.34375000  0.09375000  0.03125000       0.012
   0.40625000  0.09375000  0.03125000       0.012
  -0.09375000  0.09375000  0.03125000       0.006
   0.15625000  0.15625000  0.03125000       0.006
   0.21875000  0.15625000  0.03125000       0.012
   0.28125000  0.15625000  0.03125000       0.012
   0.34375000  0.15625000  0.03125000       0.012
   0.40625000  0.15625000  0.03125000       0.006
  -0.15625000  0.15625000  0.03125000       0.006
  -0.09375000  0.15625000  0.03125000       0.006
   0.21875000  0.21875000  0.03125000       0.006
   0.28125000  0.21875000  0.03125000       0.012
   0.34375000  0.21875000  0.03125000       0.012
  -0.21875000  0.21875000  0.03125000       0.006
  -0.15625000  0.21875000  0.03125000       0.012
   0.28125000  0.28125000  0.03125000       0.006
   0.34375000  0.28125000  0.03125000       0.006
  -0.28125000  0.28125000  0.03125000       0.006
  -0.21875000  0.28125000  0.03125000       0.012
  -0.15625000  0.28125000  0.03125000       0.006
  -0.34375000  0.34375000  0.03125000       0.006
  -0.28125000  0.34375000  0.03125000       0.012
  -0.21875000  0.34375000  0.03125000       0.012
  -0.40625000  0.40625000  0.03125000       0.006
  -0.34375000  0.40625000  0.03125000       0.012
  -0.28125000  0.40625000  0.03125000       0.012
  -0.21875000  0.40625000  0.03125000       0.006
  -0.46875000  0.46875000  0.03125000       0.006
  -0.40625000  0.46875000  0.03125000       0.012
  -0.34375000  0.46875000  0.03125000       0.012
  -0.28125000  0.46875000  0.03125000       0.012
  -0.46875000 -0.46875000  0.03125000       0.006
  -0.40625000 -0.46875000  0.03125000       0.012
  -0.34375000 -0.46875000  0.03125000       0.012
  -0.28125000 -0.46875000  0.03125000       0.006
  -0.40625000 -0.40625000  0.03125000       0.006
  -0.34375000 -0.40625000  0.03125000       0.012
  -0.34375000 -0.34375000  0.03125000       0.002
   0.09375000  0.09375000  0.09375000       0.002
   0.15625000  0.09375000  0.09375000       0.006
   0.21875000  0.09375000  0.09375000       0.006
   0.28125000  0.09375000  0.09375000       0.006
   0.34375000  0.09375000  0.09375000       0.006
   0.40625000  0.09375000  0.09375000       0.003
  -0.09375000  0.09375000  0.09375000       0.001
   0.15625000  0.15625000  0.09375000       0.006
   0.21875000  0.15625000  0.09375000       0.012
   0.28125000  0.15625000  0.09375000       0.012
   0.34375000  0.15625000  0.09375000       0.012
  -0.15625000  0.15625000  0.09375000       0.006
   0.21875000  0.21875000  0.09375000       0.006
   0.28125000  0.21875000  0.09375000       0.012
   0.34375000  0.21875000  0.09375000       0.006
  -0.21875000  0.21875000  0.09375000       0.006
  -0.15625000  0.21875000  0.09375000       0.006
   0.28125000  0.28125000  0.09375000       0.006
  -0.28125000  0.28125000  0.09375000       0.006
  -0.21875000  0.28125000  0.09375000       0.012
  -0.34375000  0.34375000  0.09375000       0.006
  -0.28125000  0.34375000  0.09375000       0.012
  -0.21875000  0.34375000  0.09375000       0.006
  -0.40625000  0.40625000  0.09375000       0.006
  -0.34375000  0.40625000  0.09375000       0.012
  -0.28125000  0.40625000  0.09375000       0.012
  -0.46875000  0.46875000  0.09375000       0.006
  -0.40625000  0.46875000  0.09375000       0.012
  -0.34375000  0.46875000  0.09375000       0.012
  -0.28125000  0.46875000  0.09375000       0.006
  -0.46875000 -0.46875000  0.09375000       0.006
  -0.40625000 -0.46875000  0.09375000       0.012
  -0.34375000 -0.46875000  0.09375000       0.012
  -0.40625000 -0.40625000  0.09375000       0.006
  -0.34375000 -0.40625000  0.09375000       0.006
   0.15625000  0.15625000  0.15625000       0.002
   0.21875000  0.15625000  0.15625000       0.006
   0.28125000  0.15625000  0.15625000       0.006
   0.34375000  0.15625000  0.15625000       0.003
  -0.15625000  0.15625000  0.15625000       0.001
   0.21875000  0.21875000  0.15625000       0.006
   0.28125000  0.21875000  0.15625000       0.012
  -0.21875000  0.21875000  0.15625000       0.006
   0.28125000  0.28125000  0.15625000       0.002
  -0.28125000  0.28125000  0.15625000       0.006
  -0.21875000  0.28125000  0.15625000       0.006
  -0.34375000  0.34375000  0.15625000       0.006
  -0.28125000  0.34375000  0.15625000       0.012
  -0.40625000  0.40625000  0.15625000       0.006
  -0.34375000  0.40625000  0.15625000       0.012
  -0.28125000  0.40625000  0.15625000       0.006
  -0.46875000  0.46875000  0.15625000       0.006
  -0.40625000  0.46875000  0.15625000       0.012
  -0.34375000  0.46875000  0.15625000       0.012
  -0.46875000 -0.46875000  0.15625000       0.006
  -0.40625000 -0.46875000  0.15625000       0.012
  -0.34375000 -0.46875000  0.15625000       0.006
  -0.40625000 -0.40625000  0.15625000       0.006
   0.21875000  0.21875000  0.21875000       0.002
   0.28125000  0.21875000  0.21875000       0.003
  -0.21875000  0.21875000  0.21875000       0.001
  -0.28125000  0.28125000  0.21875000       0.006
  -0.34375000  0.34375000  0.21875000       0.006
  -0.28125000  0.34375000  0.21875000       0.006
  -0.40625000  0.40625000  0.21875000       0.006
  -0.34375000  0.40625000  0.21875000       0.012
  -0.46875000  0.46875000  0.21875000       0.006
  -0.40625000  0.46875000  0.21875000       0.012
  -0.34375000  0.46875000  0.21875000       0.006
  -0.46875000 -0.46875000  0.21875000       0.006
  -0.40625000 -0.46875000  0.21875000       0.012
  -0.40625000 -0.40625000  0.21875000       0.002
  -0.28125000  0.28125000  0.28125000       0.001
  -0.34375000  0.34375000  0.28125000       0.006
  -0.40625000  0.40625000  0.28125000       0.006
  -0.34375000  0.40625000  0.28125000       0.006
  -0.46875000  0.46875000  0.28125000       0.006
  -0.40625000  0.46875000  0.28125000       0.012
  -0.46875000 -0.46875000  0.28125000       0.006
  -0.40625000 -0.46875000  0.28125000       0.006
  -0.34375000  0.34375000  0.34375000       0.001
  -0.40625000  0.40625000  0.34375000       0.006
  -0.46875000  0.46875000  0.34375000       0.006
  -0.40625000  0.46875000  0.34375000       0.006
  -0.46875000 -0.46875000  0.34375000       0.006
  -0.40625000  0.40625000  0.40625000       0.001
  -0.46875000  0.46875000  0.40625000       0.006
  -0.46875000 -0.46875000  0.40625000       0.002
  -0.46875000  0.46875000  0.46875000       0.001
 
 position of ions in fractional coordinates (direct lattice) 
   0.00000000  0.00000000  0.00000000
 
 position of ions in cartesian coordinates  (Angst):
   0.00000000  0.00000000  0.00000000
 


--------------------------------------------------------------------------------------------------------


 k-point  1 :  0.03120.03120.0312  plane waves:     267
 k-point  2 :  0.09380.03120.0312  plane waves:     270
 k-point  3 :  0.15620.03120.0312  plane waves:     272
 k-point  4 :  0.21880.03120.0312  plane waves:     271
 k-point  5 :  0.28120.03130.0312  plane waves:     269
 k-point  6 :  0.34380.03130.0313  plane waves:     269
 k-point  7 :  0.40620.03130.0312  plane waves:     272
 k-point  8 :  0.46880.03120.0312  plane waves:     272
 k-point  9 :  -.03120.03120.0312  plane waves:     253
 k-point 10 :  0.09380.09380.0312  plane waves:     272
 k-point 11 :  0.15620.09380.0312  plane waves:     274
 k-point 12 :  0.21880.09380.0312  plane waves:     270
 k-point 13 :  0.28120.09380.0313  plane waves:     268
 k-point 14 :  0.34380.09380.0313  plane waves:     270
 k-point 15 :  0.40620.09380.0312  plane waves:     270
 k-point 16 :  -.09380.09380.0312  plane waves:     274
 k-point 17 :  0.15620.15620.0312  plane waves:     271
 k-point 18 :  0.21880.15620.0312  plane waves:     273
 k-point 19 :  0.28120.15620.0312  plane waves:     270
 k-point 20 :  0.34380.15620.0313  plane waves:     271
 k-point 21 :  0.40620.15630.0312  plane waves:     268
 k-point 22 :  -.15620.15620.0312  plane waves:     273
 k-point 23 :  -.09380.15620.0312  plane waves:     268
 k-point 24 :  0.21880.21880.0312  plane waves:     272
 k-point 25 :  0.28120.21880.0312  plane waves:     271
 k-point 26 :  0.34380.21880.0312  plane waves:     270
 k-point 27 :  -.21880.21880.0312  plane waves:     273
 k-point 28 :  -.15620.21880.0312  plane waves:     274
 k-point 29 :  0.28120.28120.0312  plane waves:     270
 k-point 30 :  0.34380.28130.0312  plane waves:     272
 k-point 31 :  -.28120.28120.0312  plane waves:     269
 k-point 32 :  -.21880.28120.0312  plane waves:     271
 k-point 33 :  -.15620.28120.0312  plane waves:     271
 k-point 34 :  -.34380.34370.0312  plane waves:     269
 k-point 35 :  -.28120.34380.0312  plane waves:     269
 k-point 36 :  -.21880.34380.0312  plane waves:     271
 k-point 37 :  -.40620.40620.0312  plane waves:     271
 k-point 38 :  -.34380.40620.0312  plane waves:     270
 k-point 39 :  -.28120.40620.0312  plane waves:     270
 k-point 40 :  -.21880.40620.0312  plane waves:     272
 k-point 41 :  -.46880.46880.0312  plane waves:     272
 k-point 42 :  -.40620.46880.0312  plane waves:     272
 k-point 43 :  -.34380.46880.0312  plane waves:     271
 k-point 44 :  -.28120.46880.0312  plane waves:     275
 k-point 45 :  -.4688-.46880.0312  plane waves:     270
 k-point 46 :  -.4062-.46880.0312  plane waves:     271
 k-point 47 :  -.3438-.46880.0313  plane waves:     273
 k-point 48 :  -.2812-.46880.0313  plane waves:     272
 k-point 49 :  -.4062-.40620.0312  plane waves:     272
 k-point 50 :  -.3438-.40630.0313  plane waves:     274
 k-point 51 :  -.3438-.34380.0313  plane waves:     273
 k-point 52 :  0.09380.09380.0937  plane waves:     270
 k-point 53 :  0.15620.09380.0938  plane waves:     265
 k-point 54 :  0.21880.09380.0937  plane waves:     271
 k-point 55 :  0.28120.09380.0937  plane waves:     273
 k-point 56 :  0.34380.09380.0938  plane waves:     270
 k-point 57 :  0.40620.09380.0937  plane waves:     268
 k-point 58 :  -.09380.09380.0938  plane waves:     265
 k-point 59 :  0.15620.15620.0937  plane waves:     265
 k-point 60 :  0.21880.15620.0938  plane waves:     271
 k-point 61 :  0.28120.15620.0937  plane waves:     272
 k-point 62 :  0.34380.15620.0938  plane waves:     269
 k-point 63 :  -.15620.15620.0937  plane waves:     270
 k-point 64 :  0.21880.21880.0937  plane waves:     273
 k-point 65 :  0.28120.21880.0937  plane waves:     273
 k-point 66 :  0.34380.21880.0938  plane waves:     270
 k-point 67 :  -.21880.21880.0937  plane waves:     271
 k-point 68 :  -.15620.21880.0937  plane waves:     269
 k-point 69 :  0.28120.28120.0938  plane waves:     274
 k-point 70 :  -.28120.28120.0937  plane waves:     271
 k-point 71 :  -.21880.28120.0937  plane waves:     269
 k-point 72 :  -.34380.34370.0937  plane waves:     269
 k-point 73 :  -.28120.34380.0937  plane waves:     272
 k-point 74 :  -.21880.34380.0938  plane waves:     273
 k-point 75 :  -.40620.40620.0937  plane waves:     272
 k-point 76 :  -.34380.40620.0937  plane waves:     271
 k-point 77 :  -.28120.40620.0937  plane waves:     275
 k-point 78 :  -.46880.46880.0937  plane waves:     272
 k-point 79 :  -.40620.46880.0938  plane waves:     273
 k-point 80 :  -.34380.46880.0937  plane waves:     271
 k-point 81 :  -.28120.46880.0937  plane waves:     270
 k-point 82 :  -.4688-.46880.0938  plane waves:     272
 k-point 83 :  -.4062-.46880.0938  plane waves:     271
 k-point 84 :  -.3438-.46880.0938  plane waves:     274
 k-point 85 :  -.4062-.40620.0938  plane waves:     274
 k-point 86 :  -.3438-.40630.0938  plane waves:     276
 k-point 87 :  0.15620.15620.1562  plane waves:     273
 k-point 88 :  0.21880.15620.1562  plane waves:     272
 k-point 89 :  0.28120.15620.1562  plane waves:     273
 k-point 90 :  0.34380.15620.1563  plane waves:     272
 k-point 91 :  -.15620.15620.1562  plane waves:     277
 k-point 92 :  0.21880.21880.1562  plane waves:     273
 k-point 93 :  0.28120.21880.1562  plane waves:     269
 k-point 94 :  -.21880.21880.1562  plane waves:     268
 k-point 95 :  0.28120.28120.1563  plane waves:     270
 k-point 96 :  -.28120.28120.1562  plane waves:     270
 k-point 97 :  -.21880.28120.1562  plane waves:     271
 k-point 98 :  -.34380.34370.1562  plane waves:     269
 k-point 99 :  -.28120.34380.1562  plane waves:     270
 k-point ** :  -.40620.40620.1562  plane waves:     268
 k-point ** :  -.34380.40620.1562  plane waves:     270
 k-point ** :  -.28120.40620.1562  plane waves:     274
 k-point ** :  -.46880.46880.1562  plane waves:     275
 k-point ** :  -.40620.46880.1562  plane waves:     272
 k-point ** :  -.34380.46880.1562  plane waves:     269
 k-point ** :  -.4688-.46880.1562  plane waves:     270
 k-point ** :  -.4062-.46880.1562  plane waves:     270
 k-point ** :  -.3438-.46880.1563  plane waves:     270
 k-point ** :  -.4062-.40620.1562  plane waves:     270
 k-point ** :  0.21880.21880.2188  plane waves:     270
 k-point ** :  0.28120.21880.2187  plane waves:     276
 k-point ** :  -.21880.21880.2187  plane waves:     269
 k-point ** :  -.28120.28120.2187  plane waves:     266
 k-point ** :  -.34380.34370.2187  plane waves:     270
 k-point ** :  -.28120.34380.2187  plane waves:     267
 k-point ** :  -.40620.40620.2187  plane waves:     269
 k-point ** :  -.34380.40620.2187  plane waves:     265
 k-point ** :  -.46880.46880.2187  plane waves:     269
 k-point ** :  -.40620.46880.2187  plane waves:     261
 k-point ** :  -.34380.46880.2187  plane waves:     264
 k-point ** :  -.4688-.46880.2187  plane waves:     263
 k-point ** :  -.4062-.46880.2187  plane waves:     264
 k-point ** :  -.4062-.40620.2187  plane waves:     267
 k-point ** :  -.28120.28120.2812  plane waves:     269
 k-point ** :  -.34380.34370.2812  plane waves:     263
 k-point ** :  -.40620.40620.2812  plane waves:     261
 k-point ** :  -.34380.40620.2812  plane waves:     260
 k-point ** :  -.46880.46880.2812  plane waves:     261
 k-point ** :  -.40620.46880.2812  plane waves:     260
 k-point ** :  -.4688-.46880.2812  plane waves:     261
 k-point ** :  -.4062-.46880.2812  plane waves:     261
 k-point ** :  -.34380.34370.3437  plane waves:     265
 k-point ** :  -.40620.40620.3438  plane waves:     260
 k-point ** :  -.46880.46880.3437  plane waves:     261
 k-point ** :  -.40620.46880.3438  plane waves:     258
 k-point ** :  -.4688-.46880.3438  plane waves:     258
 k-point ** :  -.40620.40620.4062  plane waves:     261
 k-point ** :  -.46880.46880.4062  plane waves:     255
 k-point ** :  -.4688-.46880.4062  plane waves:     257
 k-point ** :  -.46880.46880.4687  plane waves:     261

 maximum and minimum number of plane-waves per node :       277      253

 maximum number of plane-waves:       277
 maximum index in each direction: 
   IXMAX=    4   IYMAX=    4   IZMAX=    4
   IXMIN=   -4   IYMIN=   -4   IZMIN=   -4

 NGX is ok and might be reduce to  18
 NGY is ok and might be reduce to  18
 NGZ is ok and might be reduce to  18

 serial   3D FFT for wavefunctions
 parallel 3D FFT for charge:
    minimum data exchange during FFTs selected (reduces bandwidth)


 total amount of memory used by VASP on root node    43803. kBytes
========================================================================

   base      :      30000. kBytes
   nonl-proj :       5588. kBytes
   fftplans  :       1676. kBytes
   grid      :       2560. kBytes
   one-center:         15. kBytes
   wavefun   :       3964. kBytes
 
 Broyden mixing: mesh for mixing (old mesh)
   NGX =  9   NGY =  9   NGZ =  9
  (NGX  = 36   NGY  = 36   NGZ  = 36)
  gives a total of    729 points

 initial charge density was supplied:
 charge density of overlapping atoms calculated
 number of electron       5.0000000 magnetization 
 keeping initial charge density in first step


--------------------------------------------------------------------------------------------------------


 Maximum index for augmentation-charges        21187 (set IRDMAX)


--------------------------------------------------------------------------------------------------------


 First call to EWALD:  gamma=   0.675
 Maximum number of real-space cells 3x 3x 3
 Maximum number of reciprocal cells 3x 3x 3

    FEWALD:  cpu time    0.00: real time    0.00


----------------------------------------- Iteration    1(   1)  ---------------------------------------


    POTLOK:  cpu time    0.06: real time    0.06
    SETDIJ:  cpu time    0.02: real time    0.02
     EDDAV:  cpu time    1.58: real time    1.58
       DOS:  cpu time    0.01: real time    0.01
    --------------------------------------------
      LOOP:  cpu time    1.67: real time    1.70

 eigenvalue-minimisations  :  1716
 total energy-change (2. order) :-0.3983390E+01  (-0.1474115E+03)
 number of electron       5.0000000 magnetization 
 augmentation part        5.0000000 magnetization 

 Free energy of the ion-electron system (eV)
  ---------------------------------------------------
  alpha Z        PSCENC =        30.58334069
  Ewald energy   TEWEN  =      -197.90100875
  -1/2 Hartree   DENC   =        -2.50452612
  -exchange  EXHF       =         0.00000000
  -V(xc)+E(xc)   XCENC  =       -66.68582567
  PAW double counting   =       148.27821850      -73.99089003
  entropy T*S    EENTRO =         0.00002833
  eigenvalues    EBANDS =        27.59105861
  atomic energy  EATOM  =       130.64621481
  ---------------------------------------------------
  free energy    TOTEN  =        -3.98338963 eV

  energy without entropy =       -3.98341796  energy(sigma->0) =       -3.98339907


--------------------------------------------------------------------------------------------------------




----------------------------------------- Iteration    1(   2)  ---------------------------------------


     EDDAV:  cpu time    2.46: real time    2.50
       DOS:  cpu time    0.01: real time    0.01
    --------------------------------------------
      LOOP:  cpu time    2.46: real time    2.53

 eigenvalue-minimisations  :  2970
 total energy-change (2. order) :-0.8334903E+01  (-0.7887792E+01)
 number of electron       5.0000000 magnetization 
 augmentation part        5.0000000 magnetization 

 Free energy of the ion-electron system (eV)
  ---------------------------------------------------
  alpha Z        PSCENC =        30.58334069
  Ewald energy   TEWEN  =      -197.90100875
  -1/2 Hartree   DENC   =        -2.50452612
  -exchange  EXHF       =         0.00000000
  -V(xc)+E(xc)   XCENC  =       -66.68582567
  PAW double counting   =       148.27821850      -73.99089003
  entropy T*S    EENTRO =        -0.00004281
  eigenvalues    EBANDS =        19.25622630
  atomic energy  EATOM  =       130.64621481
  ---------------------------------------------------
  free energy    TOTEN  =       -12.31829309 eV

  energy without entropy =      -12.31825027  energy(sigma->0) =      -12.31827882


--------------------------------------------------------------------------------------------------------




----------------------------------------- Iteration    1(   3)  ---------------------------------------


     EDDAV:  cpu time    1.60: real time    1.70
       DOS:  cpu time    0.01: real time    0.01
    --------------------------------------------
      LOOP:  cpu time    1.61: real time    1.73

 eigenvalue-minimisations  :  1734
 total energy-change (2. order) :-0.3745356E-01  (-0.3743605E-01)
 number of electron       5.0000000 magnetization 
 augmentation part        5.0000000 magnetization 

 Free energy of the ion-electron system (eV)
  ---------------------------------------------------
  alpha Z        PSCENC =        30.58334069
  Ewald energy   TEWEN  =      -197.90100875
  -1/2 Hartree   DENC   =        -2.50452612
  -exchange  EXHF       =         0.00000000
  -V(xc)+E(xc)   XCENC  =       -66.68582567
  PAW double counting   =       148.27821850      -73.99089003
  entropy T*S    EENTRO =         0.00001560
  eigenvalues    EBANDS =        19.21871432
  atomic energy  EATOM  =       130.64621481
  ---------------------------------------------------
  free energy    TOTEN  =       -12.35574665 eV

  energy without entropy =      -12.35576225  energy(sigma->0) =      -12.35575185


--------------------------------------------------------------------------------------------------------




----------------------------------------- Iteration    1(   4)  ---------------------------------------


     EDDAV:  cpu time    1.96: real time    2.06
       DOS:  cpu time    0.01: real time    0.01
    --------------------------------------------
      LOOP:  cpu time    1.97: real time    2.56

 eigenvalue-minimisations  :  2262
 total energy-change (2. order) :-0.7446412E-04  (-0.7446488E-04)
 number of electron       5.0000000 magnetization 
 augmentation part        5.0000000 magnetization 

 Free energy of the ion-electron system (eV)
  ---------------------------------------------------
  alpha Z        PSCENC =        30.58334069
  Ewald energy   TEWEN  =      -197.90100875
  -1/2 Hartree   DENC   =        -2.50452612
  -exchange  EXHF       =         0.00000000
  -V(xc)+E(xc)   XCENC  =       -66.68582567
  PAW double counting   =       148.27821850      -73.99089003
  entropy T*S    EENTRO =         0.00001554
  eigenvalues    EBANDS =        19.21863992
  atomic energy  EATOM  =       130.64621481
  ---------------------------------------------------
  free energy    TOTEN  =       -12.35582111 eV

  energy without entropy =      -12.35583666  energy(sigma->0) =      -12.35582629


--------------------------------------------------------------------------------------------------------




----------------------------------------- Iteration    1(   5)  ---------------------------------------


     EDDAV:  cpu time    1.42: real time    1.51
       DOS:  cpu time    0.01: real time    0.01
    CHARGE:  cpu time    0.13: real time    0.13
    MIXING:  cpu time    0.00: real time    0.00
    --------------------------------------------
      LOOP:  cpu time    1.56: real time    1.68

 eigenvalue-minimisations  :  1464
 total energy-change (2. order) :-0.1709340E-06  (-0.1707041E-06)
 number of electron       5.0000001 magnetization 
 augmentation part        0.3546661 magnetization 

 Broyden mixing:
  rms(total) = 0.32532E+00    rms(broyden)= 0.32532E+00
  rms(prec ) = 0.14083E+01
  weight for this iteration     100.00

 Free energy of the ion-electron system (eV)
  ---------------------------------------------------
  alpha Z        PSCENC =        30.58334069
  Ewald energy   TEWEN  =      -197.90100875
  -1/2 Hartree   DENC   =        -2.50452612
  -exchange  EXHF       =         0.00000000
  -V(xc)+E(xc)   XCENC  =       -66.68582567
  PAW double counting   =       148.27821850      -73.99089003
  entropy T*S    EENTRO =         0.00001554
  eigenvalues    EBANDS =        19.21863974
  atomic energy  EATOM  =       130.64621481
  ---------------------------------------------------
  free energy    TOTEN  =       -12.35582128 eV

  energy without entropy =      -12.35583683  energy(sigma->0) =      -12.35582646


--------------------------------------------------------------------------------------------------------




----------------------------------------- Iteration    1(   6)  ---------------------------------------


    POTLOK:  cpu time    0.06: real time    0.06
    SETDIJ:  cpu time    0.02: real time    0.02
     EDDAV:  cpu time    1.72: real time    1.72
       DOS:  cpu time    0.01: real time    0.01
    CHARGE:  cpu time    0.12: real time    0.13
    MIXING:  cpu time    0.00: real time    0.00
    --------------------------------------------
      LOOP:  cpu time    1.93: real time    1.95

 eigenvalue-minimisations  :  1926
 total energy-change (2. order) : 0.3386515E+00  (-0.2077059E-01)
 number of electron       5.0000001 magnetization 
 augmentation part        0.3746301 magnetization 

 Broyden mixing:
  rms(total) = 0.17739E+00    rms(broyden)= 0.17739E+00
  rms(prec ) = 0.76427E+00
  weight for this iteration     100.00

 eigenvalues of (default mixing * dielectric matrix)
  average eigenvalue GAMMA=   2.1905
  2.1905

 Free energy of the ion-electron system (eV)
  ---------------------------------------------------
  alpha Z        PSCENC =        30.58334069
  Ewald energy   TEWEN  =      -197.90100875
  -1/2 Hartree   DENC   =        -1.42229666
  -exchange  EXHF       =         0.00000000
  -V(xc)+E(xc)   XCENC  =       -66.38721252
  PAW double counting   =       162.75330134      -88.85913765
  entropy T*S    EENTRO =        -0.00020744
  eigenvalues    EBANDS =        18.56983644
  atomic energy  EATOM  =       130.64621481
  ---------------------------------------------------
  free energy    TOTEN  =       -12.01716975 eV

  energy without entropy =      -12.01696230  energy(sigma->0) =      -12.01710060


--------------------------------------------------------------------------------------------------------




----------------------------------------- Iteration    1(   7)  ---------------------------------------


    POTLOK:  cpu time    0.06: real time    0.06
    SETDIJ:  cpu time    0.01: real time    0.02
     EDDAV:  cpu time    1.73: real time    1.73
       DOS:  cpu time    0.01: real time    0.01
    CHARGE:  cpu time    0.13: real time    0.13
    MIXING:  cpu time    0.00: real time    0.00
    --------------------------------------------
      LOOP:  cpu time    1.95: real time    2.72

 eigenvalue-minimisations  :  1944
 total energy-change (2. order) : 0.1542042E+00  (-0.3345762E-01)
 number of electron       5.0000001 magnetization 
 augmentation part        0.4030701 magnetization 

 Broyden mixing:
  rms(total) = 0.21167E-01    rms(broyden)= 0.21156E-01
  rms(prec ) = 0.68575E-01
  weight for this iteration     100.00

 eigenvalues of (default mixing * dielectric matrix)
  average eigenvalue GAMMA=   1.6913
  2.2410  1.1416

 Free energy of the ion-electron system (eV)
  ---------------------------------------------------
  alpha Z        PSCENC =        30.58334069
  Ewald energy   TEWEN  =      -197.90100875
  -1/2 Hartree   DENC   =        -0.54185224
  -exchange  EXHF       =         0.00000000
  -V(xc)+E(xc)   XCENC  =       -65.98181292
  PAW double counting   =       186.44428003     -112.98511604
  entropy T*S    EENTRO =        -0.00022792
  eigenvalues    EBANDS =        17.87321681
  atomic energy  EATOM  =       130.64621481
  ---------------------------------------------------
  free energy    TOTEN  =       -11.86296554 eV

  energy without entropy =      -11.86273761  energy(sigma->0) =      -11.86288956


--------------------------------------------------------------------------------------------------------




----------------------------------------- Iteration    1(   8)  ---------------------------------------


    POTLOK:  cpu time    0.06: real time    0.06
    SETDIJ:  cpu time    0.01: real time    0.02
     EDDAV:  cpu time    1.67: real time    1.67
       DOS:  cpu time    0.01: real time    0.01
    CHARGE:  cpu time    0.12: real time    0.13
    MIXING:  cpu time    0.00: real time    0.00
    --------------------------------------------
      LOOP:  cpu time    1.87: real time    1.92

 eigenvalue-minimisations  :  1848
 total energy-change (2. order) :-0.1717804E-03  (-0.5102112E-04)
 number of electron       5.0000001 magnetization 
 augmentation part        0.4032536 magnetization 

 Broyden mixing:
  rms(total) = 0.22880E-01    rms(broyden)= 0.22879E-01
  rms(prec ) = 0.75966E-01
  weight for this iteration     100.00

 eigenvalues of (default mixing * dielectric matrix)
  average eigenvalue GAMMA=   2.0230
  1.1850  2.9480  1.9361

 Free energy of the ion-electron system (eV)
  ---------------------------------------------------
  alpha Z        PSCENC =        30.58334069
  Ewald energy   TEWEN  =      -197.90100875
  -1/2 Hartree   DENC   =        -0.53428490
  -exchange  EXHF       =         0.00000000
  -V(xc)+E(xc)   XCENC  =       -65.97748538
  PAW double counting   =       186.11067727     -112.65125288
  entropy T*S    EENTRO =        -0.00022594
  eigenvalues    EBANDS =        17.86088777
  atomic energy  EATOM  =       130.64621481
  ---------------------------------------------------
  free energy    TOTEN  =       -11.86313732 eV

  energy without entropy =      -11.86291137  energy(sigma->0) =      -11.86306200


--------------------------------------------------------------------------------------------------------




----------------------------------------- Iteration    1(   9)  ---------------------------------------


    POTLOK:  cpu time    0.05: real time    0.06
    SETDIJ:  cpu time    0.02: real time    0.02
     EDDAV:  cpu time    1.59: real time    1.59
       DOS:  cpu time    0.01: real time    0.01
    CHARGE:  cpu time    0.12: real time    0.13
    MIXING:  cpu time    0.00: real time    0.00
    --------------------------------------------
      LOOP:  cpu time    1.79: real time    1.81

 eigenvalue-minimisations  :  1728
 total energy-change (2. order) : 0.8228024E-03  (-0.3987184E-03)
 number of electron       5.0000001 magnetization 
 augmentation part        0.4022996 magnetization 

 Broyden mixing:
  rms(total) = 0.59419E-02    rms(broyden)= 0.59419E-02
  rms(prec ) = 0.16837E-01
  weight for this iteration     100.00

 eigenvalues of (default mixing * dielectric matrix)
  average eigenvalue GAMMA=   1.6149
  2.5662  2.0814  0.9462  0.8656

 Free energy of the ion-electron system (eV)
  ---------------------------------------------------
  alpha Z        PSCENC =        30.58334069
  Ewald energy   TEWEN  =      -197.90100875
  -1/2 Hartree   DENC   =        -0.59968727
  -exchange  EXHF       =         0.00000000
  -V(xc)+E(xc)   XCENC  =       -65.99999036
  PAW double counting   =       194.16356838     -120.75378755
  entropy T*S    EENTRO =        -0.00024640
  eigenvalues    EBANDS =        17.99928194
  atomic energy  EATOM  =       130.64621481
  ---------------------------------------------------
  free energy    TOTEN  =       -11.86231451 eV

  energy without entropy =      -11.86206811  energy(sigma->0) =      -11.86223238


--------------------------------------------------------------------------------------------------------




----------------------------------------- Iteration    1(  10)  ---------------------------------------


    POTLOK:  cpu time    0.06: real time    0.06
    SETDIJ:  cpu time    0.01: real time    0.02
     EDDAV:  cpu time    1.15: real time    1.15
       DOS:  cpu time    0.01: real time    0.01
    --------------------------------------------
      LOOP:  cpu time    1.23: real time    1.48

 eigenvalue-minimisations  :  1044
 total energy-change (2. order) : 0.4372599E-04  (-0.5733544E-05)
 number of electron       5.0000001 magnetization 
 augmentation part        0.4022996 magnetization 

 Free energy of the ion-electron system (eV)
  ---------------------------------------------------
  alpha Z        PSCENC =        30.58334069
  Ewald energy   TEWEN  =      -197.90100875
  -1/2 Hartree   DENC   =        -0.59452817
  -exchange  EXHF       =         0.00000000
  -V(xc)+E(xc)   XCENC  =       -66.00068092
  PAW double counting   =       192.97975278     -119.55861458
  entropy T*S    EENTRO =        -0.00025540
  eigenvalues    EBANDS =        17.98350875
  atomic energy  EATOM  =       130.64621481
  ---------------------------------------------------
  free energy    TOTEN  =       -11.86227079 eV

  energy without entropy =      -11.86201539  energy(sigma->0) =      -11.86218565


--------------------------------------------------------------------------------------------------------




 average (electrostatic) potential at core
  the test charge radii are     1.2538
  (the norm of the test charge is              1.0000)
       1 -35.0234
 
 
 
 E-fermi :   5.7226     XC(G=0): -12.3692     alpha+bet :-13.5035


 k-point   1 :       0.0312    0.0312    0.0312
  band No.  band energies     occupation 
      1      -1.9265      2.00000
      2       6.3075      0.00000
      3       6.3075      0.00000
      4       6.7402      0.00000
      5       9.5557      0.00000
      6       9.5557      0.00000

 k-point   2 :       0.0938    0.0312    0.0312
  band No.  band energies     occupation 
      1      -1.4424      2.00000
      2       5.9896      0.00000
      3       6.1307      0.00000
      4       7.2805      0.00000
      5       9.2186      0.00000
      6       9.6196      0.00000

 k-point   3 :       0.1562    0.0312    0.0312
  band No.  band energies     occupation 
      1      -0.7054      2.00000
      2       5.5672      2.00010
      3       5.8248     -0.01388
      4       8.1085      0.00000
      5       9.0455      0.00000
      6       9.7200      0.00000

 k-point   4 :       0.2188    0.0312    0.0312
  band No.  band energies     occupation 
      1       0.1535      2.00000
      2       5.1280      2.00000
      3       5.5080      2.00000
      4       9.0794      0.00000
      5       9.2626      0.00000
      6       9.8671      0.00000

 k-point   5 :       0.2812    0.0313    0.0312
  band No.  band energies     occupation 
      1       0.9053      2.00000
      2       4.7350      2.00000
      3       5.4816      2.00000
      4       9.3671      0.00000
      5      10.0673      0.00000
      6      10.5167      0.00000

 k-point   6 :       0.3438    0.0313    0.0313
  band No.  band energies     occupation 
      1       1.3210      2.00000
      2       4.4298      2.00000
      3       5.9630      0.00000
      4       9.5936      0.00000
      5      10.2986      0.00000
      6      11.8859      0.00000

 k-point   7 :       0.4062    0.0313    0.0312
  band No.  band energies     occupation 
      1       1.4393      2.00000
      2       4.2375      2.00000
      3       6.7330      0.00000
      4       9.6478      0.00000
      5      10.4983      0.00000
      6      13.0704      0.00000

 k-point   8 :       0.4688    0.0312    0.0312
  band No.  band energies     occupation 
      1       1.4518      2.00000
      2       4.1721      2.00000
      3       7.1474      0.00000
      4       9.5965      0.00000
      5      10.5800      0.00000
      6      13.5831      0.00000

 k-point   9 :      -0.0312    0.0312    0.0312
  band No.  band energies     occupation 
      1      -2.0942      2.00000
      2       6.4286      0.00000
      3       6.4287      0.00000
      4       6.4833      0.00000
      5       9.5323      0.00000
      6       9.7308      0.00000

 k-point  10 :       0.0938    0.0938    0.0312
  band No.  band energies     occupation 
      1      -0.8389      2.00000
      2       5.6798      2.00604
      3       5.7481      0.25063
      4       8.0551      0.00000
      5       9.0796      0.00000
      6       9.6921      0.00000

 k-point  11 :       0.1562    0.0938    0.0312
  band No.  band energies     occupation 
      1      -0.0299      2.00000
      2       5.2606      2.00000
      3       5.3868      2.00000
      4       8.9883      0.00000
      5       9.1153      0.00000
      6       9.9006      0.00000

 k-point  12 :       0.2188    0.0938    0.0312
  band No.  band energies     occupation 
      1       0.8219      2.00000
      2       4.8517      2.00000
      3       5.1715      2.00000
      4       9.1553      0.00000
      5      10.1146      0.00000
      6      10.3419      0.00000

 k-point  13 :       0.2812    0.0938    0.0313
  band No.  band energies     occupation 
      1       1.4502      2.00000
      2       4.5257      2.00000
      3       5.3541      2.00000
      4       9.4166      0.00000
      5      10.3111      0.00000
      6      11.7051      0.00000

 k-point  14 :       0.3438    0.0938    0.0313
  band No.  band energies     occupation 
      1       1.7043      2.00000
      2       4.3005      2.00000
      3       5.9976      0.00000
      4       9.6162      0.00000
      5      10.4896      0.00000
      6      13.0056      0.00000

 k-point  15 :       0.4062    0.0938    0.0312
  band No.  band energies     occupation 
      1       1.7474      2.00000
      2       4.1853      2.00000
      3       6.6420      0.00000
      4       9.6269      0.00000
      5      10.6422      0.00000
      6      13.8931      0.00000

 k-point  16 :      -0.0938    0.0938    0.0312
  band No.  band energies     occupation 
      1      -1.7606      2.00000
      2       6.2285      0.00000
      3       6.3576      0.00000
      4       6.8037      0.00000
      5       9.1565      0.00000
      6       9.7966      0.00000

 k-point  17 :       0.1562    0.1562    0.0312
  band No.  band energies     occupation 
      1       0.8048      2.00000
      2       4.9130      2.00000
      3       5.0267      2.00000
      4       9.0232      0.00000
      5      10.1823      0.00000
      6      10.3026      0.00000

 k-point  18 :       0.2188    0.1562    0.0312
  band No.  band energies     occupation 
      1       1.6101      2.00000
      2       4.5755      2.00000
      3       4.9275      2.00000
      4       9.1945      0.00000
      5      10.3895      0.00000
      6      11.6758      0.00000

 k-point  19 :       0.2812    0.1562    0.0312
  band No.  band energies     occupation 
      1       2.0986      2.00000
      2       4.3647      2.00000
      3       5.2319      2.00000
      4       9.4575      0.00000
      5      10.5037      0.00000
      6      13.0734      0.00000

 k-point  20 :       0.3438    0.1562    0.0313
  band No.  band energies     occupation 
      1       2.2317      2.00000
      2       4.2457      2.00000
      3       5.8356     -0.00636
      4       9.6200      0.00000
      5      10.6270      0.00000
      6      14.2487      0.00000

 k-point  21 :       0.4062    0.1563    0.0312
  band No.  band energies     occupation 
      1       2.2417      2.00000
      2       4.2062      2.00000
      3       6.1556      0.00000
      4       9.6257      0.00000
      5      10.7345      0.00000
      6      14.7570      0.00000

 k-point  22 :      -0.1562    0.1562    0.0312
  band No.  band energies     occupation 
      1      -1.1353      2.00000
      2       5.8602     -0.00070
      3       6.1355      0.00000
      4       7.4644      0.00000
      5       8.8337      0.00000
      6       9.8562      0.00000

 k-point  23 :      -0.0938    0.1562    0.0312
  band No.  band energies     occupation 
      1      -1.2820      2.00000
      2       6.0646      0.00000
      3       6.1670      0.00000
      4       7.2505      0.00000
      5       8.6901      0.00000
      6       9.9683      0.00000

 k-point  24 :       0.2188    0.2188    0.0312
  band No.  band energies     occupation 
      1       2.3293      2.00000
      2       4.3522      2.00000
      3       4.9078      2.00000
      4       9.3697      0.00000
      5      10.5083      0.00000
      6      13.1231      0.00000

 k-point  25 :       0.2812    0.2188    0.0312
  band No.  band energies     occupation 
      1       2.7143      2.00000
      2       4.2832      2.00000
      3       5.1629      2.00000
      4       9.6269      0.00000
      5      10.5275      0.00000
      6      14.5235      0.00000

 k-point  26 :       0.3438    0.2188    0.0312
  band No.  band energies     occupation 
      1       2.7998      2.00000
      2       4.2822      2.00000
      3       5.4965      2.00000
      4       9.7657      0.00000
      5      10.6288      0.00000
      6      15.1360      0.00000

 k-point  27 :      -0.2188    0.2188    0.0312
  band No.  band energies     occupation 
      1      -0.3147      2.00000
      2       5.4241      2.00000
      3       5.7740     -0.05557
      4       8.4220      0.00000
      5       8.8025      0.00000
      6       9.9556      0.00000

 k-point  28 :      -0.1562    0.2188    0.0312
  band No.  band energies     occupation 
      1      -0.5530      2.00000
      2       5.6958      1.77851
      3       5.8549     -0.00118
      4       8.0578      0.00000
      5       8.4427      0.00000
      6      10.1274      0.00000

 k-point  29 :       0.2812    0.2812    0.0312
  band No.  band energies     occupation 
      1       3.0926      2.00000
      2       4.3761      2.00000
      3       5.0941      2.00000
      4       9.9178      0.00000
      5      10.4789      0.00000
      6      14.8927      0.00000

 k-point  30 :       0.3438    0.2813    0.0312
  band No.  band energies     occupation 
      1       3.1907      2.00000
      2       4.5026      2.00000
      3       5.0283      2.00000
      4      10.0874      0.00000
      5      10.4701      0.00000
      6      14.2996      0.00000

 k-point  31 :      -0.2812    0.2812    0.0312
  band No.  band energies     occupation 
      1       0.5197      2.00000
      2       4.9979      2.00000
      3       5.5323      2.00000
      4       9.0241      0.00000
      5       9.6271      0.00000
      6      10.1022      0.00000

 k-point  32 :      -0.2188    0.2812    0.0312
  band No.  band energies     occupation 
      1       0.2995      2.00000
      2       5.2609      2.00000
      3       5.5103      2.00000
      4       8.5258      0.00000
      5       9.1592      0.00000
      6      10.2811      0.00000

 k-point  33 :      -0.1562    0.2812    0.0312
  band No.  band energies     occupation 
      1       0.2292      2.00000
      2       5.3734      2.00000
      3       5.4996      2.00000
      4       8.2906      0.00000
      5       9.0247      0.00000
      6      10.3666      0.00000

 k-point  34 :      -0.3438    0.3437    0.0312
  band No.  band energies     occupation 
      1       1.1130      2.00000
      2       4.6377      2.00000
      3       5.7218      1.02781
      4       9.3341      0.00000
      5      10.2780      0.00000
      6      10.9919      0.00000

 k-point  35 :      -0.2812    0.3438    0.0312
  band No.  band energies     occupation 
      1       1.0530      2.00000
      2       4.8733      2.00000
      3       5.3998      2.00000
      4       8.8465      0.00000
      5      10.3742      0.00000
      6      10.4987      0.00000

 k-point  36 :      -0.2188    0.3438    0.0312
  band No.  band energies     occupation 
      1       1.0636      2.00000
      2       4.9293      2.00000
      3       5.3002      2.00000
      4       8.4412      0.00000
      5      10.2063      0.00000
      6      10.5693      0.00000

 k-point  37 :      -0.4062    0.4062    0.0312
  band No.  band energies     occupation 
      1       1.3546      2.00000
      2       4.3801      2.00000
      3       6.3667      0.00000
      4       9.5213      0.00000
      5      10.4822      0.00000
      6      12.3371      0.00000

 k-point  38 :      -0.3438    0.4062    0.0312
  band No.  band energies     occupation 
      1       1.4745      2.00000
      2       4.5806      2.00000
      3       5.7471      0.27228
      4       9.1882      0.00000
      5      10.5396      0.00000
      6      11.8540      0.00000

 k-point  39 :      -0.2812    0.4062    0.0312
  band No.  band energies     occupation 
      1       1.7037      2.00000
      2       4.6529      2.00000
      3       5.2931      2.00000
      4       8.7863      0.00000
      5      10.5295      0.00000
      6      11.7016      0.00000

 k-point  40 :      -0.2188    0.4062    0.0312
  band No.  band energies     occupation 
      1       1.8331      2.00000
      2       4.5399      2.00000
      3       5.2462      2.00000
      4       8.5985      0.00000
      5      10.5053      0.00000
      6      11.6926      0.00000

 k-point  41 :      -0.4688    0.4688    0.0312
  band No.  band energies     occupation 
      1       1.4002      2.00000
      2       4.2463      2.00000
      3       7.0176      0.00000
      4       9.4741      0.00000
      5      10.6730      0.00000
      6      13.2801      0.00000

 k-point  42 :      -0.4062    0.4688    0.0312
  band No.  band energies     occupation 
      1       1.5924      2.00000
      2       4.3967      2.00000
      3       6.3693      0.00000
      4       9.2744      0.00000
      5      10.7966      0.00000
      6      13.0591      0.00000

 k-point  43 :      -0.3438    0.4688    0.0312
  band No.  band energies     occupation 
      1       1.9756      2.00000
      2       4.5122      2.00000
      3       5.6320      2.02792
      4       9.0655      0.00000
      5      10.6759      0.00000
      6      13.0694      0.00000

 k-point  44 :      -0.2812    0.4688    0.0312
  band No.  band energies     occupation 
      1       2.3738      2.00000
      2       4.3615      2.00000
      3       5.2871      2.00000
      4       8.9285      0.00000
      5      10.4823      0.00000
      6      13.1690      0.00000

 k-point  45 :      -0.4688   -0.4688    0.0312
  band No.  band energies     occupation 
      1       1.6036      2.00000
      2       4.3341      2.00000
      3       6.7036      0.00000
      4       9.2064      0.00000
      5      10.9777      0.00000
      6      13.5839      0.00000

 k-point  46 :      -0.4062   -0.4688    0.0312
  band No.  band energies     occupation 
      1       2.0212      2.00000
      2       4.4395      2.00000
      3       6.0371      0.00000
      4       9.0671      0.00000
      5      10.9978      0.00000
      6      14.0435      0.00000

 k-point  47 :      -0.3438   -0.4688    0.0313
  band No.  band energies     occupation 
      1       2.5625      2.00000
      2       4.4023      2.00000
      3       5.4140      2.00000
      4       9.1541      0.00000
      5      10.6609      0.00000
      6      14.5226      0.00000

 k-point  48 :      -0.2812   -0.4688    0.0313
  band No.  band energies     occupation 
[...]
      4       7.8822      0.00000
      5      12.2827      0.00000
      6      13.0551      0.00000

 k-point 104 :      -0.4062    0.4688    0.1562
  band No.  band energies     occupation 
      1       2.5745      2.00000
      2       4.5709      2.00000
      3       5.6087      2.00588
      4       7.8876      0.00000
      5      11.5999      0.00000
      6      13.2037      0.00000

 k-point 105 :      -0.3438    0.4688    0.1562
  band No.  band energies     occupation 
      1       3.0240      2.00000
      2       3.9447      2.00000
      3       5.6992      1.70377
      4       8.4137      0.00000
      5      10.5951      0.00000
      6      13.4227      0.00000

 k-point 106 :      -0.4688   -0.4688    0.1562
  band No.  band energies     occupation 
      1       2.5588      2.00000
      2       4.7611      2.00000
      3       5.4645      2.00000
      4       7.7989      0.00000
      5      12.1761      0.00000
      6      13.9062      0.00000

 k-point 107 :      -0.4062   -0.4688    0.1562
  band No.  band energies     occupation 
      1       3.0315      2.00000
      2       4.2172      2.00000
      3       5.2893      2.00000
      4       8.5232      0.00000
      5      11.3236      0.00000
      6      14.8061      0.00000

 k-point 108 :      -0.3438   -0.4688    0.1563
  band No.  band energies     occupation 
      1       3.5466      2.00000
      2       3.6730      2.00000
      3       5.1769      2.00000
      4       9.2317      0.00000
      5      10.5960      0.00000
      6      15.0432      0.00000

 k-point 109 :      -0.4062   -0.4062    0.1562
  band No.  band energies     occupation 
      1       3.5330      2.00000
      2       3.9372      2.00000
      3       4.8002      2.00000
      4       9.5918      0.00000
      5      10.7156      0.00000
      6      15.4081      0.00000

 k-point 110 :       0.2188    0.2188    0.2188
  band No.  band energies     occupation 
      1       4.2599      2.00000
      2       4.2599      2.00000
      3       4.5443      2.00000
      4      10.6657      0.00000
      5      10.6657      0.00000
      6      13.4318      0.00000

 k-point 111 :       0.2812    0.2188    0.2187
  band No.  band energies     occupation 
      1       4.2682      2.00000
      2       4.3029      2.00000
      3       4.7539      2.00000
      4      10.6934      0.00000
      5      10.7358      0.00000
      6      12.9349      0.00000

 k-point 112 :      -0.2188    0.2188    0.2187
  band No.  band energies     occupation 
      1       1.2592      2.00000
      2       5.4890      2.00000
      3       6.6690      0.00000
      4       6.6690      0.00000
      5       8.3492      0.00000
      6      10.8315      0.00000

 k-point 113 :      -0.2812    0.2812    0.2187
  band No.  band energies     occupation 
      1       1.9857      2.00000
      2       4.7398      2.00000
      3       6.6871      0.00000
      4       7.1059      0.00000
      5       9.2080      0.00000
      6      10.7133      0.00000

 k-point 114 :      -0.3438    0.3437    0.2187
  band No.  band energies     occupation 
      1       2.5424      2.00000
      2       4.2058      2.00000
      3       6.5071      0.00000
      4       7.5574      0.00000
      5      10.4899      0.00000
      6      10.8461      0.00000

 k-point 115 :      -0.2812    0.3438    0.2187
  band No.  band energies     occupation 
      1       2.5746      2.00000
      2       4.1288      2.00000
      3       6.8296      0.00000
      4       7.5167      0.00000
      5       9.9369      0.00000
      6      10.7804      0.00000

 k-point 116 :      -0.4062    0.4062    0.2187
  band No.  band energies     occupation 
      1       2.7366      2.00000
      2       4.1025      2.00000
      3       6.3347      0.00000
      4       7.5812      0.00000
      5      11.7302      0.00000
      6      11.8579      0.00000

 k-point 117 :      -0.3438    0.4062    0.2187
  band No.  band energies     occupation 
      1       2.9440      2.00000
      2       3.7228      2.00000
      3       6.6242      0.00000
      4       7.9717      0.00000
      5      10.5789      0.00000
      6      11.8629      0.00000

 k-point 118 :      -0.4688    0.4688    0.2187
  band No.  band energies     occupation 
      1       2.6950      2.00000
      2       4.2451      2.00000
      3       6.2379      0.00000
      4       7.3919      0.00000
      5      12.8718      0.00000
      6      12.9876      0.00000

 k-point 119 :      -0.4062    0.4688    0.2187
  band No.  band energies     occupation 
      1       2.9386      2.00000
      2       3.7421      2.00000
      3       6.3604      0.00000
      4       8.0554      0.00000
      5      11.6062      0.00000
      6      13.3442      0.00000

 k-point 120 :      -0.3438    0.4688    0.2187
  band No.  band energies     occupation 
      1       3.2375      2.00000
      2       3.3529      2.00000
      3       6.2717      0.00000
      4       8.8341      0.00000
      5      10.7071      0.00000
      6      13.4577      0.00000

 k-point 121 :      -0.4688   -0.4688    0.2187
  band No.  band energies     occupation 
      1       2.8732      2.00000
      2       3.8303      2.00000
      3       6.2375      0.00000
      4       8.0334      0.00000
      5      12.2568      0.00000
      6      14.3339      0.00000

 k-point 122 :      -0.4062   -0.4688    0.2187
  band No.  band energies     occupation 
      1       3.1209      2.00000
      2       3.4581      2.00000
      3       5.9709      0.00000
      4       9.2848      0.00000
      5      11.2366      0.00000
      6      15.0556      0.00000

 k-point 123 :      -0.4062   -0.4062    0.2187
  band No.  band energies     occupation 
      1       3.2773      2.00000
      2       3.2773      2.00000
      3       5.7949     -0.06001
      4      10.4779      0.00000
      5      10.4779      0.00000
      6      15.5152      0.00000

 k-point 124 :      -0.2812    0.2812    0.2812
  band No.  band energies     occupation 
      1       2.5417      2.00000
      2       4.1455      2.00000
      3       7.3511      0.00000
      4       7.3511      0.00000
      5       9.4598      0.00000
      6      10.5138      0.00000

 k-point 125 :      -0.3438    0.3437    0.2812
  band No.  band energies     occupation 
      1       2.8933      2.00000
      2       3.6004      2.00000
      3       7.5636      0.00000
      4       7.7827      0.00000
      5      10.3885      0.00000
      6      10.7093      0.00000

 k-point 126 :      -0.4062    0.4062    0.2812
  band No.  band energies     occupation 
      1       2.9344      2.00000
      2       3.3576      2.00000
      3       7.5331      0.00000
      4       7.8553      0.00000
      5      11.6604      0.00000
      6      11.8150      0.00000

 k-point 127 :      -0.3438    0.4062    0.2812
  band No.  band energies     occupation 
      1       3.0029      2.00000
      2       3.1534      2.00000
      3       7.5856      0.00000
      4       8.5693      0.00000
      5      10.7375      0.00000
      6      11.7762      0.00000

 k-point 128 :      -0.4688    0.4688    0.2812
  band No.  band energies     occupation 
      1       2.7891      2.00000
      2       3.3879      2.00000
      3       7.4841      0.00000
      4       7.7503      0.00000
      5      12.6805      0.00000
      6      13.4074      0.00000

 k-point 129 :      -0.4062    0.4688    0.2812
  band No.  band energies     occupation 
      1       2.8337      2.00000
      2       3.0509      2.00000
      3       7.4146      0.00000
      4       9.0224      0.00000
      5      11.5516      0.00000
      6      13.3828      0.00000

 k-point 130 :      -0.4688   -0.4688    0.2812
  band No.  band energies     occupation 
      1       2.7318      2.00000
      2       3.0527      2.00000
      3       7.3391      0.00000
      4       9.1030      0.00000
      5      12.1608      0.00000
      6      14.6747      0.00000

 k-point 131 :      -0.4062   -0.4688    0.2812
  band No.  band energies     occupation 
      1       2.7764      2.00000
      2       2.8660      2.00000
      3       7.2391      0.00000
      4      10.2526      0.00000
      5      11.3043      0.00000
      6      15.1246      0.00000

 k-point 132 :      -0.3438    0.3437    0.3437
  band No.  band energies     occupation 
      1       2.9184      2.00000
      2       3.0854      2.00000
      3       8.4766      0.00000
      4       8.4766      0.00000
      5      10.6528      0.00000
      6      10.8406      0.00000

 k-point 133 :      -0.4062    0.4062    0.3438
  band No.  band energies     occupation 
      1       2.7096      2.00000
      2       2.8058      2.00000
      3       8.8681      0.00000
      4       8.8866      0.00000
      5      11.5488      0.00000
      6      11.8722      0.00000

 k-point 134 :      -0.4688    0.4688    0.3437
  band No.  band energies     occupation 
      1       2.5151      2.00000
      2       2.7135      2.00000
      3       8.9353      0.00000
      4       8.9435      0.00000
      5      12.5109      0.00000
      6      13.5888      0.00000

 k-point 135 :      -0.4062    0.4688    0.3438
  band No.  band energies     occupation 
      1       2.4647      2.00000
      2       2.5692      2.00000
      3       8.8782      0.00000
      4      10.0963      0.00000
      5      11.7710      0.00000
      6      13.3692      0.00000

 k-point 136 :      -0.4688   -0.4688    0.3438
  band No.  band energies     occupation 
      1       2.3890      2.00000
      2       2.4710      2.00000
      3       8.8545      0.00000
      4      10.5425      0.00000
      5      12.0342      0.00000
      6      14.8526      0.00000

 k-point 137 :      -0.4062    0.4062    0.4062
  band No.  band energies     occupation 
      1       2.3585      2.00000
      2       2.4639      2.00000
      3      10.0408      0.00000
      4      10.0408      0.00000
      5      11.7259      0.00000
      6      12.3264      0.00000

 k-point 138 :      -0.4688    0.4688    0.4062
  band No.  band energies     occupation 
      1       2.1831      2.00000
      2       2.2516      2.00000
      3      10.5225      0.00000
      4      10.5261      0.00000
      5      12.3900      0.00000
      6      13.6788      0.00000

 k-point 139 :      -0.4688   -0.4688    0.4062
  band No.  band energies     occupation 
      1       2.1116      2.00000
      2       2.1116      2.00000
      3      10.5800      0.00000
      4      11.9395      0.00000
      5      11.9395      0.00000
      6      14.9183      0.00000

 k-point 140 :      -0.4688    0.4688    0.4687
  band No.  band energies     occupation 
      1       1.9897      2.00000
      2       2.0098      2.00000
      3      11.9052      0.00000
      4      11.9052      0.00000
      5      12.3899      0.00000
      6      13.9625      0.00000


--------------------------------------------------------------------------------------------------------


 soft charge-density along one line, spin component           1
         0         1         2         3         4         5         6         7         8         9
 total charge-density along one line
 
 pseudopotential strength for first ion, spin component:           1
 -6.574   0.000   0.003   0.000   0.002   0.090   0.000   0.000
  0.000  -6.572   0.000   0.003   0.000   0.000   0.090   0.000
  0.003   0.000  -6.571   0.000  -0.001   0.000   0.000   0.090
  0.000   0.003   0.000  -6.574   0.000   0.000   0.000   0.000
  0.002   0.000  -0.001   0.000  -6.570   0.000   0.000   0.000
  0.090   0.000   0.000   0.000   0.000   0.071   0.000   0.000
  0.000   0.090   0.000   0.000   0.000   0.000   0.071   0.000
  0.000   0.000   0.090   0.000   0.000   0.000   0.000   0.071
  0.000   0.000   0.000   0.090   0.000   0.000   0.000   0.000
  0.000   0.000   0.000   0.000   0.090   0.000   0.000   0.000
  0.000   0.000   0.000   0.000   0.000   0.000   0.000   0.000
  0.000   0.000   0.000   0.000   0.000   0.000   0.000   0.000
  0.000   0.000   0.000   0.000   0.000   0.000   0.000   0.000
  0.000   0.000   0.000   0.000   0.000   0.000   0.000   0.000
  0.000   0.000   0.000   0.000   0.000   0.000   0.000   0.000
  0.000   0.000   0.000   0.000   0.000   0.000   0.000   0.000
  0.000   0.000   0.000   0.000   0.000   0.000   0.000   0.000
  0.000   0.000   0.000   0.000   0.000   0.000   0.000   0.000
 total augmentation occupancy for first ion, spin component:           1
  0.638   0.000   0.084   0.000   0.049  -0.519   0.000  -0.022   0.000  -0.013   0.000   0.000   0.000   0.000   0.000   0.000
  0.000   0.707   0.000   0.097   0.000   0.000  -0.537   0.000  -0.025   0.000   0.000   0.000   0.000   0.000   0.000   0.000
  0.084   0.000   0.724   0.000  -0.030  -0.022   0.000  -0.541   0.000   0.008   0.000   0.000   0.000   0.000   0.000   0.000
  0.000   0.097   0.000   0.638   0.000   0.000  -0.025   0.000  -0.519   0.000   0.000   0.000   0.000   0.000   0.000   0.000
  0.049   0.000  -0.030   0.000   0.758  -0.013   0.000   0.008   0.000  -0.550   0.000   0.000   0.000   0.000   0.000   0.000
 -0.519   0.000  -0.022   0.000  -0.013   0.466   0.000  -0.014   0.000  -0.008   0.000   0.000   0.000   0.000   0.000   0.000
  0.000  -0.537   0.000  -0.025   0.000   0.000   0.455   0.000  -0.016   0.000   0.000   0.000   0.000   0.000   0.000   0.000
 -0.022   0.000  -0.541   0.000   0.008  -0.014   0.000   0.452   0.000   0.005   0.000   0.000   0.000   0.000   0.000   0.000
  0.000  -0.025   0.000  -0.519   0.000   0.000  -0.016   0.000   0.466   0.000   0.000   0.000   0.000   0.000   0.000   0.000
 -0.013   0.000   0.008   0.000  -0.550  -0.008   0.000   0.005   0.000   0.446   0.000   0.000   0.000   0.000   0.000   0.000
  0.000   0.000   0.000   0.000   0.000   0.000   0.000   0.000   0.000   0.000   1.398  -0.284   0.000   0.000   0.000   0.000
  0.000   0.000   0.000   0.000   0.000   0.000   0.000   0.000   0.000   0.000  -0.284   0.062   0.000   0.000   0.000   0.000
  0.000   0.000   0.000   0.000   0.000   0.000   0.000   0.000   0.000   0.000   0.000   0.000   0.301   0.000   0.000   0.012
  0.000   0.000   0.000   0.000   0.000   0.000   0.000   0.000   0.000   0.000   0.000   0.000   0.000   0.301   0.000   0.000
  0.000   0.000   0.000   0.000   0.000   0.000   0.000   0.000   0.000   0.000   0.000   0.000   0.000   0.000   0.301   0.000
  0.000   0.000   0.000   0.000   0.000   0.000   0.000   0.000   0.000   0.000   0.000   0.000   0.012   0.000   0.000   0.001
  0.000   0.000   0.000   0.000   0.000   0.000   0.000   0.000   0.000   0.000   0.000   0.000   0.000   0.012   0.000   0.000
  0.000   0.000   0.000   0.000   0.000   0.000   0.000   0.000   0.000   0.000   0.000   0.000   0.000   0.000   0.012   0.000


------------------------ aborting loop because EDIFF is reached ----------------------------------------


    CHARGE:  cpu time    0.13: real time    0.13
    FORLOC:  cpu time    0.00: real time    0.00
    FORNL :  cpu time    0.17: real time    0.17
    STRESS:  cpu time    0.69: real time    0.69
    FORCOR:  cpu time    0.06: real time    0.06
    FORHAR:  cpu time    0.01: real time    0.02
    MIXING:  cpu time    0.00: real time    0.00

  FORCE on cell =-STRESS in cart. coord.  units (eV):
  Direction    XX          YY          ZZ          XY          YZ          ZX
  --------------------------------------------------------------------------------------
  Alpha Z    30.58334    30.58334    30.58334
  Ewald     -65.96700   -65.96700   -65.96700     0.00000     0.00000     0.00000
  Hartree     0.19721     0.19721     0.19721     0.00000     0.00000     0.00000
  E(xc)     -22.45950   -22.45950   -22.45950     0.00000     0.00000     0.00000
  Local       3.85428     3.85428     3.85428     0.00000     0.00000     0.00000
  n-local    -7.77107    -8.57071    -5.78515     1.50867    -2.16216    -1.60079
  augment     2.91748     2.91748     2.91748     0.00000     0.00000     0.00000
  Kinetic    59.18693    60.04395    55.24523     0.17974     2.93693     1.56231
  Fock        0.00000     0.00000     0.00000     0.00000     0.00000     0.00000
  -------------------------------------------------------------------------------------
  Total      -0.09112    -0.09112    -0.09112     0.00000     0.00000     0.00000
  in kB      -8.05182    -8.05182    -8.05182     0.00000     0.00000     0.00000
  external pressure =       -8.05 kB  Pullay stress =        0.00 kB


 VOLUME and BASIS-vectors are now :
 -----------------------------------------------------------------------------
  energy-cutoff  :      350.00
  volume of cell :       18.13
      direct lattice vectors                 reciprocal lattice vectors
     2.866544087  0.000000000  0.000000000     0.348852126  0.123337852  0.213627426
    -0.955514696  2.702603683  0.000000000     0.000000000  0.370013556  0.213627426
    -0.955514696 -1.351301841  2.340523446     0.000000000  0.000000000  0.427254853

  length of vectors
     2.866544087  2.866544087  2.866544087     0.427254853  0.427254853  0.427254853


 FORCES acting on ions
    electron-ion (+dipol)            ewald-force                    non-local-force                 convergence-correction
 -----------------------------------------------------------------------------------------------
   -.121E-14 0.418E-17 0.197E-14   -.279E-15 -.214E-15 0.640E-15   0.290E-23 0.186E-23 0.000E+00   -.191E-14 -.157E-14 -.172E-14
 -----------------------------------------------------------------------------------------------
   -.121E-14 0.418E-17 0.197E-14   -.279E-15 -.214E-15 0.640E-15   0.290E-23 0.186E-23 0.000E+00   -.191E-14 -.157E-14 -.172E-14
 
 
 POSITION                                       TOTAL-FORCE (eV/Angst)
 -----------------------------------------------------------------------------------
      0.00000      0.00000      0.00000         0.000000      0.000000      0.000000
 -----------------------------------------------------------------------------------
    total drift:                                0.000000      0.000000      0.000000


--------------------------------------------------------------------------------------------------------



  FREE ENERGIE OF THE ION-ELECTRON SYSTEM (eV)
  ---------------------------------------------------
  free  energy   TOTEN  =       -11.862271 eV

  energy  without entropy=      -11.862015  energy(sigma->0) =      -11.862186
 


--------------------------------------------------------------------------------------------------------


    POTLOK:  cpu time    0.07: real time    0.08


--------------------------------------------------------------------------------------------------------


 writing wavefunctions
     LOOP+:  cpu time   19.33: real time   22.01
    4ORBIT:  cpu time    0.00: real time    0.00

 total amount of memory used by VASP on root node    43803. kBytes
========================================================================

   base      :      30000. kBytes
   nonl-proj :       5588. kBytes
   fftplans  :       1676. kBytes
   grid      :       2560. kBytes
   one-center:         15. kBytes
   wavefun   :       3964. kBytes
 
  
  
 General timing and accounting informations for this job:
 ========================================================
  
                  Total CPU time used (sec):       19.885
                            User time (sec):       19.774
                          System time (sec):        0.111
                         Elapsed time (sec):       27.331
  
                   Maximum memory used (kb):           0.
                   Average memory used (kb):           0.
  
                          Minor page faults:        10502
                          Major page faults:            0
                 Voluntary context switches:          555
