PROCAR lm decomposed
# of k-points:  140         # of bands:   6         # of ions:   1

 k-point    1 :    0.03125000 0.03125000 0.03125000     weight = 0.00195312

band   1 # energy   -1.91833306 # occ.  1.00000000
 
ion      s     py     pz     px    dxy    dyz    dz2    dxz    dx2    tot
  1  0.840  0.004  0.013  0.002  0.000  0.000  0.000  0.000  0.000  0.860
 
band   2 # energy    6.31658007 # occ.  0.00000000
 
ion      s     py     pz     px    dxy    dyz    dz2    dxz    dx2    tot
  1  0.000  0.002  0.000  0.000  0.231  0.095  0.193  0.027  0.500  1.049
 
band   3 # energy    6.31658007 # occ.  0.00000000
 
ion      s     py     pz     px    dxy    dyz    dz2    dxz    dx2    tot
  1  0.000  0.000  0.001  0.002  0.007  0.138  0.368  0.091  0.443  1.049
 
band   4 # energy    6.74915635 # occ.  0.00000000
 
ion      s     py     pz     px    dxy    dyz    dz2    dxz    dx2    tot
  1  0.000  0.002  0.006  0.001  0.077  0.461  0.259  0.231  0.010  1.046
 
band   5 # energy    9.55703672 # occ.  0.00000000
 
ion      s     py     pz     px    dxy    dyz    dz2    dxz    dx2    tot
  1  0.000  0.000  0.000  0.000  0.013  0.296  0.002  0.603  0.001  0.916
 
band   6 # energy    9.55703672 # occ.  0.00000000
 
ion      s     py     pz     px    dxy    dyz    dz2    dxz    dx2    tot
  1  0.000  0.000  0.000  0.000  0.636  0.009  0.182  0.005  0.084  0.916
 

 k-point    2 :    0.09375000 0.03125000 0.03125000     weight = 0.00585938

band   1 # energy   -1.43429393 # occ.  1.00000000
 
ion      s     py     pz     px    dxy    dyz    dz2    dxz    dx2    tot
  1  0.809  0.009  0.027  0.018  0.001  0.002  0.000  0.002  0.000  0.869
 
band   2 # energy    5.99865915 # occ.  0.00000000
 
ion      s     py     pz     px    dxy    dyz    dz2    dxz    dx2    tot
  1  0.000  0.002  0.001  0.000  0.200  0.193  0.433  0.067  0.144  1.040
 
band   3 # energy    6.13946744 # occ.  0.00000000
 
ion      s     py     pz     px    dxy    dyz    dz2    dxz    dx2    tot
  1  0.000  0.000  0.000  0.016  0.048  0.072  0.084  0.143  0.663  1.027
 
band   4 # energy    7.28927033 # occ.  0.00000000
 
ion      s     py     pz     px    dxy    dyz    dz2    dxz    dx2    tot
  1  0.000  0.006  0.018  0.000  0.065  0.356  0.313  0.195  0.078  1.031
 
band   5 # energy    9.22054895 # occ.  0.00000000
 
ion      s     py     pz     px    dxy    dyz    dz2    dxz    dx2    tot
  1  0.000  0.000  0.000  0.000  0.116  0.309  0.037  0.349  0.096  0.907
 
band   6 # energy    9.62108997 # occ.  0.00000000
 
ion      s     py     pz     px    dxy    dyz    dz2    dxz    dx2    tot
  1  0.000  0.001  0.000  0.000  0.526  0.053  0.120  0.175  0.040  0.914
 

 k-point    3 :    0.15625000 0.03125000 0.03125000     weight = 0.00585938

band   1 # energy   -0.69737292 # occ.  1.00000000
 
ion      s     py     pz     px    dxy    dyz    dz2    dxz    dx2    tot
  1  0.754  0.015  0.044  0.045  0.004  0.005  0.000  0.013  0.003  0.884
 
band   2 # energy    5.57625390 # occ.  1.00016287
 
ion      s     py     pz     px    dxy    dyz    dz2    dxz    dx2    tot
  1  0.000  0.003  0.001  0.000  0.193  0.193  0.434  0.064  0.145  1.033
 
band   3 # energy    5.83291282 # occ. -0.00348629
 
ion      s     py     pz     px    dxy    dyz    dz2    dxz    dx2    tot
  1  0.003  0.001  0.004  0.044  0.084  0.047  0.067  0.253  0.486  0.990
 
band   4 # energy    8.11696176 # occ.  0.00000000
 
ion      s     py     pz     px    dxy    dyz    dz2    dxz    dx2    tot
  1  0.001  0.011  0.033  0.000  0.060  0.254  0.316  0.180  0.153  1.008
 
band   5 # energy    9.04831298 # occ.  0.00000000
 
ion      s     py     pz     px    dxy    dyz    dz2    dxz    dx2    tot
  1  0.001  0.000  0.000  0.001  0.073  0.418  0.036  0.220  0.173  0.923
 
band   6 # energy    9.72161982 # occ.  0.00000000
 
ion      s     py     pz     px    dxy    dyz    dz2    dxz    dx2    tot
  1  0.000  0.002  0.001  0.000  0.530  0.051  0.115  0.177  0.038  0.913
 

 k-point    4 :    0.21875000 0.03125000 0.03125000     weight = 0.00585938

band   1 # energy    0.16147211 # occ.  1.00000000
 
ion      s     py     pz     px    dxy    dyz    dz2    dxz    dx2    tot
  1  0.670  0.019  0.056  0.066  0.016  0.012  0.000  0.049  0.018  0.905
 
band   2 # energy    5.13707880 # occ.  1.00000000
 
ion      s     py     pz     px    dxy    dyz    dz2    dxz    dx2    tot
  1  0.000  0.003  0.001  0.000  0.198  0.191  0.430  0.066  0.143  1.032
 
band   3 # energy    5.51541940 # occ.  1.00000005
 
ion      s     py     pz     px    dxy    dyz    dz2    dxz    dx2    tot
  1  0.016  0.006  0.018  0.100  0.102  0.017  0.060  0.306  0.329  0.953
 
band   4 # energy    9.08424428 # occ.  0.00000000
 
ion      s     py     pz     px    dxy    dyz    dz2    dxz    dx2    tot
  1  0.003  0.003  0.008  0.005  0.096  0.088  0.033  0.287  0.433  0.955
 
band   5 # energy    9.26937409 # occ.  0.00000000
 
ion      s     py     pz     px    dxy    dyz    dz2    dxz    dx2    tot
  1  0.000  0.014  0.042  0.000  0.003  0.594  0.311  0.009  0.006  0.980
 
band   6 # energy    9.86886794 # occ.  0.00000000
 
ion      s     py     pz     px    dxy    dyz    dz2    dxz    dx2    tot
  1  0.000  0.002  0.001  0.000  0.526  0.053  0.119  0.175  0.040  0.917
 

 k-point    5 :    0.28125000 0.03125000 0.03125000     weight = 0.00585938

band   1 # energy    0.91325278 # occ.  1.00000000
 
ion      s     py     pz     px    dxy    dyz    dz2    dxz    dx2    tot
  1  0.544  0.018  0.053  0.059  0.045  0.021  0.002  0.136  0.055  0.932
 
band   2 # energy    4.74407385 # occ.  1.00000000
 
ion      s     py     pz     px    dxy    dyz    dz2    dxz    dx2    tot
  1  0.000  0.004  0.001  0.000  0.210  0.187  0.422  0.070  0.141  1.034
 
band   3 # energy    5.48839976 # occ.  1.00000000
 
ion      s     py     pz     px    dxy    dyz    dz2    dxz    dx2    tot
  1  0.049  0.017  0.051  0.202  0.087  0.001  0.054  0.262  0.201  0.925
 
band   4 # energy    9.37109774 # occ.  0.00000000
 
ion      s     py     pz     px    dxy    dyz    dz2    dxz    dx2    tot
  1  0.005  0.001  0.002  0.016  0.049  0.407  0.008  0.146  0.336  0.969
 
band   5 # energy   10.06913569 # occ.  0.00000000
 
ion      s     py     pz     px    dxy    dyz    dz2    dxz    dx2    tot
  1  0.000  0.003  0.001  0.000  0.520  0.058  0.130  0.173  0.043  0.928
 
band   6 # energy   10.52409154 # occ.  0.00000000
 
ion      s     py     pz     px    dxy    dyz    dz2    dxz    dx2    tot
  1  0.001  0.021  0.063  0.000  0.032  0.268  0.332  0.095  0.160  0.972
 

 k-point    6 :    0.34375000 0.03125000 0.03125000     weight = 0.00585938

band   1 # energy    1.32888645 # occ.  1.00000000
 
ion      s     py     pz     px    dxy    dyz    dz2    dxz    dx2    tot
  1  0.404  0.011  0.033  0.025  0.087  0.025  0.007  0.260  0.105  0.957
 
band   2 # energy    4.43893640 # occ.  1.00000000
 
ion      s     py     pz     px    dxy    dyz    dz2    dxz    dx2    tot
  1  0.000  0.004  0.001  0.000  0.225  0.183  0.412  0.075  0.137  1.039
 
band   3 # energy    5.96965686 # occ.  0.00000000
 
ion      s     py     pz     px    dxy    dyz    dz2    dxz    dx2    tot
  1  0.077  0.036  0.107  0.347  0.049  0.002  0.045  0.146  0.096  0.903
 
band   4 # energy    9.59766631 # occ.  0.00000000
 
ion      s     py     pz     px    dxy    dyz    dz2    dxz    dx2    tot
  1  0.014  0.002  0.006  0.029  0.044  0.441  0.016  0.131  0.300  0.983
 
band   5 # energy   10.30039621 # occ.  0.00000000
 
ion      s     py     pz     px    dxy    dyz    dz2    dxz    dx2    tot
  1  0.000  0.002  0.001  0.000  0.515  0.065  0.146  0.172  0.049  0.949
 
band   6 # energy   11.89246282 # occ.  0.00000000
 
ion      s     py     pz     px    dxy    dyz    dz2    dxz    dx2    tot
  1  0.000  0.021  0.062  0.000  0.031  0.214  0.332  0.093  0.215  0.967
 

 k-point    7 :    0.40625000 0.03125000 0.03125000     weight = 0.00585938

band   1 # energy    1.44707600 # occ.  1.00000000
 
ion      s     py     pz     px    dxy    dyz    dz2    dxz    dx2    tot
  1  0.314  0.005  0.014  0.003  0.116  0.024  0.012  0.348  0.136  0.972
 
band   2 # energy    4.24667286 # occ.  1.00000000
 
ion      s     py     pz     px    dxy    dyz    dz2    dxz    dx2    tot
  1  0.000  0.004  0.001  0.000  0.242  0.178  0.401  0.081  0.134  1.042
 
band   3 # energy    6.73968835 # occ.  0.00000000
 
ion      s     py     pz     px    dxy    dyz    dz2    dxz    dx2    tot
  1  0.044  0.056  0.169  0.490  0.013  0.010  0.031  0.039  0.035  0.887
 
band   4 # energy    9.65174878 # occ.  0.00000000
 
ion      s     py     pz     px    dxy    dyz    dz2    dxz    dx2    tot
  1  0.045  0.002  0.007  0.024  0.051  0.444  0.027  0.152  0.237  0.989
 
band   5 # energy   10.50002458 # occ.  0.00000000
 
ion      s     py     pz     px    dxy    dyz    dz2    dxz    dx2    tot
  1  0.000  0.001  0.000  0.000  0.508  0.074  0.165  0.169  0.055  0.973
 
band   6 # energy   13.07593518 # occ.  0.00000000
 
ion      s     py     pz     px    dxy    dyz    dz2    dxz    dx2    tot
  1  0.000  0.013  0.038  0.002  0.029  0.183  0.347  0.087  0.278  0.976
 

 k-point    8 :    0.46875000 0.03125000 0.03125000     weight = 0.00292969

band   1 # energy    1.45957120 # occ.  1.00000000
 
ion      s     py     pz     px    dxy    dyz    dz2    dxz    dx2    tot
  1  0.286  0.001  0.003  0.002  0.125  0.023  0.014  0.375  0.146  0.976
 
band   2 # energy    4.18118613 # occ.  1.00000000
 
ion      s     py     pz     px    dxy    dyz    dz2    dxz    dx2    tot
  1  0.000  0.005  0.002  0.000  0.259  0.173  0.389  0.086  0.130  1.043
 
band   3 # energy    7.15417739 # occ.  0.00000000
 
ion      s     py     pz     px    dxy    dyz    dz2    dxz    dx2    tot
  1  0.000  0.070  0.211  0.562  0.001  0.006  0.013  0.003  0.012  0.878
 
band   4 # energy    9.60023723 # occ.  0.00000000
 
ion      s     py     pz     px    dxy    dyz    dz2    dxz    dx2    tot
  1  0.076  0.000  0.000  0.000  0.056  0.465  0.044  0.169  0.179  0.990
 
band   5 # energy   10.58169302 # occ.  0.00000000
 
ion      s     py     pz     px    dxy    dyz    dz2    dxz    dx2    tot
  1  0.000  0.000  0.000  0.000  0.492  0.082  0.185  0.164  0.062  0.984
 
band   6 # energy   13.58802096 # occ.  0.00000000
 
ion      s     py     pz     px    dxy    dyz    dz2    dxz    dx2    tot
  1  0.000  0.002  0.006  0.017  0.027  0.160  0.360  0.080  0.334  0.987
 

 k-point    9 :   -0.03125000 0.03125000 0.03125000     weight = 0.00146484

band   1 # energy   -2.08602740 # occ.  1.00000000
 
ion      s     py     pz     px    dxy    dyz    dz2    dxz    dx2    tot
  1  0.850  0.001  0.003  0.002  0.000  0.000  0.000  0.000  0.000  0.857
 
band   2 # energy    6.43772088 # occ.  0.00000000
 
ion      s     py     pz     px    dxy    dyz    dz2    dxz    dx2    tot
  1  0.000  0.000  0.001  0.001  0.029  0.175  0.395  0.088  0.365  1.055
 
band   3 # energy    6.43772110 # occ.  0.00000000
 
ion      s     py     pz     px    dxy    dyz    dz2    dxz    dx2    tot
  1  0.000  0.002  0.001  0.000  0.263  0.175  0.395  0.088  0.132  1.055
 
band   4 # energy    6.49232526 # occ.  0.00000000
 
ion      s     py     pz     px    dxy    dyz    dz2    dxz    dx2    tot
  1  0.000  0.000  0.000  0.000  0.059  0.352  0.000  0.176  0.469  1.055
 
band   5 # energy    9.53363434 # occ.  0.00000000
 
ion      s     py     pz     px    dxy    dyz    dz2    dxz    dx2    tot
  1  0.000  0.000  0.000  0.000  0.459  0.076  0.172  0.153  0.057  0.917
 
band   6 # energy    9.73197241 # occ.  0.00000000
 
ion      s     py     pz     px    dxy    dyz    dz2    dxz    dx2    tot
  1  0.000  0.000  0.000  0.000  0.154  0.232  0.058  0.463  0.019  0.927
 

 k-point   10 :    0.09375000 0.09375000 0.03125000     weight = 0.00585938

band   1 # energy   -0.83086897 # occ.  1.00000000
 
ion      s     py     pz     px    dxy    dyz    dz2    dxz    dx2    tot
  1  0.767  0.034  0.045  0.017  0.002  0.010  0.001  0.005  0.000  0.881
 
band   2 # energy    5.68870838 # occ.  0.94096429
 
ion      s     py     pz     px    dxy    dyz    dz2    dxz    dx2    tot
  1  0.000  0.008  0.000  0.004  0.050  0.281  0.534  0.140  0.006  1.026
 
band   3 # energy    5.75657623 # occ.  0.03738999
 
ion      s     py     pz     px    dxy    dyz    dz2    dxz    dx2    tot
  1  0.000  0.008  0.000  0.016  0.102  0.023  0.000  0.045  0.815  1.009
 
band   4 # energy    8.06357407 # occ.  0.00000000
 
ion      s     py     pz     px    dxy    dyz    dz2    dxz    dx2    tot
  1  0.002  0.009  0.037  0.004  0.109  0.354  0.307  0.177  0.014  1.012
 
band   5 # energy    9.08204885 # occ.  0.00000000
 
ion      s     py     pz     px    dxy    dyz    dz2    dxz    dx2    tot
  1  0.000  0.000  0.000  0.000  0.011  0.271  0.000  0.541  0.086  0.909
 
band   6 # energy    9.69381055 # occ.  0.00000000
 
ion      s     py     pz     px    dxy    dyz    dz2    dxz    dx2    tot
  1  0.000  0.000  0.000  0.000  0.683  0.016  0.129  0.008  0.085  0.923
 

 k-point   11 :    0.15625000 0.09375000 0.03125000     weight = 0.01171875

band   1 # energy   -0.02191142 # occ.  1.00000000
 
ion      s     py     pz     px    dxy    dyz    dz2    dxz    dx2    tot
  1  0.701  0.042  0.061  0.040  0.010  0.020  0.000  0.022  0.001  0.897
 
band   2 # energy    5.26933198 # occ.  1.00000000
 
ion      s     py     pz     px    dxy    dyz    dz2    dxz    dx2    tot
  1  0.000  0.018  0.000  0.001  0.153  0.245  0.371  0.023  0.206  1.018
 
band   3 # energy    5.39485142 # occ.  1.00000000
 
ion      s     py     pz     px    dxy    dyz    dz2    dxz    dx2    tot
  1  0.004  0.000  0.002  0.056  0.029  0.022  0.159  0.249  0.462  0.984
 
band   4 # energy    8.99246723 # occ.  0.00000000
 
ion      s     py     pz     px    dxy    dyz    dz2    dxz    dx2    tot
  1  0.001  0.003  0.012  0.000  0.010  0.068  0.055  0.554  0.231  0.934
 
band   5 # energy    9.12237310 # occ.  0.00000000
 
ion      s     py     pz     px    dxy    dyz    dz2    dxz    dx2    tot
  1  0.002  0.015  0.049  0.005  0.089  0.576  0.240  0.003  0.000  0.979
 
band   6 # energy    9.90249198 # occ.  0.00000000
 
ion      s     py     pz     px    dxy    dyz    dz2    dxz    dx2    tot
  1  0.002  0.001  0.001  0.000  0.667  0.007  0.130  0.044  0.083  0.934
 

 k-point   12 :    0.21875000 0.09375000 0.03125000     weight = 0.01171875

band   1 # energy    0.82986731 # occ.  1.00000000
 
ion      s     py     pz     px    dxy    dyz    dz2    dxz    dx2    tot
  1  0.601  0.045  0.070  0.050  0.029  0.034  0.001  0.075  0.013  0.919
 
band   2 # energy    4.86042939 # occ.  1.00000000
 
ion      s     py     pz     px    dxy    dyz    dz2    dxz    dx2    tot
  1  0.000  0.018  0.002  0.005  0.186  0.224  0.338  0.011  0.235  1.019
 
band   3 # energy    5.17898329 # occ.  1.00000000
 
ion      s     py     pz     px    dxy    dyz    dz2    dxz    dx2    tot
  1  0.021  0.007  0.014  0.124  0.017  0.012  0.177  0.295  0.291  0.958
 
band   4 # energy    9.15891884 # occ.  0.00000000
 
ion      s     py     pz     px    dxy    dyz    dz2    dxz    dx2    tot
  1  0.001  0.000  0.000  0.006  0.000  0.331  0.001  0.340  0.263  0.942
 
band   5 # energy   10.11647810 # occ.  0.00000000
 
ion      s     py     pz     px    dxy    dyz    dz2    dxz    dx2    tot
  1  0.004  0.002  0.000  0.000  0.667  0.001  0.126  0.052  0.094  0.945
 
band   6 # energy   10.34942157 # occ.  0.00000000
 
ion      s     py     pz     px    dxy    dyz    dz2    dxz    dx2    tot
  1  0.002  0.028  0.082  0.005  0.061  0.323  0.308  0.108  0.057  0.975
 

 k-point   13 :    0.28125000 0.09375000 0.03125000     weight = 0.01171875

band   1 # energy    1.45813752 # occ.  1.00000000
 
ion      s     py     pz     px    dxy    dyz    dz2    dxz    dx2    tot
  1  0.460  0.039  0.059  0.029  0.064  0.043  0.007  0.189  0.056  0.946
 
band   2 # energy    4.53461863 # occ.  1.00000000
 
ion      s     py     pz     px    dxy    dyz    dz2    dxz    dx2    tot
  1  0.000  0.019  0.002  0.004  0.203  0.223  0.366  0.026  0.184  1.027
 
band   3 # energy    5.36104726 # occ.  1.00000000
 
ion      s     py     pz     px    dxy    dyz    dz2    dxz    dx2    tot
  1  0.058  0.021  0.051  0.246  0.008  0.000  0.119  0.219  0.208  0.930
 
band   4 # energy    9.42049231 # occ.  0.00000000
 
ion      s     py     pz     px    dxy    dyz    dz2    dxz    dx2    tot
  1  0.005  0.001  0.001  0.017  0.000  0.386  0.000  0.266  0.286  0.961
 
band   5 # energy   10.31297659 # occ.  0.00000000
 
ion      s     py     pz     px    dxy    dyz    dz2    dxz    dx2    tot
  1  0.007  0.002  0.001  0.000  0.623  0.000  0.177  0.075  0.074  0.959
 
band   6 # energy   11.71187666 # occ.  0.00000000
 
ion      s     py     pz     px    dxy    dyz    dz2    dxz    dx2    tot
  1  0.002  0.037  0.094  0.008  0.070  0.263  0.286  0.094  0.110  0.963
 

 k-point   14 :    0.34375000 0.09375000 0.03125000     weight = 0.01171875

band   1 # energy    1.71210840 # occ.  1.00000000
 
ion      s     py     pz     px    dxy    dyz    dz2    dxz    dx2    tot
  1  0.334  0.026  0.034  0.004  0.095  0.041  0.016  0.310  0.106  0.966
 
band   2 # energy    4.30952219 # occ.  1.00000000
 
ion      s     py     pz     px    dxy    dyz    dz2    dxz    dx2    tot
  1  0.000  0.021  0.002  0.002  0.226  0.211  0.376  0.043  0.151  1.033
 
band   3 # energy    6.00432683 # occ.  0.00000000
 
ion      s     py     pz     px    dxy    dyz    dz2    dxz    dx2    tot
  1  0.062  0.041  0.109  0.384  0.000  0.019  0.067  0.098  0.127  0.907
 
band   4 # energy    9.62013508 # occ.  0.00000000
 
ion      s     py     pz     px    dxy    dyz    dz2    dxz    dx2    tot
  1  0.023  0.002  0.003  0.024  0.014  0.403  0.008  0.217  0.281  0.975
 
band   5 # energy   10.49149314 # occ.  0.00000000
 
ion      s     py     pz     px    dxy    dyz    dz2    dxz    dx2    tot
  1  0.009  0.002  0.000  0.005  0.573  0.011  0.219  0.116  0.038  0.972
 
band   6 # energy   13.01148874 # occ.  0.00000000
 
ion      s     py     pz     px    dxy    dyz    dz2    dxz    dx2    tot
  1  0.000  0.035  0.084  0.017  0.064  0.217  0.286  0.079  0.181  0.962
 

 k-point   15 :    0.40625000 0.09375000 0.03125000     weight = 0.01171875

band   1 # energy    1.75517164 # occ.  1.00000000
 
ion      s     py     pz     px    dxy    dyz    dz2    dxz    dx2    tot
  1  0.275  0.015  0.015  0.002  0.107  0.035  0.020  0.373  0.132  0.975
 
band   2 # energy    4.19434880 # occ.  1.00000000
 
ion      s     py     pz     px    dxy    dyz    dz2    dxz    dx2    tot
  1  0.000  0.023  0.002  0.001  0.258  0.196  0.368  0.057  0.131  1.036
 
band   3 # energy    6.64870638 # occ.  0.00000000
 
ion      s     py     pz     px    dxy    dyz    dz2    dxz    dx2    tot
  1  0.013  0.058  0.166  0.482  0.018  0.038  0.029  0.012  0.079  0.894
 
band   4 # energy    9.63065297 # occ.  0.00000000
 
ion      s     py     pz     px    dxy    dyz    dz2    dxz    dx2    tot
  1  0.063  0.001  0.001  0.007  0.044  0.406  0.040  0.196  0.224  0.981
 
band   5 # energy   10.64415333 # occ.  0.00000000
 
ion      s     py     pz     px    dxy    dyz    dz2    dxz    dx2    tot
  1  0.002  0.003  0.004  0.017  0.483  0.040  0.246  0.167  0.023  0.984
 
band   6 # energy   13.89814756 # occ.  0.00000000
 
ion      s     py     pz     px    dxy    dyz    dz2    dxz    dx2    tot
  1  0.000  0.017  0.045  0.040  0.053  0.180  0.291  0.063  0.281  0.969
 

 k-point   16 :   -0.09375000 0.09375000 0.03125000     weight = 0.00585938

band   1 # energy   -1.75252320 # occ.  1.00000000
 
ion      s     py     pz     px    dxy    dyz    dz2    dxz    dx2    tot
  1  0.829  0.010  0.003  0.019  0.001  0.000  0.000  0.000  0.000  0.863
 
band   2 # energy    6.23752789 # occ.  0.00000000
 
ion      s     py     pz     px    dxy    dyz    dz2    dxz    dx2    tot
  1  0.000  0.001  0.000  0.001  0.002  0.683  0.000  0.342  0.017  1.046
 
band   3 # energy    6.36657110 # occ.  0.00000000
 
ion      s     py     pz     px    dxy    dyz    dz2    dxz    dx2    tot
  1  0.000  0.004  0.001  0.007  0.305  0.000  0.684  0.000  0.038  1.039
 
band   4 # energy    6.81266803 # occ.  0.00000000
 
ion      s     py     pz     px    dxy    dyz    dz2    dxz    dx2    tot
  1  0.000  0.005  0.000  0.003  0.113  0.014  0.000  0.007  0.900  1.042
 
band   5 # energy    9.15823960 # occ.  0.00000000
 
ion      s     py     pz     px    dxy    dyz    dz2    dxz    dx2    tot
  1  0.000  0.000  0.000  0.000  0.419  0.051  0.272  0.103  0.052  0.897
 
band   6 # energy    9.79779247 # occ.  0.00000000
 
ion      s     py     pz     px    dxy    dyz    dz2    dxz    dx2    tot
  1  0.000  0.000  0.001  0.000  0.094  0.255  0.055  0.509  0.012  0.925
 

 k-point   17 :    0.15625000 0.15625000 0.03125000     weight = 0.00585938

band   1 # energy    0.81284271 # occ.  1.00000000
 
ion      s     py     pz     px    dxy    dyz    dz2    dxz    dx2    tot
  1  0.623  0.070  0.077  0.035  0.013  0.061  0.000  0.031  0.002  0.913
 
band   2 # energy    4.92069447 # occ.  1.00000000
 
ion      s     py     pz     px    dxy    dyz    dz2    dxz    dx2    tot
  1  0.000  0.024  0.000  0.047  0.080  0.060  0.000  0.121  0.640  0.973
 
band   3 # energy    5.03543632 # occ.  1.00000000
 
ion      s     py     pz     px    dxy    dyz    dz2    dxz    dx2    tot
  1  0.007  0.036  0.001  0.018  0.047  0.244  0.532  0.122  0.006  1.012
 
band   4 # energy    9.02673249 # occ.  0.00000000
 
ion      s     py     pz     px    dxy    dyz    dz2    dxz    dx2    tot
  1  0.000  0.001  0.000  0.001  0.027  0.229  0.000  0.458  0.213  0.929
 
band   5 # energy   10.18419693 # occ.  0.00000000
 
ion      s     py     pz     px    dxy    dyz    dz2    dxz    dx2    tot
  1  0.006  0.001  0.000  0.000  0.687  0.027  0.135  0.014  0.086  0.956
 
band   6 # energy   10.31015041 # occ.  0.00000000
 
ion      s     py     pz     px    dxy    dyz    dz2    dxz    dx2    tot
  1  0.004  0.027  0.088  0.014  0.114  0.287  0.284  0.144  0.014  0.975
 

 k-point   18 :    0.21875000 0.15625000 0.03125000     weight = 0.01171875

band   1 # energy    1.61809552 # occ.  1.00000000
 
ion      s     py     pz     px    dxy    dyz    dz2    dxz    dx2    tot
  1  0.509  0.068  0.083  0.036  0.032  0.089  0.009  0.104  0.004  0.934
 
band   2 # energy    4.58325182 # occ.  1.00000000
 
ion      s     py     pz     px    dxy    dyz    dz2    dxz    dx2    tot
  1  0.000  0.038  0.002  0.045  0.147  0.191  0.100  0.033  0.427  0.982
 
band   3 # energy    4.93564864 # occ.  1.00000000
 
ion      s     py     pz     px    dxy    dyz    dz2    dxz    dx2    tot
  1  0.025  0.032  0.011  0.103  0.021  0.066  0.402  0.215  0.110  0.986
 
band   4 # energy    9.19831217 # occ.  0.00000000
 
ion      s     py     pz     px    dxy    dyz    dz2    dxz    dx2    tot
  1  0.000  0.000  0.000  0.007  0.016  0.271  0.000  0.380  0.266  0.940
 
band   5 # energy   10.39144664 # occ.  0.00000000
 
ion      s     py     pz     px    dxy    dyz    dz2    dxz    dx2    tot
  1  0.014  0.000  0.001  0.000  0.632  0.023  0.192  0.032  0.079  0.974
 
band   6 # energy   11.68261039 # occ.  0.00000000
 
ion      s     py     pz     px    dxy    dyz    dz2    dxz    dx2    tot
  1  0.004  0.045  0.109  0.019  0.129  0.256  0.249  0.109  0.042  0.961
 

 k-point   19 :    0.28125000 0.15625000 0.03125000     weight = 0.01171875

band   1 # energy    2.10656187 # occ.  1.00000000
 
ion      s     py     pz     px    dxy    dyz    dz2    dxz    dx2    tot
  1  0.364  0.054  0.065  0.009  0.057  0.092  0.030  0.243  0.044  0.959
 
band   2 # energy    4.37304444 # occ.  1.00000000
 
ion      s     py     pz     px    dxy    dyz    dz2    dxz    dx2    tot
  1  0.000  0.047  0.003  0.026  0.192  0.248  0.236  0.000  0.252  1.004
 
band   3 # energy    5.23919928 # occ.  1.00000000
 
ion      s     py     pz     px    dxy    dyz    dz2    dxz    dx2    tot
  1  0.055  0.043  0.050  0.247  0.023  0.000  0.205  0.158  0.163  0.944
 
band   4 # energy    9.46144293 # occ.  0.00000000
 
ion      s     py     pz     px    dxy    dyz    dz2    dxz    dx2    tot
  1  0.006  0.000  0.001  0.017  0.002  0.315  0.001  0.317  0.297  0.954
 
band   5 # energy   10.50586649 # occ.  0.00000000
 
ion      s     py     pz     px    dxy    dyz    dz2    dxz    dx2    tot
  1  0.025  0.001  0.000  0.002  0.583  0.006  0.262  0.057  0.047  0.983
 
band   6 # energy   13.07941361 # occ.  0.00000000
 
ion      s     py     pz     px    dxy    dyz    dz2    dxz    dx2    tot
  1  0.002  0.056  0.115  0.032  0.126  0.222  0.231  0.083  0.087  0.954
 

 k-point   20 :    0.34375000 0.15625000 0.03125000     weight = 0.01171875

band   1 # energy    2.23954666 # occ.  1.00000000
 
ion      s     py     pz     px    dxy    dyz    dz2    dxz    dx2    tot
  1  0.264  0.037  0.037  0.001  0.070  0.074  0.042  0.355  0.092  0.973
 
band   2 # energy    4.25435118 # occ.  1.00000000
 
ion      s     py     pz     px    dxy    dyz    dz2    dxz    dx2    tot
  1  0.000  0.055  0.002  0.012  0.243  0.237  0.296  0.010  0.163  1.018
 
band   3 # energy    5.84235356 # occ. -0.00161886
 
ion      s     py     pz     px    dxy    dyz    dz2    dxz    dx2    tot
  1  0.033  0.052  0.107  0.365  0.052  0.033  0.078  0.051  0.144  0.916
 
band   4 # energy    9.62388830 # occ.  0.00000000
 
ion      s     py     pz     px    dxy    dyz    dz2    dxz    dx2    tot
  1  0.035  0.000  0.001  0.015  0.012  0.338  0.026  0.255  0.283  0.965
 
band   5 # energy   10.62937884 # occ.  0.00000000
 
ion      s     py     pz     px    dxy    dyz    dz2    dxz    dx2    tot
  1  0.018  0.003  0.002  0.018  0.485  0.004  0.322  0.126  0.008  0.985
 
band   6 # energy   14.25385181 # occ.  0.00000000
 
ion      s     py     pz     px    dxy    dyz    dz2    dxz    dx2    tot
  1  0.000  0.048  0.095  0.061  0.113  0.188  0.218  0.055  0.174  0.952
 

 k-point   21 :    0.40625000 0.15625000 0.03125000     weight = 0.00585938

band   1 # energy    2.24952129 # occ.  1.00000000
 
ion      s     py     pz     px    dxy    dyz    dz2    dxz    dx2    tot
  1  0.235  0.024  0.017  0.018  0.066  0.062  0.043  0.398  0.115  0.977
 
band   2 # energy    4.21487329 # occ.  1.00000000
 
ion      s     py     pz     px    dxy    dyz    dz2    dxz    dx2    tot
  1  0.000  0.062  0.001  0.005  0.311  0.203  0.301  0.021  0.119  1.022
 
band   3 # energy    6.16219325 # occ.  0.00000000
 
ion      s     py     pz     px    dxy    dyz    dz2    dxz    dx2    tot
  1  0.000  0.050  0.151  0.403  0.092  0.076  0.018  0.000  0.118  0.907
 
band   4 # energy    9.62950314 # occ.  0.00000000
 
ion      s     py     pz     px    dxy    dyz    dz2    dxz    dx2    tot
  1  0.064  0.001  0.000  0.000  0.028  0.370  0.088  0.207  0.210  0.968
 
band   5 # energy   10.73698811 # occ.  0.00000000
 
ion      s     py     pz     px    dxy    dyz    dz2    dxz    dx2    tot
  1  0.000  0.004  0.012  0.032  0.362  0.021  0.339  0.214  0.003  0.988
 
band   6 # energy   14.76157881 # occ.  0.00000000
 
ion      s     py     pz     px    dxy    dyz    dz2    dxz    dx2    tot
  1  0.000  0.015  0.046  0.123  0.076  0.164  0.198  0.029  0.306  0.957
 

 k-point   22 :   -0.15625000 0.15625000 0.03125000     weight = 0.00585938

band   1 # energy   -1.12719579 # occ.  1.00000000
 
ion      s     py     pz     px    dxy    dyz    dz2    dxz    dx2    tot
  1  0.787  0.024  0.003  0.049  0.007  0.000  0.004  0.000  0.001  0.875
 
band   2 # energy    5.86932707 # occ. -0.00011472
 
ion      s     py     pz     px    dxy    dyz    dz2    dxz    dx2    tot
  1  0.000  0.001  0.000  0.001  0.001  0.688  0.000  0.344  0.005  1.039
 
band   3 # energy    6.14397484 # occ.  0.00000000
 
ion      s     py     pz     px    dxy    dyz    dz2    dxz    dx2    tot
  1  0.002  0.012  0.001  0.024  0.437  0.000  0.475  0.001  0.055  1.006
 
band   4 # energy    7.47316326 # occ.  0.00000000
 
ion      s     py     pz     px    dxy    dyz    dz2    dxz    dx2    tot
  1  0.000  0.015  0.000  0.008  0.110  0.004  0.000  0.002  0.883  1.023
 
band   5 # energy    8.83612918 # occ.  0.00000000
 
ion      s     py     pz     px    dxy    dyz    dz2    dxz    dx2    tot
  1  0.000  0.000  0.000  0.000  0.288  0.039  0.458  0.077  0.036  0.899
 
band   6 # energy    9.85763796 # occ.  0.00000000
 
ion      s     py     pz     px    dxy    dyz    dz2    dxz    dx2    tot
  1  0.001  0.000  0.002  0.000  0.058  0.265  0.061  0.529  0.007  0.923
 

 k-point   23 :   -0.09375000 0.15625000 0.03125000     weight = 0.00585938

band   1 # energy   -1.27398461 # occ.  1.00000000
 
ion      s     py     pz     px    dxy    dyz    dz2    dxz    dx2    tot
  1  0.798  0.036  0.013  0.019  0.003  0.002  0.001  0.000  0.001  0.872
 
band   2 # energy    6.07358036 # occ.  0.00000000
 
ion      s     py     pz     px    dxy    dyz    dz2    dxz    dx2    tot
  1  0.000  0.007  0.000  0.001  0.073  0.521  0.215  0.193  0.025  1.036
 
band   3 # energy    6.17577659 # occ.  0.00000000
 
ion      s     py     pz     px    dxy    dyz    dz2    dxz    dx2    tot
  1  0.000  0.002  0.005  0.013  0.087  0.207  0.273  0.044  0.392  1.022
 
band   4 # energy    7.25927450 # occ.  0.00000000
 
ion      s     py     pz     px    dxy    dyz    dz2    dxz    dx2    tot
  1  0.000  0.019  0.001  0.001  0.253  0.038  0.139  0.025  0.552  1.028
 
band   5 # energy    8.69240467 # occ.  0.00000000
 
ion      s     py     pz     px    dxy    dyz    dz2    dxz    dx2    tot
  1  0.000  0.000  0.000  0.000  0.373  0.031  0.280  0.190  0.010  0.884
 
band   6 # energy    9.96962009 # occ.  0.00000000
 
ion      s     py     pz     px    dxy    dyz    dz2    dxz    dx2    tot
  1  0.002  0.000  0.001  0.001  0.128  0.181  0.085  0.514  0.021  0.933
 

 k-point   24 :    0.21875000 0.21875000 0.03125000     weight = 0.00585938
