<?xml version="1.0" encoding="ISO-8859-1"?>
<modeling>
 <generator>
  <i name="program" type="string">vasp </i>
  <i name="version" type="string">5.2.12  </i>
  <i name="subversion" type="string">11Nov11 complex                                                      parallel </i>
  <i name="platform" type="string">LinuxIFC </i>
  <i name="date" type="string">2012 10 14 </i>
  <i name="time" type="string">15:40:41 </i>
 </generator>
 <incar>
  <i type="string" name="PREC">accurate</i>
  <i name="ENCUT">    350.00000000</i>
  <i type="logical" name="LREAL"> F  </i>
  <i type="int" name="ISMEAR">     1</i>
  <i name="SIGMA">      0.05000000</i>
 </incar>
 <kpoints>
  <generation param="Monkhorst-Pack">
   <v type="int" name="divisions">      16       16       16 </v>
   <v name="usershift">      0.00000000       0.00000000       0.00000000 </v>
   <v name="genvec1">      0.06250000       0.00000000       0.00000000 </v>
   <v name="genvec2">      0.00000000       0.06250000       0.00000000 </v>
   <v name="genvec3">      0.00000000       0.00000000       0.06250000 </v>
   <v name="shift">      0.50000000       0.50000000       0.50000000 </v>
  </generation>
  <varray name="kpointlist" >
   <v>       0.03125000       0.03125000       0.03125000 </v>
   <v>       0.09375000       0.03125000       0.03125000 </v>
   <v>       0.15625000       0.03125000       0.03125000 </v>
   <v>       0.21875000       0.03125000       0.03125000 </v>
   <v>       0.28125000       0.03125000       0.03125000 </v>
   <v>       0.34375000       0.03125000       0.03125000 </v>
   <v>       0.40625000       0.03125000       0.03125000 </v>
   <v>       0.46875000       0.03125000       0.03125000 </v>
   <v>      -0.03125000       0.03125000       0.03125000 </v>
   <v>       0.09375000       0.09375000       0.03125000 </v>
   <v>       0.15625000       0.09375000       0.03125000 </v>
   <v>       0.21875000       0.09375000       0.03125000 </v>
   <v>       0.28125000       0.09375000       0.03125000 </v>
   <v>       0.34375000       0.09375000       0.03125000 </v>
   <v>       0.40625000       0.09375000       0.03125000 </v>
   <v>      -0.09375000       0.09375000       0.03125000 </v>
   <v>       0.15625000       0.15625000       0.03125000 </v>
   <v>       0.21875000       0.15625000       0.03125000 </v>
   <v>       0.28125000       0.15625000       0.03125000 </v>
   <v>       0.34375000       0.15625000       0.03125000 </v>
   <v>       0.40625000       0.15625000       0.03125000 </v>
   <v>      -0.15625000       0.15625000       0.03125000 </v>
   <v>      -0.09375000       0.15625000       0.03125000 </v>
   <v>       0.21875000       0.21875000       0.03125000 </v>
   <v>       0.28125000       0.21875000       0.03125000 </v>
   <v>       0.34375000       0.21875000       0.03125000 </v>
   <v>      -0.21875000       0.21875000       0.03125000 </v>
   <v>      -0.15625000       0.21875000       0.03125000 </v>
   <v>       0.28125000       0.28125000       0.03125000 </v>
   <v>       0.34375000       0.28125000       0.03125000 </v>
   <v>      -0.28125000       0.28125000       0.03125000 </v>
   <v>      -0.21875000       0.28125000       0.03125000 </v>
   <v>      -0.15625000       0.28125000       0.03125000 </v>
   <v>      -0.34375000       0.34375000       0.03125000 </v>
   <v>      -0.28125000       0.34375000       0.03125000 </v>
   <v>      -0.21875000       0.34375000       0.03125000 </v>
   <v>      -0.40625000       0.40625000       0.03125000 </v>
   <v>      -0.34375000       0.40625000       0.03125000 </v>
   <v>      -0.28125000       0.40625000       0.03125000 </v>
   <v>      -0.21875000       0.40625000       0.03125000 </v>
   <v>      -0.46875000       0.46875000       0.03125000 </v>
   <v>      -0.40625000       0.46875000       0.03125000 </v>
   <v>      -0.34375000       0.46875000       0.03125000 </v>
   <v>      -0.28125000       0.46875000       0.03125000 </v>
   <v>      -0.46875000      -0.46875000       0.03125000 </v>
   <v>      -0.40625000      -0.46875000       0.03125000 </v>
   <v>      -0.34375000      -0.46875000       0.03125000 </v>
   <v>      -0.28125000      -0.46875000       0.03125000 </v>
   <v>      -0.40625000      -0.40625000       0.03125000 </v>
   <v>      -0.34375000      -0.40625000       0.03125000 </v>
   <v>      -0.34375000      -0.34375000       0.03125000 </v>
   <v>       0.09375000       0.09375000       0.09375000 </v>
   <v>       0.15625000       0.09375000       0.09375000 </v>
   <v>       0.21875000       0.09375000       0.09375000 </v>
   <v>       0.28125000       0.09375000       0.09375000 </v>
   <v>       0.34375000       0.09375000       0.09375000 </v>
   <v>       0.40625000       0.09375000       0.09375000 </v>
   <v>      -0.09375000       0.09375000       0.09375000 </v>
   <v>       0.15625000       0.15625000       0.09375000 </v>
   <v>       0.21875000       0.15625000       0.09375000 </v>
   <v>       0.28125000       0.15625000       0.09375000 </v>
   <v>       0.34375000       0.15625000       0.09375000 </v>
   <v>      -0.15625000       0.15625000       0.09375000 </v>
   <v>       0.21875000       0.21875000       0.09375000 </v>
   <v>       0.28125000       0.21875000       0.09375000 </v>
   <v>       0.34375000       0.21875000       0.09375000 </v>
   <v>      -0.21875000       0.21875000       0.09375000 </v>
   <v>      -0.15625000       0.21875000       0.09375000 </v>
   <v>       0.28125000       0.28125000       0.09375000 </v>
   <v>      -0.28125000       0.28125000       0.09375000 </v>
   <v>      -0.21875000       0.28125000       0.09375000 </v>
   <v>      -0.34375000       0.34375000       0.09375000 </v>
   <v>      -0.28125000       0.34375000       0.09375000 </v>
   <v>      -0.21875000       0.34375000       0.09375000 </v>
   <v>      -0.40625000       0.40625000       0.09375000 </v>
   <v>      -0.34375000       0.40625000       0.09375000 </v>
   <v>      -0.28125000       0.40625000       0.09375000 </v>
   <v>      -0.46875000       0.46875000       0.09375000 </v>
   <v>      -0.40625000       0.46875000       0.09375000 </v>
   <v>      -0.34375000       0.46875000       0.09375000 </v>
   <v>      -0.28125000       0.46875000       0.09375000 </v>
   <v>      -0.46875000      -0.46875000       0.09375000 </v>
   <v>      -0.40625000      -0.46875000       0.09375000 </v>
   <v>      -0.34375000      -0.46875000       0.09375000 </v>
   <v>      -0.40625000      -0.40625000       0.09375000 </v>
   <v>      -0.34375000      -0.40625000       0.09375000 </v>
   <v>       0.15625000       0.15625000       0.15625000 </v>
   <v>       0.21875000       0.15625000       0.15625000 </v>
   <v>       0.28125000       0.15625000       0.15625000 </v>
   <v>       0.34375000       0.15625000       0.15625000 </v>
   <v>      -0.15625000       0.15625000       0.15625000 </v>
   <v>       0.21875000       0.21875000       0.15625000 </v>
   <v>       0.28125000       0.21875000       0.15625000 </v>
   <v>      -0.21875000       0.21875000       0.15625000 </v>
   <v>       0.28125000       0.28125000       0.15625000 </v>
   <v>      -0.28125000       0.28125000       0.15625000 </v>
   <v>      -0.21875000       0.28125000       0.15625000 </v>
   <v>      -0.34375000       0.34375000       0.15625000 </v>
   <v>      -0.28125000       0.34375000       0.15625000 </v>
   <v>      -0.40625000       0.40625000       0.15625000 </v>
   <v>      -0.34375000       0.40625000       0.15625000 </v>
   <v>      -0.28125000       0.40625000       0.15625000 </v>
   <v>      -0.46875000       0.46875000       0.15625000 </v>
   <v>      -0.40625000       0.46875000       0.15625000 </v>
   <v>      -0.34375000       0.46875000       0.15625000 </v>
   <v>      -0.46875000      -0.46875000       0.15625000 </v>
   <v>      -0.40625000      -0.46875000       0.15625000 </v>
   <v>      -0.34375000      -0.46875000       0.15625000 </v>
   <v>      -0.40625000      -0.40625000       0.15625000 </v>
   <v>       0.21875000       0.21875000       0.21875000 </v>
   <v>       0.28125000       0.21875000       0.21875000 </v>
   <v>      -0.21875000       0.21875000       0.21875000 </v>
   <v>      -0.28125000       0.28125000       0.21875000 </v>
   <v>      -0.34375000       0.34375000       0.21875000 </v>
   <v>      -0.28125000       0.34375000       0.21875000 </v>
   <v>      -0.40625000       0.40625000       0.21875000 </v>
   <v>      -0.34375000       0.40625000       0.21875000 </v>
   <v>      -0.46875000       0.46875000       0.21875000 </v>
   <v>      -0.40625000       0.46875000       0.21875000 </v>
   <v>      -0.34375000       0.46875000       0.21875000 </v>
   <v>      -0.46875000      -0.46875000       0.21875000 </v>
   <v>      -0.40625000      -0.46875000       0.21875000 </v>
   <v>      -0.40625000      -0.40625000       0.21875000 </v>
   <v>      -0.28125000       0.28125000       0.28125000 </v>
   <v>      -0.34375000       0.34375000       0.28125000 </v>
   <v>      -0.40625000       0.40625000       0.28125000 </v>
   <v>      -0.34375000       0.40625000       0.28125000 </v>
   <v>      -0.46875000       0.46875000       0.28125000 </v>
   <v>      -0.40625000       0.46875000       0.28125000 </v>
   <v>      -0.46875000      -0.46875000       0.28125000 </v>
   <v>      -0.40625000      -0.46875000       0.28125000 </v>
   <v>      -0.34375000       0.34375000       0.34375000 </v>
   <v>      -0.40625000       0.40625000       0.34375000 </v>
   <v>      -0.46875000       0.46875000       0.34375000 </v>
   <v>      -0.40625000       0.46875000       0.34375000 </v>
   <v>      -0.46875000      -0.46875000       0.34375000 </v>
   <v>      -0.40625000       0.40625000       0.40625000 </v>
   <v>      -0.46875000       0.46875000       0.40625000 </v>
   <v>      -0.46875000      -0.46875000       0.40625000 </v>
   <v>      -0.46875000       0.46875000       0.46875000 </v>
  </varray>
  <varray name="weights" >
   <v>       0.00195312 </v>
   <v>       0.00585938 </v>
   <v>       0.00585938 </v>
   <v>       0.00585938 </v>
   <v>       0.00585938 </v>
   <v>       0.00585938 </v>
   <v>       0.00585938 </v>
   <v>       0.00292969 </v>
   <v>       0.00146484 </v>
   <v>       0.00585938 </v>
   <v>       0.01171875 </v>
   <v>       0.01171875 </v>
   <v>       0.01171875 </v>
   <v>       0.01171875 </v>
   <v>       0.01171875 </v>
   <v>       0.00585938 </v>
   <v>       0.00585938 </v>
   <v>       0.01171875 </v>
   <v>       0.01171875 </v>
   <v>       0.01171875 </v>
   <v>       0.00585938 </v>
   <v>       0.00585938 </v>
   <v>       0.00585938 </v>
   <v>       0.00585938 </v>
   <v>       0.01171875 </v>
   <v>       0.01171875 </v>
   <v>       0.00585938 </v>
   <v>       0.01171875 </v>
   <v>       0.00585938 </v>
   <v>       0.00585938 </v>
   <v>       0.00585938 </v>
   <v>       0.01171875 </v>
   <v>       0.00585938 </v>
   <v>       0.00585938 </v>
   <v>       0.01171875 </v>
   <v>       0.01171875 </v>
   <v>       0.00585938 </v>
   <v>       0.01171875 </v>
   <v>       0.01171875 </v>
   <v>       0.00585938 </v>
   <v>       0.00585938 </v>
   <v>       0.01171875 </v>
   <v>       0.01171875 </v>
   <v>       0.01171875 </v>
   <v>       0.00585938 </v>
   <v>       0.01171875 </v>
   <v>       0.01171875 </v>
   <v>       0.00585938 </v>
   <v>       0.00585938 </v>
   <v>       0.01171875 </v>
   <v>       0.00195312 </v>
   <v>       0.00195312 </v>
   <v>       0.00585938 </v>
   <v>       0.00585938 </v>
   <v>       0.00585938 </v>
   <v>       0.00585938 </v>
   <v>       0.00292969 </v>
   <v>       0.00146484 </v>
   <v>       0.00585938 </v>
   <v>       0.01171875 </v>
   <v>       0.01171875 </v>
   <v>       0.01171875 </v>
   <v>       0.00585938 </v>
   <v>       0.00585938 </v>
   <v>       0.01171875 </v>
   <v>       0.00585938 </v>
   <v>       0.00585938 </v>
   <v>       0.00585938 </v>
   <v>       0.00585938 </v>
   <v>       0.00585938 </v>
   <v>       0.01171875 </v>
   <v>       0.00585938 </v>
   <v>       0.01171875 </v>
   <v>       0.00585938 </v>
   <v>       0.00585938 </v>
   <v>       0.01171875 </v>
   <v>       0.01171875 </v>
   <v>       0.00585938 </v>
   <v>       0.01171875 </v>
   <v>       0.01171875 </v>
   <v>       0.00585938 </v>
   <v>       0.00585938 </v>
   <v>       0.01171875 </v>
   <v>       0.01171875 </v>
   <v>       0.00585938 </v>
   <v>       0.00585938 </v>
   <v>       0.00195312 </v>
   <v>       0.00585938 </v>
   <v>       0.00585938 </v>
   <v>       0.00292969 </v>
   <v>       0.00146484 </v>
   <v>       0.00585938 </v>
   <v>       0.01171875 </v>
   <v>       0.00585938 </v>
   <v>       0.00195312 </v>
   <v>       0.00585938 </v>
   <v>       0.00585938 </v>
   <v>       0.00585938 </v>
   <v>       0.01171875 </v>
   <v>       0.00585938 </v>
   <v>       0.01171875 </v>
   <v>       0.00585938 </v>
   <v>       0.00585938 </v>
   <v>       0.01171875 </v>
   <v>       0.01171875 </v>
   <v>       0.00585938 </v>
   <v>       0.01171875 </v>
   <v>       0.00585938 </v>
   <v>       0.00585938 </v>
   <v>       0.00195312 </v>
   <v>       0.00292969 </v>
   <v>       0.00146484 </v>
   <v>       0.00585938 </v>
   <v>       0.00585938 </v>
   <v>       0.00585938 </v>
   <v>       0.00585938 </v>
   <v>       0.01171875 </v>
   <v>       0.00585938 </v>
   <v>       0.01171875 </v>
   <v>       0.00585938 </v>
   <v>       0.00585938 </v>
   <v>       0.01171875 </v>
   <v>       0.00195312 </v>
   <v>       0.00146484 </v>
   <v>       0.00585938 </v>
   <v>       0.00585938 </v>
   <v>       0.00585938 </v>
   <v>       0.00585938 </v>
   <v>       0.01171875 </v>
   <v>       0.00585938 </v>
   <v>       0.00585938 </v>
   <v>       0.00146484 </v>
   <v>       0.00585938 </v>
   <v>       0.00585938 </v>
   <v>       0.00585938 </v>
   <v>       0.00585938 </v>
   <v>       0.00146484 </v>
   <v>       0.00585938 </v>
   <v>       0.00195312 </v>
   <v>       0.00146484 </v>
  </varray>
 </kpoints>
 <parameters>
  <separator name="general" >
   <i type="string" name="SYSTEM">unknown system</i>
   <i type="logical" name="LCOMPAT"> F  </i>
  </separator>
  <separator name="electronic" >
   <i type="string" name="PREC">accura</i>
   <i name="ENMAX">    350.00000000</i>
   <i name="ENAUG">    332.07500000</i>
   <i name="EDIFF">      0.00010000</i>
   <i type="int" name="IALGO">    38</i>
   <i type="int" name="IWAVPR">    10</i>
   <i type="int" name="NBANDS">     6</i>
   <i name="NELECT">      5.00000000</i>
   <i type="int" name="TURBO">     0</i>
   <i type="int" name="IRESTART">     0</i>
   <i type="int" name="NREBOOT">     0</i>
   <i type="int" name="NMIN">     0</i>
   <i name="EREF">      0.00000000</i>
   <separator name="electronic smearing" >
    <i type="int" name="ISMEAR">     1</i>
    <i name="SIGMA">      0.05000000</i>
    <i name="KSPACING">      0.50000000</i>
    <i type="logical" name="KGAMMA"> T  </i>
   </separator>
   <separator name="electronic projectors" >
    <i type="logical" name="LREAL"> F  </i>
    <v name="ROPT">      0.00000000</v>
    <i type="int" name="LMAXPAW">  -100</i>
    <i type="int" name="LMAXMIX">     2</i>
    <i type="logical" name="NLSPLINE"> F  </i>
   </separator>
   <separator name="electronic startup" >
    <i type="int" name="ISTART">     0</i>
    <i type="int" name="ICHARG">     2</i>
    <i type="int" name="INIWAV">     1</i>
   </separator>
   <separator name="electronic spin" >
    <i type="int" name="ISPIN">     1</i>
    <i type="logical" name="LNONCOLLINEAR"> F  </i>
    <v name="MAGMOM">      1.00000000</v>
    <i name="NUPDOWN">     -1.00000000</i>
    <i type="logical" name="LSORBIT"> F  </i>
    <v name="SAXIS">      0.00000000      0.00000000      1.00000000</v>
    <i type="logical" name="LSPIRAL"> F  </i>
    <v name="QSPIRAL">      0.00000000      0.00000000      0.00000000</v>
    <i type="logical" name="LZEROZ"> F  </i>
   </separator>
   <separator name="electronic exchange-correlation" >
    <i type="logical" name="LASPH"> F  </i>
    <i type="logical" name="LMETAGGA"> F  </i>
   </separator>
   <separator name="electronic convergence" >
    <i type="int" name="NELM">    60</i>
    <i type="int" name="NELMDL">    -5</i>
    <i type="int" name="NELMIN">     2</i>
    <i name="ENINI">    350.00000000</i>
    <separator name="electronic convergence detail" >
     <i type="logical" name="LDIAG"> T  </i>
     <i type="logical" name="LSUBROT"> T  </i>
     <i name="WEIMIN">      0.00000000</i>
     <i name="EBREAK">      0.00000417</i>
     <i name="DEPER">      0.30000000</i>
     <i type="int" name="NRMM">     4</i>
     <i name="TIME">      0.40000000</i>
    </separator>
   </separator>
   <separator name="electronic mixer" >
    <i name="AMIX">      0.40000000</i>
    <i name="BMIX">      1.00000000</i>
    <i name="AMIN">      0.10000000</i>
    <i name="AMIX_MAG">      1.60000000</i>
    <i name="BMIX_MAG">      1.00000000</i>
    <separator name="electronic mixer details" >
     <i type="int" name="IMIX">     4</i>
     <i type="int" name="MAXMIX">   -45</i>
     <i name="WC">    100.00000000</i>
     <i type="int" name="INIMIX">     1</i>
     <i type="int" name="MIXPRE">     1</i>
     <i type="int" name="MREMOVE">     5</i>
    </separator>
   </separator>
   <separator name="electronic dipolcorrection" >
    <i type="logical" name="LDIPOL"> F  </i>
    <i type="logical" name="LMONO"> F  </i>
    <i type="int" name="IDIPOL">     0</i>
    <i name="EPSILON">      1.00000000</i>
    <v name="DIPOL">   -100.00000000   -100.00000000   -100.00000000</v>
    <i name="EFIELD">      0.00000000</i>
   </separator>
  </separator>
  <separator name="grids" >
   <i type="int" name="NGX">    18</i>
   <i type="int" name="NGY">    18</i>
   <i type="int" name="NGZ">    18</i>
   <i type="int" name="NGXF">    36</i>
   <i type="int" name="NGYF">    36</i>
   <i type="int" name="NGZF">    36</i>
   <i type="logical" name="ADDGRID"> F  </i>
  </separator>
  <separator name="ionic" >
   <i type="int" name="NSW">     0</i>
   <i type="int" name="IBRION">    -1</i>
   <i type="int" name="ISIF">     2</i>
   <i name="PSTRESS">      0.00000000</i>
   <i name="EDIFFG">      0.00100000</i>
   <i type="int" name="NFREE">     0</i>
   <i name="POTIM">      0.50000000</i>
   <i name="SMASS">     -3.00000000</i>
   <i name="SCALEE">      1.00000000</i>
  </separator>
  <separator name="ionic md" >
   <i name="TEBEG">      0.00010000</i>
   <i name="TEEND">      0.00010000</i>
   <i type="int" name="NBLOCK">     1</i>
   <i type="int" name="KBLOCK">     1</i>
   <i type="int" name="NPACO">   256</i>
   <i name="APACO">     16.00000000</i>
  </separator>
  <separator name="symmetry" >
   <i type="int" name="ISYM">     2</i>
   <i name="SYMPREC">      0.00001000</i>
  </separator>
  <separator name="dos" >
   <i type="logical" name="LORBIT"> F  </i>
   <v name="RWIGS">     -1.00000000</v>
   <i type="int" name="NEDOS">   301</i>
   <i name="EMIN">     10.00000000</i>
   <i name="EMAX">    -10.00000000</i>
   <i name="EFERMI">      0.00000000</i>
  </separator>
  <separator name="writing" >
   <i type="int" name="NWRITE">     2</i>
   <i type="logical" name="LWAVE"> T  </i>
   <i type="logical" name="LCHARG"> T  </i>
   <i type="logical" name="LPARD"> F  </i>
   <i type="logical" name="LVTOT"> F  </i>
   <i type="logical" name="LVHAR"> F  </i>
   <i type="logical" name="LELF"> F  </i>
   <i type="logical" name="LOPTICS"> F  </i>
   <v name="STM">      0.00000000      0.00000000      0.00000000      0.00000000      0.00000000      0.00000000      0.00000000</v>
  </separator>
  <separator name="performance" >
   <i type="int" name="NPAR">     1</i>
   <i type="int" name="NSIM">     4</i>
   <i type="int" name="NBLK">    -1</i>
   <i type="logical" name="LPLANE"> T  </i>
   <i type="logical" name="LSCALAPACK"> F  </i>
   <i type="logical" name="LSCAAWARE"> F  </i>
   <i type="logical" name="LSCALU"> F  </i>
   <i type="logical" name="LASYNC"> F  </i>
   <i type="logical" name="LORBITALREAL"> F  </i>
  </separator>
  <separator name="miscellaneous" >
   <i type="int" name="IDIOT">     3</i>
   <i type="logical" name="LMUSIC"> F  </i>
   <v name="POMASS">    180.94800000</v>
   <v name="DARWINR">      0.00000000</v>
   <v name="DARWINV">      1.00000000</v>
   <i type="logical" name="LCORR"> T  </i>
  </separator>
  <i type="logical" name="GGA_COMPAT"> T  </i>
  <i type="logical" name="LBERRY"> F  </i>
  <i type="int" name="ICORELEVEL">     0</i>
  <i type="logical" name="LDAU"> F  </i>
  <i type="int" name="I_CONSTRAINED_M">     0</i>
  <separator name="electronic exchange-correlation" >
   <i type="string" name="GGA">--</i>
   <i type="int" name="VOSKOWN">     0</i>
   <i type="logical" name="LHFCALC"> F  </i>
   <i type="string" name="PRECFOCK"></i>
   <i type="logical" name="LHFONE"> F  </i>
   <i type="logical" name="LRHFCALC"> F  </i>
   <i type="logical" name="LTHOMAS"> F  </i>
   <i type="logical" name="LMODELHF"> F  </i>
   <i name="ENCUT4O">     -1.00000000</i>
   <i type="int" name="EXXOEP">     0</i>
   <i type="int" name="FOURORBIT">     0</i>
   <i name="AEXX">      0.00000000</i>
   <i name="HFALPHA">      0.00000000</i>
   <i name="ALDAX">      1.00000000</i>
   <i name="AGGAX">      1.00000000</i>
   <i name="ALDAC">      1.00000000</i>
   <i name="AGGAC">      1.00000000</i>
   <i type="int" name="NKREDX">     1</i>
   <i type="int" name="NKREDY">     1</i>
   <i type="int" name="NKREDZ">     1</i>
   <i type="logical" name="SHIFTRED"> F  </i>
   <i type="logical" name="ODDONLY"> F  </i>
   <i type="logical" name="EVENONLY"> F  </i>
   <i type="int" name="LMAXFOCK">     0</i>
   <i type="int" name="NMAXFOCKAE">     0</i>
   <i type="logical" name="LFOCKAEDFT"> F  </i>
   <i name="HFSCREEN">      0.00000000</i>
   <i name="HFSCREENC">      0.00000000</i>
  </separator>
  <separator name="vdW DFT" >
   <i type="logical" name="LUSE_VDW"> F  </i>
   <i name="Zab_VDW">     -0.84910000</i>
   <i name="PARAM1">      0.12340000</i>
   <i name="PARAM2">      1.00000000</i>
   <i name="PARAM3">      0.00000000</i>
  </separator>
  <separator name="model GW" >
   <i type="int" name="MODEL_GW">     0</i>
   <i name="MODEL_EPS0">     10.87940730</i>
   <i name="MODEL_ALPHA">      1.00000000</i>
  </separator>
  <separator name="linear response parameters" >
   <i type="logical" name="LEPSILON"> F  </i>
   <i type="logical" name="LRPA"> F  </i>
   <i type="logical" name="LNABLA"> F  </i>
   <i type="logical" name="LVEL"> F  </i>
   <i type="int" name="KINTER">     0</i>
   <i name="CSHIFT">      0.10000000</i>
   <i name="OMEGAMAX">     -1.00000000</i>
  </separator>
  <separator name="orbital magnetization" >
   <i type="logical" name="NUCIND"> F  </i>
   <v name="MAGPOS">      0.00000000      0.00000000      0.00000000</v>
   <i type="logical" name="LNICSALL"> T  </i>
   <i type="logical" name="ORBITALMAG"> F  </i>
   <i type="logical" name="LMAGBLOCH"> F  </i>
   <i type="logical" name="LCHIMAG"> F  </i>
   <i type="logical" name="LGAUGE"> T  </i>
   <i type="int" name="MAGATOM">     0</i>
   <v name="MAGDIPOL">      0.00000000      0.00000000      0.00000000</v>
   <v name="AVECCONST">      0.00000000      0.00000000      0.00000000</v>
  </separator>
  <separator name="response functions" >
   <i type="logical" name="LADDER"> F  </i>
   <i type="logical" name="LHARTREE"> T  </i>
   <i type="int" name="IBSE">     0</i>
   <i type="logical" name="LTCTE"> F  </i>
   <i type="logical" name="LTETE"> F  </i>
   <i type="logical" name="LFXCEPS"> F  </i>
   <i type="logical" name="L2ORDER"> F  </i>
   <i type="logical" name="LUSEW"> F  </i>
   <i name="ENCUTGW">     -2.00000000</i>
   <i name="ENCUTGWSOFT">     -2.00000000</i>
   <i name="ENCUTLF">     -1.00000000</i>
   <i type="int" name="LMAXMP2">    -1</i>
   <i name="SCISSOR">      0.00000000</i>
   <i type="int" name="NOMEGA">     0</i>
   <i type="int" name="NOMEGAR">     0</i>
   <i type="int" name="NBANDSGW">    -1</i>
   <i type="int" name="NBANDSO">    -1</i>
   <i type="int" name="NBANDSV">    -1</i>
   <i name="OPTEMAX">      0.00000000</i>
   <i type="int" name="NELM">     1</i>
   <i type="int" name="DIM">     3</i>
   <i type="int" name="ANTIRES">     0</i>
   <i name="OMEGAMAX">    -30.00000000</i>
   <i name="OMEGATL">   -200.00000000</i>
   <i type="int" name="OMEGAGRID">     0</i>
   <i name="CSHIFT">     -0.10000000</i>
   <i type="logical" name="SELFENERGY"> F  </i>
   <i type="logical" name="LSPECTRAL"> F  </i>
   <i type="logical" name="ODDONLYGW"> F  </i>
   <i type="logical" name="EVENONLYGW"> F  </i>
   <i type="int" name="NKREDLFX">     1</i>
   <i type="int" name="NKREDLFY">     1</i>
   <i type="int" name="NKREDLFZ">     1</i>
   <i type="int" name="MAXMEM">  1800</i>
   <i type="int" name="TELESCOPE">     0</i>
  </separator>
 </parameters>
 <atominfo>
  <atoms>       1 </atoms>
  <types>       1 </types>
  <array name="atoms" >
   <dimension dim="1">ion</dimension>
   <field type="string">element</field>
   <field type="int">atomtype</field>
   <set>
    <rc><c>Ta</c><c>   1</c></rc>
   </set>
  </array>
  <array name="atomtypes" >
   <dimension dim="1">type</dimension>
   <field type="int">atomspertype</field>
   <field type="string">element</field>
   <field>mass</field>
   <field>valence</field>
   <field type="string">pseudopotential</field>
   <set>
    <rc><c>   1</c><c>Ta</c><c>    180.94800000</c><c>      5.00000000</c><c>  PAW_PBE Ta 17Jan2003                  </c></rc>
   </set>
  </array>
 </atominfo>
 <structure name="initialpos" >
  <crystal>
   <varray name="basis" >
    <v>       2.86654409       0.00000000       0.00000000 </v>
    <v>      -0.95551470       2.70260368       0.00000000 </v>
    <v>      -0.95551470      -1.35130184       2.34052345 </v>
   </varray>
   <i name="volume">     18.13234550 </i>
   <varray name="rec_basis" >
    <v>       0.34885213       0.12333785       0.21362743 </v>
    <v>       0.00000000       0.37001356       0.21362743 </v>
    <v>       0.00000000       0.00000000       0.42725485 </v>
   </varray>
  </crystal>
  <varray name="positions" >
   <v>       0.00000000       0.00000000       0.00000000 </v>
  </varray>
 </structure>
 <calculation>
  <scstep>
   <time name="dav">    1.58    1.58</time>
   <time name="total">    1.67    1.70</time>
   <energy>
    <i name="alphaZ">     30.58334069 </i>
    <i name="ewald">   -197.90100875 </i>
    <i name="hartreedc">     -2.50452612 </i>
    <i name="XCdc">    -66.68582567 </i>
    <i name="pawpsdc">    148.27821850 </i>
    <i name="pawaedc">    -73.99089003 </i>
    <i name="eentropy">      0.00002833 </i>
    <i name="bandstr">     27.59105861 </i>
    <i name="atom">    130.64621481 </i>
    <i name="e_fr_energy">     -3.98338963 </i>
    <i name="e_wo_entrp">     -3.98341796 </i>
    <i name="e_0_energy">     -3.98339907 </i>
   </energy>
  </scstep>
  <scstep>
   <time name="dav">    2.46    2.50</time>
   <time name="total">    2.46    2.53</time>
   <energy>
    <i name="e_fr_energy">    -12.31829309 </i>
    <i name="e_wo_entrp">    -12.31825027 </i>
    <i name="e_0_energy">    -12.31827882 </i>
   </energy>
  </scstep>
  <scstep>
   <time name="dav">    1.60    1.70</time>
   <time name="total">    1.61    1.73</time>
   <energy>
    <i name="e_fr_energy">    -12.35574665 </i>
    <i name="e_wo_entrp">    -12.35576225 </i>
    <i name="e_0_energy">    -12.35575185 </i>
   </energy>
  </scstep>
  <scstep>
   <time name="dav">    1.96    2.06</time>
   <time name="total">    1.97    2.56</time>
   <energy>
    <i name="e_fr_energy">    -12.35582111 </i>
    <i name="e_wo_entrp">    -12.35583666 </i>
    <i name="e_0_energy">    -12.35582629 </i>
   </energy>
  </scstep>
  <scstep>
   <time name="dav">    1.42    1.51</time>
   <time name="total">    1.56    1.68</time>
   <energy>
    <i name="e_fr_energy">    -12.35582128 </i>
    <i name="e_wo_entrp">    -12.35583683 </i>
    <i name="e_0_energy">    -12.35582646 </i>
   </energy>
  </scstep>
  <scstep>
   <time name="dav">    1.72    1.72</time>
   <time name="total">    1.93    1.95</time>
   <energy>
    <i name="e_fr_energy">    -12.01716975 </i>
    <i name="e_wo_entrp">    -12.01696230 </i>
    <i name="e_0_energy">    -12.01710060 </i>
   </energy>
  </scstep>
  <scstep>
   <time name="dav">    1.73    1.73</time>
   <time name="total">    1.95    2.72</time>
   <energy>
    <i name="e_fr_energy">    -11.86296554 </i>
    <i name="e_wo_entrp">    -11.86273761 </i>
    <i name="e_0_energy">    -11.86288956 </i>
   </energy>
  </scstep>
  <scstep>
   <time name="dav">    1.67    1.67</time>
   <time name="total">    1.87    1.92</time>
   <energy>
    <i name="e_fr_energy">    -11.86313732 </i>
    <i name="e_wo_entrp">    -11.86291137 </i>
    <i name="e_0_energy">    -11.86306200 </i>
   </energy>
  </scstep>
  <scstep>
   <time name="dav">    1.59    1.59</time>
   <time name="total">    1.79    1.81</time>
   <energy>
    <i name="e_fr_energy">    -11.86231451 </i>
    <i name="e_wo_entrp">    -11.86206811 </i>
    <i name="e_0_energy">    -11.86223238 </i>
   </energy>
  </scstep>
  <scstep>
   <time name="dav">    1.15    1.15</time>
   <time name="total">    1.23    1.48</time>
   <energy>
    <i name="alphaZ">     30.58334069 </i>
    <i name="ewald">   -197.90100875 </i>
    <i name="hartreedc">     -0.59452817 </i>
    <i name="XCdc">    -66.00068092 </i>
    <i name="pawpsdc">    192.97975278 </i>
    <i name="pawaedc">   -119.55861458 </i>
    <i name="eentropy">     -0.00025540 </i>
    <i name="bandstr">     17.98350875 </i>
    <i name="atom">    130.64621481 </i>
    <i name="e_fr_energy">    -11.86227079 </i>
    <i name="e_wo_entrp">    -11.86201539 </i>
    <i name="e_0_energy">    -11.86218565 </i>
   </energy>
  </scstep>
  <parameters_embedded>
   <separator name="dft+d2" >
    <i type="logical" name="LVDW"> F  </i>
   </separator>
  </parameters_embedded>
  <structure>
   <crystal>
    <varray name="basis" >
     <v>       2.86654409       0.00000000       0.00000000 </v>
     <v>      -0.95551470       2.70260368       0.00000000 </v>
     <v>      -0.95551470      -1.35130184       2.34052345 </v>
    </varray>
    <i name="volume">     18.13234550 </i>
    <varray name="rec_basis" >
     <v>       0.34885213       0.12333785       0.21362743 </v>
     <v>       0.00000000       0.37001356       0.21362743 </v>
     <v>       0.00000000       0.00000000       0.42725485 </v>
    </varray>
   </crystal>
   <varray name="positions" >
    <v>       0.00000000       0.00000000       0.00000000 </v>
   </varray>
  </structure>
  <varray name="forces" >
   <v>       0.00000000       0.00000000       0.00000000 </v>
  </varray>
  <varray name="stress" >
   <v>      -8.05181939       0.00000000       0.00000000 </v>
   <v>       0.00000000      -8.05181939       0.00000000 </v>
   <v>       0.00000000       0.00000000      -8.05181939 </v>
  </varray>
  <energy>
   <i name="e_fr_energy">    -11.86227079 </i>
   <i name="e_wo_entrp">    -11.86218565 </i>
   <i name="e_0_energy">     -0.00025540 </i>
  </energy>
  <time name="totalsc">   19.33   22.01</time>
  <eigenvalues>
   <array>
    <dimension dim="1">band</dimension>
    <dimension dim="2">kpoint</dimension>
    <dimension dim="3">spin</dimension>
    <field>eigene</field>
    <field>occ</field>
    <set>
     <set comment="spin 1">
      <set comment="kpoint 1">
       <r>   -1.9265    1.0000 </r>
       <r>    6.3075    0.0000 </r>
       <r>    6.3075    0.0000 </r>
       <r>    6.7402    0.0000 </r>
       <r>    9.5557    0.0000 </r>
       <r>    9.5557    0.0000 </r>
      </set>
      <set comment="kpoint 2">
       <r>   -1.4424    1.0000 </r>
       <r>    5.9896    0.0000 </r>
       <r>    6.1307    0.0000 </r>
       <r>    7.2805    0.0000 </r>
       <r>    9.2186    0.0000 </r>
       <r>    9.6196    0.0000 </r>
      </set>
      <set comment="kpoint 3">
       <r>   -0.7054    1.0000 </r>
       <r>    5.5672    1.0001 </r>
       <r>    5.8248   -0.0069 </r>
       <r>    8.1085    0.0000 </r>
       <r>    9.0455    0.0000 </r>
       <r>    9.7200    0.0000 </r>
      </set>
      <set comment="kpoint 4">
       <r>    0.1535    1.0000 </r>
       <r>    5.1280    1.0000 </r>
       <r>    5.5080    1.0000 </r>
       <r>    9.0794    0.0000 </r>
       <r>    9.2626    0.0000 </r>
       <r>    9.8671    0.0000 </r>
      </set>
      <set comment="kpoint 5">
       <r>    0.9053    1.0000 </r>
       <r>    4.7350    1.0000 </r>
       <r>    5.4816    1.0000 </r>
       <r>    9.3671    0.0000 </r>
       <r>   10.0673    0.0000 </r>
       <r>   10.5167    0.0000 </r>
      </set>
      <set comment="kpoint 6">
       <r>    1.3210    1.0000 </r>
       <r>    4.4298    1.0000 </r>
       <r>    5.9630    0.0000 </r>
       <r>    9.5936    0.0000 </r>
       <r>   10.2986    0.0000 </r>
       <r>   11.8859    0.0000 </r>
      </set>
      <set comment="kpoint 7">
       <r>    1.4393    1.0000 </r>
       <r>    4.2375    1.0000 </r>
       <r>    6.7330    0.0000 </r>
       <r>    9.6478    0.0000 </r>
       <r>   10.4983    0.0000 </r>
       <r>   13.0704    0.0000 </r>
      </set>
      <set comment="kpoint 8">
       <r>    1.4518    1.0000 </r>
       <r>    4.1721    1.0000 </r>
       <r>    7.1474    0.0000 </r>
       <r>    9.5965    0.0000 </r>
       <r>   10.5800    0.0000 </r>
       <r>   13.5831    0.0000 </r>
      </set>
      <set comment="kpoint 9">
       <r>   -2.0942    1.0000 </r>
       <r>    6.4286    0.0000 </r>
       <r>    6.4287    0.0000 </r>
       <r>    6.4833    0.0000 </r>
       <r>    9.5323    0.0000 </r>
       <r>    9.7308    0.0000 </r>
      </set>
      <set comment="kpoint 10">
       <r>   -0.8389    1.0000 </r>
       <r>    5.6798    1.0030 </r>
       <r>    5.7481    0.1253 </r>
       <r>    8.0551    0.0000 </r>
       <r>    9.0796    0.0000 </r>
       <r>    9.6921    0.0000 </r>
      </set>
      <set comment="kpoint 11">
       <r>   -0.0299    1.0000 </r>
       <r>    5.2606    1.0000 </r>
       <r>    5.3868    1.0000 </r>
       <r>    8.9883    0.0000 </r>
       <r>    9.1153    0.0000 </r>
       <r>    9.9006    0.0000 </r>
      </set>
      <set comment="kpoint 12">
       <r>    0.8219    1.0000 </r>
       <r>    4.8517    1.0000 </r>
       <r>    5.1715    1.0000 </r>
       <r>    9.1553    0.0000 </r>
       <r>   10.1146    0.0000 </r>
       <r>   10.3419    0.0000 </r>
      </set>
      <set comment="kpoint 13">
       <r>    1.4502    1.0000 </r>
       <r>    4.5257    1.0000 </r>
       <r>    5.3541    1.0000 </r>
       <r>    9.4166    0.0000 </r>
       <r>   10.3111    0.0000 </r>
       <r>   11.7051    0.0000 </r>
      </set>
      <set comment="kpoint 14">
       <r>    1.7043    1.0000 </r>
       <r>    4.3005    1.0000 </r>
       <r>    5.9976    0.0000 </r>
       <r>    9.6162    0.0000 </r>
       <r>   10.4896    0.0000 </r>
       <r>   13.0056    0.0000 </r>
      </set>
      <set comment="kpoint 15">
       <r>    1.7474    1.0000 </r>
       <r>    4.1853    1.0000 </r>
       <r>    6.6420    0.0000 </r>
       <r>    9.6269    0.0000 </r>
       <r>   10.6422    0.0000 </r>
       <r>   13.8931    0.0000 </r>
      </set>
      <set comment="kpoint 16">
       <r>   -1.7606    1.0000 </r>
       <r>    6.2285    0.0000 </r>
       <r>    6.3576    0.0000 </r>
       <r>    6.8037    0.0000 </r>
       <r>    9.1565    0.0000 </r>
       <r>    9.7966    0.0000 </r>
      </set>
      <set comment="kpoint 17">
       <r>    0.8048    1.0000 </r>
       <r>    4.9130    1.0000 </r>
       <r>    5.0267    1.0000 </r>
       <r>    9.0232    0.0000 </r>
       <r>   10.1823    0.0000 </r>
       <r>   10.3026    0.0000 </r>
      </set>
      <set comment="kpoint 18">
       <r>    1.6101    1.0000 </r>
       <r>    4.5755    1.0000 </r>
       <r>    4.9275    1.0000 </r>
       <r>    9.1945    0.0000 </r>
       <r>   10.3895    0.0000 </r>
       <r>   11.6758    0.0000 </r>
      </set>
      <set comment="kpoint 19">
       <r>    2.0986    1.0000 </r>
       <r>    4.3647    1.0000 </r>
       <r>    5.2319    1.0000 </r>
       <r>    9.4575    0.0000 </r>
       <r>   10.5037    0.0000 </r>
       <r>   13.0734    0.0000 </r>
      </set>
      <set comment="kpoint 20">
       <r>    2.2317    1.0000 </r>
       <r>    4.2457    1.0000 </r>
       <r>    5.8356   -0.0032 </r>
       <r>    9.6200    0.0000 </r>
       <r>   10.6270    0.0000 </r>
       <r>   14.2487    0.0000 </r>
      </set>
      <set comment="kpoint 21">
       <r>    2.2417    1.0000 </r>
       <r>    4.2062    1.0000 </r>
       <r>    6.1556    0.0000 </r>
       <r>    9.6257    0.0000 </r>
       <r>   10.7345    0.0000 </r>
       <r>   14.7570    0.0000 </r>
      </set>
      <set comment="kpoint 22">
       <r>   -1.1353    1.0000 </r>
       <r>    5.8602   -0.0003 </r>
       <r>    6.1355    0.0000 </r>
       <r>    7.4644    0.0000 </r>
       <r>    8.8337    0.0000 </r>
       <r>    9.8562    0.0000 </r>
      </set>
      <set comment="kpoint 23">
       <r>   -1.2820    1.0000 </r>
       <r>    6.0646    0.0000 </r>
       <r>    6.1670    0.0000 </r>
       <r>    7.2505    0.0000 </r>
       <r>    8.6901    0.0000 </r>
       <r>    9.9683    0.0000 </r>
      </set>
      <set comment="kpoint 24">
       <r>    2.3293    1.0000 </r>
       <r>    4.3522    1.0000 </r>
       <r>    4.9078    1.0000 </r>
       <r>    9.3697    0.0000 </r>
       <r>   10.5083    0.0000 </r>
       <r>   13.1231    0.0000 </r>
      </set>
      <set comment="kpoint 25">
       <r>    2.7143    1.0000 </r>
       <r>    4.2832    1.0000 </r>
       <r>    5.1629    1.0000 </r>
       <r>    9.6269    0.0000 </r>
       <r>   10.5275    0.0000 </r>
       <r>   14.5235    0.0000 </r>
      </set>
      <set comment="kpoint 26">
       <r>    2.7998    1.0000 </r>
       <r>    4.2822    1.0000 </r>
       <r>    5.4965    1.0000 </r>
       <r>    9.7657    0.0000 </r>
       <r>   10.6288    0.0000 </r>
       <r>   15.1360    0.0000 </r>
      </set>
      <set comment="kpoint 27">
       <r>   -0.3147    1.0000 </r>
       <r>    5.4241    1.0000 </r>
       <r>    5.7740   -0.0278 </r>
       <r>    8.4220    0.0000 </r>
       <r>    8.8025    0.0000 </r>
       <r>    9.9556    0.0000 </r>
      </set>
      <set comment="kpoint 28">
       <r>   -0.5530    1.0000 </r>
       <r>    5.6958    0.8893 </r>
       <r>    5.8549   -0.0006 </r>
       <r>    8.0578    0.0000 </r>
       <r>    8.4427    0.0000 </r>
       <r>   10.1274    0.0000 </r>
      </set>
      <set comment="kpoint 29">
       <r>    3.0926    1.0000 </r>
       <r>    4.3761    1.0000 </r>
       <r>    5.0941    1.0000 </r>
       <r>    9.9178    0.0000 </r>
       <r>   10.4789    0.0000 </r>
       <r>   14.8927    0.0000 </r>
      </set>
      <set comment="kpoint 30">
       <r>    3.1907    1.0000 </r>
       <r>    4.5026    1.0000 </r>
       <r>    5.0283    1.0000 </r>
       <r>   10.0874    0.0000 </r>
       <r>   10.4701    0.0000 </r>
       <r>   14.2996    0.0000 </r>
      </set>
      <set comment="kpoint 31">
       <r>    0.5197    1.0000 </r>
       <r>    4.9979    1.0000 </r>
       <r>    5.5323    1.0000 </r>
       <r>    9.0241    0.0000 </r>
       <r>    9.6271    0.0000 </r>
       <r>   10.1022    0.0000 </r>
      </set>
      <set comment="kpoint 32">
       <r>    0.2995    1.0000 </r>
       <r>    5.2609    1.0000 </r>
       <r>    5.5103    1.0000 </r>
       <r>    8.5258    0.0000 </r>
       <r>    9.1592    0.0000 </r>
       <r>   10.2811    0.0000 </r>
      </set>
      <set comment="kpoint 33">
       <r>    0.2292    1.0000 </r>
       <r>    5.3734    1.0000 </r>
       <r>    5.4996    1.0000 </r>
       <r>    8.2906    0.0000 </r>
       <r>    9.0247    0.0000 </r>
       <r>   10.3666    0.0000 </r>
      </set>
      <set comment="kpoint 34">
       <r>    1.1130    1.0000 </r>
       <r>    4.6377    1.0000 </r>
       <r>    5.7218    0.5139 </r>
       <r>    9.3341    0.0000 </r>
       <r>   10.2780    0.0000 </r>
       <r>   10.9919    0.0000 </r>
      </set>
      <set comment="kpoint 35">
       <r>    1.0530    1.0000 </r>
       <r>    4.8733    1.0000 </r>
       <r>    5.3998    1.0000 </r>
       <r>    8.8465    0.0000 </r>
       <r>   10.3742    0.0000 </r>
       <r>   10.4987    0.0000 </r>
      </set>
      <set comment="kpoint 36">
       <r>    1.0636    1.0000 </r>
       <r>    4.9293    1.0000 </r>
       <r>    5.3002    1.0000 </r>
       <r>    8.4412    0.0000 </r>
       <r>   10.2063    0.0000 </r>
       <r>   10.5693    0.0000 </r>
      </set>
      <set comment="kpoint 37">
       <r>    1.3546    1.0000 </r>
       <r>    4.3801    1.0000 </r>
       <r>    6.3667    0.0000 </r>
       <r>    9.5213    0.0000 </r>
       <r>   10.4822    0.0000 </r>
       <r>   12.3371    0.0000 </r>
      </set>
      <set comment="kpoint 38">
       <r>    1.4745    1.0000 </r>
       <r>    4.5806    1.0000 </r>
       <r>    5.7471    0.1361 </r>
       <r>    9.1882    0.0000 </r>
       <r>   10.5396    0.0000 </r>
       <r>   11.8540    0.0000 </r>
      </set>
      <set comment="kpoint 39">
       <r>    1.7037    1.0000 </r>
       <r>    4.6529    1.0000 </r>
       <r>    5.2931    1.0000 </r>
       <r>    8.7863    0.0000 </r>
       <r>   10.5295    0.0000 </r>
       <r>   11.7016    0.0000 </r>
      </set>
      <set comment="kpoint 40">
       <r>    1.8331    1.0000 </r>
       <r>    4.5399    1.0000 </r>
       <r>    5.2462    1.0000 </r>
       <r>    8.5985    0.0000 </r>
       <r>   10.5053    0.0000 </r>
       <r>   11.6926    0.0000 </r>
      </set>
      <set comment="kpoint 41">
       <r>    1.4002    1.0000 </r>
       <r>    4.2463    1.0000 </r>
       <r>    7.0176    0.0000 </r>
       <r>    9.4741    0.0000 </r>
       <r>   10.6730    0.0000 </r>
       <r>   13.2801    0.0000 </r>
      </set>
      <set comment="kpoint 42">
       <r>    1.5924    1.0000 </r>
       <r>    4.3967    1.0000 </r>
       <r>    6.3693    0.0000 </r>
       <r>    9.2744    0.0000 </r>
       <r>   10.7966    0.0000 </r>
       <r>   13.0591    0.0000 </r>
      </set>
      <set comment="kpoint 43">
       <r>    1.9756    1.0000 </r>
       <r>    4.5122    1.0000 </r>
       <r>    5.6320    1.0140 </r>
       <r>    9.0655    0.0000 </r>
       <r>   10.6759    0.0000 </r>
       <r>   13.0694    0.0000 </r>
      </set>
      <set comment="kpoint 44">
       <r>    2.3738    1.0000 </r>
       <r>    4.3615    1.0000 </r>
       <r>    5.2871    1.0000 </r>
       <r>    8.9285    0.0000 </r>
       <r>   10.4823    0.0000 </r>
       <r>   13.1690    0.0000 </r>
      </set>
      <set comment="kpoint 45">
       <r>    1.6036    1.0000 </r>
       <r>    4.3341    1.0000 </r>
       <r>    6.7036    0.0000 </r>
       <r>    9.2064    0.0000 </r>
       <r>   10.9777    0.0000 </r>
       <r>   13.5839    0.0000 </r>
      </set>
      <set comment="kpoint 46">
       <r>    2.0212    1.0000 </r>
       <r>    4.4395    1.0000 </r>
       <r>    6.0371    0.0000 </r>
       <r>    9.0671    0.0000 </r>
       <r>   10.9978    0.0000 </r>
       <r>   14.0435    0.0000 </r>
      </set>
      <set comment="kpoint 47">
       <r>    2.5625    1.0000 </r>
       <r>    4.4023    1.0000 </r>
       <r>    5.4140    1.0000 </r>
       <r>    9.1541    0.0000 </r>
       <r>   10.6609    0.0000 </r>
       <r>   14.5226    0.0000 </r>
      </set>
      <set comment="kpoint 48">
       <r>    2.9015    1.0000 </r>
       <r>    4.2220    1.0000 </r>
       <r>    5.2126    1.0000 </r>
       <r>    9.2867    0.0000 </r>
       <r>   10.4042    0.0000 </r>
       <r>   14.7214    0.0000 </r>
      </set>
      <set comment="kpoint 49">
       <r>    2.5846    1.0000 </r>
       <r>    4.4440    1.0000 </r>
       <r>    5.4971    1.0000 </r>
       <r>    9.1747    0.0000 </r>
       <r>   10.8886    0.0000 </r>
       <r>   15.1720    0.0000 </r>
      </set>
      <set comment="kpoint 50">
       <r>    3.1241    1.0000 </r>
       <r>    4.3520    1.0000 </r>
       <r>    5.0205    1.0000 </r>
       <r>    9.5815    0.0000 </r>
       <r>   10.5066    0.0000 </r>
       <r>   15.0781    0.0000 </r>
      </set>
      <set comment="kpoint 51">
       <r>    3.3894    1.0000 </r>
       <r>    4.5644    1.0000 </r>
       <r>    4.5644    1.0000 </r>
       <r>   10.1393    0.0000 </r>
       <r>   10.1393    0.0000 </r>
       <r>   14.5590    0.0000 </r>
      </set>
      <set comment="kpoint 52">
       <r>   -0.1425    1.0000 </r>
       <r>    5.2892    1.0000 </r>
       <r>    5.2892    1.0000 </r>
       <r>    9.0962    0.0000 </r>
       <r>    9.4856    0.0000 </r>
       <r>    9.4856    0.0000 </r>
      </set>
      <set comment="kpoint 53">
       <r>    0.7164    1.0000 </r>
       <r>    4.8746    1.0000 </r>
       <r>    4.9466    1.0000 </r>
       <r>    9.4655    0.0000 </r>
       <r>    9.8392    0.0000 </r>
       <r>   10.3414    0.0000 </r>
      </set>
      <set comment="kpoint 54">
       <r>    1.5335    1.0000 </r>
       <r>    4.5373    1.0000 </r>
       <r>    4.8559    1.0000 </r>
       <r>    9.6052    0.0000 </r>
       <r>   10.1364    0.0000 </r>
       <r>   11.7129    0.0000 </r>
      </set>
      <set comment="kpoint 55">
       <r>    2.0062    1.0000 </r>
       <r>    4.2915    1.0000 </r>
       <r>    5.2779    1.0000 </r>
       <r>    9.7867    0.0000 </r>
       <r>   10.3825    0.0000 </r>
       <r>   13.0717    0.0000 </r>
      </set>
      <set comment="kpoint 56">
       <r>    2.1239    1.0000 </r>
       <r>    4.1427    1.0000 </r>
       <r>    6.0310    0.0000 </r>
       <r>    9.8773    0.0000 </r>
       <r>   10.5588    0.0000 </r>
       <r>   14.1670    0.0000 </r>
      </set>
      <set comment="kpoint 57">
       <r>    2.1299    1.0000 </r>
       <r>    4.0929    1.0000 </r>
       <r>    6.4293    0.0000 </r>
       <r>    9.8736    0.0000 </r>
       <r>   10.6249    0.0000 </r>
       <r>   14.6216    0.0000 </r>
      </set>
      <set comment="kpoint 58">
       <r>   -1.4334    1.0000 </r>
       <r>    6.3581    0.0000 </r>
       <r>    6.3581    0.0000 </r>
       <r>    6.8085    0.0000 </r>
       <r>    8.5075    0.0000 </r>
       <r>   10.0988    0.0000 </r>
      </set>
      <set comment="kpoint 59">
       <r>    1.5923    1.0000 </r>
       <r>    4.5673    1.0000 </r>
       <r>    4.6159    1.0000 </r>
       <r>    9.6500    0.0000 </r>
       <r>   10.0949    0.0000 </r>
       <r>   11.7361    0.0000 </r>
      </set>
      <set comment="kpoint 60">
       <r>    2.3442    1.0000 </r>
       <r>    4.3278    1.0000 </r>
       <r>    4.6374    1.0000 </r>
       <r>    9.8154    0.0000 </r>
       <r>   10.3630    0.0000 </r>
       <r>   13.1688    0.0000 </r>
      </set>
      <set comment="kpoint 61">
       <r>    2.6507    1.0000 </r>
       <r>    4.1775    1.0000 </r>
       <r>    5.1951    1.0000 </r>
       <r>    9.9806    0.0000 </r>
       <r>   10.5386    0.0000 </r>
       <r>   14.4494    0.0000 </r>
      </set>
      <set comment="kpoint 62">
       <r>    2.6811    1.0000 </r>
       <r>    4.1052    1.0000 </r>
       <r>    5.8182   -0.0106 </r>
       <r>   10.0428    0.0000 </r>
       <r>   10.6448    0.0000 </r>
       <r>   15.1790    0.0000 </r>
      </set>
      <set comment="kpoint 63">
       <r>   -0.8197    1.0000 </r>
       <r>    6.1169    0.0000 </r>
       <r>    6.2277    0.0000 </r>
       <r>    7.3608    0.0000 </r>
       <r>    7.9586    0.0000 </r>
       <r>   10.3143    0.0000 </r>
      </set>
      <set comment="kpoint 64">
       <r>    2.9827    1.0000 </r>
       <r>    4.2656    1.0000 </r>
       <r>    4.6690    1.0000 </r>
       <r>   10.0011    0.0000 </r>
       <r>   10.5287    0.0000 </r>
       <r>   14.5816    0.0000 </r>
      </set>
      <set comment="kpoint 65">
       <r>    3.1849    1.0000 </r>
       <r>    4.2559    1.0000 </r>
       <r>    5.1046    1.0000 </r>
       <r>   10.1746    0.0000 </r>
       <r>   10.5989    0.0000 </r>
       <r>   14.8325    0.0000 </r>
      </set>
      <set comment="kpoint 66">
       <r>    3.2011    1.0000 </r>
       <r>    4.2489    1.0000 </r>
       <r>    5.3827    1.0000 </r>
       <r>   10.2304    0.0000 </r>
       <r>   10.6434    0.0000 </r>
       <r>   14.2183    0.0000 </r>
      </set>
      <set comment="kpoint 67">
       <r>   -0.0125    1.0000 </r>
       <r>    5.7174    0.5876 </r>
       <r>    5.8203   -0.0093 </r>
       <r>    7.8856    0.0000 </r>
       <r>    8.3035    0.0000 </r>
       <r>   10.4720    0.0000 </r>
      </set>
      <set comment="kpoint 68">
       <r>   -0.1156    1.0000 </r>
       <r>    5.9335    0.0000 </r>
       <r>    6.0196    0.0000 </r>
       <r>    7.5317    0.0000 </r>
       <r>    7.9828    0.0000 </r>
       <r>   10.5543    0.0000 </r>
      </set>
      <set comment="kpoint 69">
       <r>    3.3972    1.0000 </r>
       <r>    4.5535    1.0000 </r>
       <r>    4.9645    1.0000 </r>
       <r>   10.3884    0.0000 </r>
       <r>   10.5673    0.0000 </r>
       <r>   13.8387    0.0000 </r>
      </set>
      <set comment="kpoint 70">
       <r>    0.8171    1.0000 </r>
       <r>    5.3124    1.0000 </r>
       <r>    5.4159    1.0000 </r>
       <r>    8.2041    0.0000 </r>
       <r>    9.5086    0.0000 </r>
       <r>   10.5742    0.0000 </r>
      </set>
      <set comment="kpoint 71">
       <r>    0.7131    1.0000 </r>
       <r>    5.3920    1.0000 </r>
       <r>    5.7518    0.0876 </r>
       <r>    7.6497    0.0000 </r>
       <r>    9.0183    0.0000 </r>
       <r>   10.6859    0.0000 </r>
      </set>
      <set comment="kpoint 72">
       <r>    1.4194    1.0000 </r>
       <r>    4.9664    1.0000 </r>
       <r>    5.3834    1.0000 </r>
       <r>    8.6476    0.0000 </r>
       <r>   10.6631    0.0000 </r>
       <r>   10.8806    0.0000 </r>
      </set>
      <set comment="kpoint 73">
       <r>    1.4658    1.0000 </r>
       <r>    4.9797    1.0000 </r>
       <r>    5.4734    1.0000 </r>
       <r>    8.0807    0.0000 </r>
       <r>   10.2327    0.0000 </r>
       <r>   10.8025    0.0000 </r>
      </set>
      <set comment="kpoint 74">
       <r>    1.5020    1.0000 </r>
       <r>    4.8432    1.0000 </r>
       <r>    5.7107    0.6960 </r>
       <r>    7.7832    0.0000 </r>
       <r>   10.0255    0.0000 </r>
       <r>   10.8503    0.0000 </r>
      </set>
      <set comment="kpoint 75">
       <r>    1.6630    1.0000 </r>
       <r>    4.7174    1.0000 </r>
       <r>    5.7842   -0.0355 </r>
       <r>    8.8678    0.0000 </r>
       <r>   10.9518    0.0000 </r>
       <r>   12.2399    0.0000 </r>
      </set>
      <set comment="kpoint 76">
       <r>    1.9030    1.0000 </r>
       <r>    4.8734    1.0000 </r>
       <r>    5.3599    1.0000 </r>
       <r>    8.4751    0.0000 </r>
       <r>   10.7619    0.0000 </r>
       <r>   11.8360    0.0000 </r>
      </set>
      <set comment="kpoint 77">
       <r>    2.1582    1.0000 </r>
       <r>    4.4800    1.0000 </r>
       <r>    5.5904    1.0006 </r>
       <r>    8.1881    0.0000 </r>
       <r>   10.4106    0.0000 </r>
       <r>   11.8209    0.0000 </r>
      </set>
      <set comment="kpoint 78">
       <r>    1.7023    1.0000 </r>
       <r>    4.5880    1.0000 </r>
       <r>    6.2427    0.0000 </r>
       <r>    8.7620    0.0000 </r>
       <r>   11.4042    0.0000 </r>
       <r>   13.2000    0.0000 </r>
      </set>
      <set comment="kpoint 79">
       <r>    2.0172    1.0000 </r>
       <r>    4.8286    1.0000 </r>
       <r>    5.5863    1.0004 </r>
       <r>    8.4928    0.0000 </r>
       <r>   11.3153    0.0000 </r>
       <r>   13.0779    0.0000 </r>
      </set>
      <set comment="kpoint 80">
       <r>    2.4714    1.0000 </r>
       <r>    4.5036    1.0000 </r>
       <r>    5.4249    1.0000 </r>
       <r>    8.4946    0.0000 </r>
       <r>   10.7010    0.0000 </r>
       <r>   13.2524    0.0000 </r>
      </set>
      <set comment="kpoint 81">
       <r>    2.7719    1.0000 </r>
       <r>    4.1293    1.0000 </r>
       <r>    5.4953    1.0000 </r>
       <r>    8.5964    0.0000 </r>
       <r>   10.3303    0.0000 </r>
       <r>   13.3427    0.0000 </r>
      </set>
      <set comment="kpoint 82">
       <r>    2.0221    1.0000 </r>
       <r>    4.7952    1.0000 </r>
       <r>    5.7721   -0.0240 </r>
       <r>    8.3937    0.0000 </r>
       <r>   11.7045    0.0000 </r>
       <r>   13.6419    0.0000 </r>
      </set>
      <set comment="kpoint 83">
       <r>    2.5174    1.0000 </r>
       <r>    4.7585    1.0000 </r>
       <r>    5.2484    1.0000 </r>
       <r>    8.4965    0.0000 </r>
       <r>   11.2811    0.0000 </r>
       <r>   14.3900    0.0000 </r>
      </set>
      <set comment="kpoint 84">
       <r>    3.0931    1.0000 </r>
       <r>    4.1863    1.0000 </r>
       <r>    5.1423    1.0000 </r>
       <r>    8.9845    0.0000 </r>
       <r>   10.5709    0.0000 </r>
       <r>   14.8678    0.0000 </r>
      </set>
      <set comment="kpoint 85">
       <r>    3.1325    1.0000 </r>
       <r>    4.5752    1.0000 </r>
       <r>    4.7053    1.0000 </r>
       <r>    9.0745    0.0000 </r>
       <r>   10.8823    0.0000 </r>
       <r>   15.4950    0.0000 </r>
      </set>
      <set comment="kpoint 86">
       <r>    3.6681    1.0000 </r>
       <r>    4.0902    1.0000 </r>
       <r>    4.5775    1.0000 </r>
       <r>    9.6962    0.0000 </r>
       <r>   10.3753    0.0000 </r>
       <r>   15.1224    0.0000 </r>
      </set>
      <set comment="kpoint 87">
       <r>    2.5043    1.0000 </r>
       <r>    4.3280    1.0000 </r>
       <r>    4.3280    1.0000 </r>
       <r>   10.1263    0.0000 </r>
       <r>   10.1263    0.0000 </r>
       <r>   13.2309    0.0000 </r>
      </set>
      <set comment="kpoint 88">
       <r>    3.1845    1.0000 </r>
       <r>    4.1783    1.0000 </r>
       <r>    4.4530    1.0000 </r>
       <r>   10.2276    0.0000 </r>
       <r>   10.4478    0.0000 </r>
       <r>   14.6393    0.0000 </r>
      </set>
      <set comment="kpoint 89">
       <r>    3.2903    1.0000 </r>
       <r>    4.0989    1.0000 </r>
       <r>    5.1366    1.0000 </r>
       <r>   10.3096    0.0000 </r>
       <r>   10.6304    0.0000 </r>
       <r>   14.8285    0.0000 </r>
      </set>
      <set comment="kpoint 90">
       <r>    3.2716    1.0000 </r>
       <r>    4.0741    1.0000 </r>
       <r>    5.5182    1.0000 </r>
       <r>   10.3283    0.0000 </r>
       <r>   10.6895    0.0000 </r>
       <r>   14.2055    0.0000 </r>
      </set>
      <set comment="kpoint 91">
       <r>   -0.2299    1.0000 </r>
       <r>    6.3778    0.0000 </r>
       <r>    6.3779    0.0000 </r>
       <r>    7.0143    0.0000 </r>
       <r>    7.4420    0.0000 </r>
       <r>   10.6335    0.0000 </r>
      </set>
      <set comment="kpoint 92">
       <r>    3.7201    1.0000 </r>
       <r>    4.2479    1.0000 </r>
       <r>    4.5150    1.0000 </r>
       <r>   10.4333    0.0000 </r>
       <r>   10.5947    0.0000 </r>
       <r>   14.7132    0.0000 </r>
      </set>
      <set comment="kpoint 93">
       <r>    3.7443    1.0000 </r>
       <r>    4.2653    1.0000 </r>
       <r>    4.9975    1.0000 </r>
       <r>   10.5216    0.0000 </r>
       <r>   10.6862    0.0000 </r>
       <r>   13.6336    0.0000 </r>
      </set>
      <set comment="kpoint 94">
       <r>    0.5447    1.0000 </r>
       <r>    5.8804    0.0000 </r>
       <r>    6.2286    0.0000 </r>
       <r>    6.9379    0.0000 </r>
       <r>    8.1706    0.0000 </r>
       <r>   10.7856    0.0000 </r>
      </set>
      <set comment="kpoint 95">
       <r>    3.8165    1.0000 </r>
       <r>    4.6979    1.0000 </r>
       <r>    4.6979    1.0000 </r>
       <r>   10.6549    0.0000 </r>
       <r>   10.6549    0.0000 </r>
       <r>   13.1645    0.0000 </r>
      </set>
      <set comment="kpoint 96">
       <r>    1.3504    1.0000 </r>
       <r>    5.1745    1.0000 </r>
       <r>    5.9090    0.0000 </r>
       <r>    7.4383    0.0000 </r>
       <r>    9.3260    0.0000 </r>
       <r>   10.7956    0.0000 </r>
      </set>
      <set comment="kpoint 97">
       <r>    1.3177    1.0000 </r>
       <r>    5.2335    1.0000 </r>
       <r>    6.2860    0.0000 </r>
       <r>    7.0467    0.0000 </r>
       <r>    8.9344    0.0000 </r>
       <r>   10.8179    0.0000 </r>
      </set>
      <set comment="kpoint 98">
       <r>    1.9579    1.0000 </r>
       <r>    4.8326    1.0000 </r>
       <r>    5.6051    1.0022 </r>
       <r>    7.9435    0.0000 </r>
       <r>   10.6917    0.0000 </r>
       <r>   10.8748    0.0000 </r>
      </set>
      <set comment="kpoint 99">
       <r>    2.0382    1.0000 </r>
       <r>    4.6217    1.0000 </r>
       <r>    6.1079    0.0000 </r>
       <r>    7.5350    0.0000 </r>
       <r>   10.0050    0.0000 </r>
       <r>   10.8975    0.0000 </r>
      </set>
      <set comment="kpoint 100">
       <r>    2.1976    1.0000 </r>
       <r>    4.9512    1.0000 </r>
       <r>    5.3792    1.0000 </r>
       <r>    8.0635    0.0000 </r>
       <r>   11.4430    0.0000 </r>
       <r>   12.0676    0.0000 </r>
      </set>
      <set comment="kpoint 101">
       <r>    2.4844    1.0000 </r>
       <r>    4.3851    1.0000 </r>
       <r>    5.8552   -0.0006 </r>
       <r>    7.9157    0.0000 </r>
       <r>   10.7155    0.0000 </r>
       <r>   11.8790    0.0000 </r>
      </set>
      <set comment="kpoint 102">
       <r>    2.6605    1.0000 </r>
       <r>    4.1065    1.0000 </r>
       <r>    6.0521    0.0000 </r>
       <r>    7.9664    0.0000 </r>
       <r>   10.2297    0.0000 </r>
       <r>   11.9061    0.0000 </r>
      </set>
      <set comment="kpoint 103">
       <r>    2.2159    1.0000 </r>
       <r>    5.2312    1.0000 </r>
       <r>    5.2600    1.0000 </r>
       <r>    7.8822    0.0000 </r>
       <r>   12.2827    0.0000 </r>
       <r>   13.0551    0.0000 </r>
      </set>
      <set comment="kpoint 104">
       <r>    2.5745    1.0000 </r>
       <r>    4.5709    1.0000 </r>
       <r>    5.6087    1.0029 </r>
       <r>    7.8876    0.0000 </r>
       <r>   11.5999    0.0000 </r>
       <r>   13.2037    0.0000 </r>
      </set>
      <set comment="kpoint 105">
       <r>    3.0240    1.0000 </r>
       <r>    3.9447    1.0000 </r>
       <r>    5.6992    0.8519 </r>
       <r>    8.4137    0.0000 </r>
       <r>   10.5951    0.0000 </r>
       <r>   13.4227    0.0000 </r>
      </set>
      <set comment="kpoint 106">
       <r>    2.5588    1.0000 </r>
       <r>    4.7611    1.0000 </r>
       <r>    5.4645    1.0000 </r>
       <r>    7.7989    0.0000 </r>
       <r>   12.1761    0.0000 </r>
       <r>   13.9062    0.0000 </r>
      </set>
      <set comment="kpoint 107">
       <r>    3.0315    1.0000 </r>
       <r>    4.2172    1.0000 </r>
       <r>    5.2893    1.0000 </r>
       <r>    8.5232    0.0000 </r>
       <r>   11.3236    0.0000 </r>
       <r>   14.8061    0.0000 </r>
      </set>
      <set comment="kpoint 108">
       <r>    3.5466    1.0000 </r>
       <r>    3.6730    1.0000 </r>
       <r>    5.1769    1.0000 </r>
       <r>    9.2317    0.0000 </r>
       <r>   10.5960    0.0000 </r>
       <r>   15.0432    0.0000 </r>
      </set>
      <set comment="kpoint 109">
       <r>    3.5330    1.0000 </r>
       <r>    3.9372    1.0000 </r>
       <r>    4.8002    1.0000 </r>
       <r>    9.5918    0.0000 </r>
       <r>   10.7156    0.0000 </r>
       <r>   15.4081    0.0000 </r>
      </set>
      <set comment="kpoint 110">
       <r>    4.2599    1.0000 </r>
       <r>    4.2599    1.0000 </r>
       <r>    4.5443    1.0000 </r>
       <r>   10.6657    0.0000 </r>
       <r>   10.6657    0.0000 </r>
       <r>   13.4318    0.0000 </r>
      </set>
      <set comment="kpoint 111">
       <r>    4.2682    1.0000 </r>
       <r>    4.3029    1.0000 </r>
       <r>    4.7539    1.0000 </r>
       <r>   10.6934    0.0000 </r>
       <r>   10.7358    0.0000 </r>
       <r>   12.9349    0.0000 </r>
      </set>
      <set comment="kpoint 112">
       <r>    1.2592    1.0000 </r>
       <r>    5.4890    1.0000 </r>
       <r>    6.6690    0.0000 </r>
       <r>    6.6690    0.0000 </r>
       <r>    8.3492    0.0000 </r>
       <r>   10.8315    0.0000 </r>
      </set>
      <set comment="kpoint 113">
       <r>    1.9857    1.0000 </r>
       <r>    4.7398    1.0000 </r>
       <r>    6.6871    0.0000 </r>
       <r>    7.1059    0.0000 </r>
       <r>    9.2080    0.0000 </r>
       <r>   10.7133    0.0000 </r>
      </set>
      <set comment="kpoint 114">
       <r>    2.5424    1.0000 </r>
       <r>    4.2058    1.0000 </r>
       <r>    6.5071    0.0000 </r>
       <r>    7.5574    0.0000 </r>
       <r>   10.4899    0.0000 </r>
       <r>   10.8461    0.0000 </r>
      </set>
      <set comment="kpoint 115">
       <r>    2.5746    1.0000 </r>
       <r>    4.1288    1.0000 </r>
       <r>    6.8296    0.0000 </r>
       <r>    7.5167    0.0000 </r>
       <r>    9.9369    0.0000 </r>
       <r>   10.7804    0.0000 </r>
      </set>
      <set comment="kpoint 116">
       <r>    2.7366    1.0000 </r>
       <r>    4.1025    1.0000 </r>
       <r>    6.3347    0.0000 </r>
       <r>    7.5812    0.0000 </r>
       <r>   11.7302    0.0000 </r>
       <r>   11.8579    0.0000 </r>
      </set>
      <set comment="kpoint 117">
       <r>    2.9440    1.0000 </r>
       <r>    3.7228    1.0000 </r>
       <r>    6.6242    0.0000 </r>
       <r>    7.9717    0.0000 </r>
       <r>   10.5789    0.0000 </r>
       <r>   11.8629    0.0000 </r>
      </set>
      <set comment="kpoint 118">
       <r>    2.6950    1.0000 </r>
       <r>    4.2451    1.0000 </r>
       <r>    6.2379    0.0000 </r>
       <r>    7.3919    0.0000 </r>
       <r>   12.8718    0.0000 </r>
       <r>   12.9876    0.0000 </r>
      </set>
      <set comment="kpoint 119">
       <r>    2.9386    1.0000 </r>
       <r>    3.7421    1.0000 </r>
       <r>    6.3604    0.0000 </r>
       <r>    8.0554    0.0000 </r>
       <r>   11.6062    0.0000 </r>
       <r>   13.3442    0.0000 </r>
      </set>
      <set comment="kpoint 120">
       <r>    3.2375    1.0000 </r>
       <r>    3.3529    1.0000 </r>
       <r>    6.2717    0.0000 </r>
       <r>    8.8341    0.0000 </r>
       <r>   10.7071    0.0000 </r>
       <r>   13.4577    0.0000 </r>
      </set>
      <set comment="kpoint 121">
       <r>    2.8732    1.0000 </r>
       <r>    3.8303    1.0000 </r>
       <r>    6.2375    0.0000 </r>
       <r>    8.0334    0.0000 </r>
       <r>   12.2568    0.0000 </r>
       <r>   14.3339    0.0000 </r>
      </set>
      <set comment="kpoint 122">
       <r>    3.1209    1.0000 </r>
       <r>    3.4581    1.0000 </r>
       <r>    5.9709    0.0000 </r>
       <r>    9.2848    0.0000 </r>
       <r>   11.2366    0.0000 </r>
       <r>   15.0556    0.0000 </r>
      </set>
      <set comment="kpoint 123">
       <r>    3.2773    1.0000 </r>
       <r>    3.2773    1.0000 </r>
       <r>    5.7949   -0.0300 </r>
       <r>   10.4779    0.0000 </r>
       <r>   10.4779    0.0000 </r>
       <r>   15.5152    0.0000 </r>
      </set>
      <set comment="kpoint 124">
       <r>    2.5417    1.0000 </r>
       <r>    4.1455    1.0000 </r>
       <r>    7.3511    0.0000 </r>
       <r>    7.3511    0.0000 </r>
       <r>    9.4598    0.0000 </r>
       <r>   10.5138    0.0000 </r>
      </set>
      <set comment="kpoint 125">
       <r>    2.8933    1.0000 </r>
       <r>    3.6004    1.0000 </r>
       <r>    7.5636    0.0000 </r>
       <r>    7.7827    0.0000 </r>
       <r>   10.3885    0.0000 </r>
       <r>   10.7093    0.0000 </r>
      </set>
      <set comment="kpoint 126">
       <r>    2.9344    1.0000 </r>
       <r>    3.3576    1.0000 </r>
       <r>    7.5331    0.0000 </r>
       <r>    7.8553    0.0000 </r>
       <r>   11.6604    0.0000 </r>
       <r>   11.8150    0.0000 </r>
      </set>
      <set comment="kpoint 127">
       <r>    3.0029    1.0000 </r>
       <r>    3.1534    1.0000 </r>
       <r>    7.5856    0.0000 </r>
       <r>    8.5693    0.0000 </r>
       <r>   10.7375    0.0000 </r>
       <r>   11.7762    0.0000 </r>
      </set>
      <set comment="kpoint 128">
       <r>    2.7891    1.0000 </r>
       <r>    3.3879    1.0000 </r>
       <r>    7.4841    0.0000 </r>
       <r>    7.7503    0.0000 </r>
       <r>   12.6805    0.0000 </r>
       <r>   13.4074    0.0000 </r>
      </set>
      <set comment="kpoint 129">
       <r>    2.8337    1.0000 </r>
       <r>    3.0509    1.0000 </r>
       <r>    7.4146    0.0000 </r>
       <r>    9.0224    0.0000 </r>
       <r>   11.5516    0.0000 </r>
       <r>   13.3828    0.0000 </r>
      </set>
      <set comment="kpoint 130">
       <r>    2.7318    1.0000 </r>
       <r>    3.0527    1.0000 </r>
       <r>    7.3391    0.0000 </r>
       <r>    9.1030    0.0000 </r>
       <r>   12.1608    0.0000 </r>
       <r>   14.6747    0.0000 </r>
      </set>
      <set comment="kpoint 131">
       <r>    2.7764    1.0000 </r>
       <r>    2.8660    1.0000 </r>
       <r>    7.2391    0.0000 </r>
       <r>   10.2526    0.0000 </r>
       <r>   11.3043    0.0000 </r>
       <r>   15.1246    0.0000 </r>
      </set>
      <set comment="kpoint 132">
       <r>    2.9184    1.0000 </r>
       <r>    3.0854    1.0000 </r>
       <r>    8.4766    0.0000 </r>
       <r>    8.4766    0.0000 </r>
       <r>   10.6528    0.0000 </r>
       <r>   10.8406    0.0000 </r>
      </set>
      <set comment="kpoint 133">
       <r>    2.7096    1.0000 </r>
       <r>    2.8058    1.0000 </r>
       <r>    8.8681    0.0000 </r>
       <r>    8.8866    0.0000 </r>
       <r>   11.5488    0.0000 </r>
       <r>   11.8722    0.0000 </r>
      </set>
      <set comment="kpoint 134">
       <r>    2.5151    1.0000 </r>
       <r>    2.7135    1.0000 </r>
       <r>    8.9353    0.0000 </r>
       <r>    8.9435    0.0000 </r>
       <r>   12.5109    0.0000 </r>
       <r>   13.5888    0.0000 </r>
      </set>
      <set comment="kpoint 135">
       <r>    2.4647    1.0000 </r>
       <r>    2.5692    1.0000 </r>
       <r>    8.8782    0.0000 </r>
       <r>   10.0963    0.0000 </r>
       <r>   11.7710    0.0000 </r>
       <r>   13.3692    0.0000 </r>
      </set>
      <set comment="kpoint 136">
       <r>    2.3890    1.0000 </r>
       <r>    2.4710    1.0000 </r>
       <r>    8.8545    0.0000 </r>
       <r>   10.5425    0.0000 </r>
       <r>   12.0342    0.0000 </r>
       <r>   14.8526    0.0000 </r>
      </set>
      <set comment="kpoint 137">
       <r>    2.3585    1.0000 </r>
       <r>    2.4639    1.0000 </r>
       <r>   10.0408    0.0000 </r>
       <r>   10.0408    0.0000 </r>
       <r>   11.7259    0.0000 </r>
       <r>   12.3264    0.0000 </r>
      </set>
      <set comment="kpoint 138">
       <r>    2.1831    1.0000 </r>
       <r>    2.2516    1.0000 </r>
       <r>   10.5225    0.0000 </r>
       <r>   10.5261    0.0000 </r>
       <r>   12.3900    0.0000 </r>
       <r>   13.6788    0.0000 </r>
      </set>
      <set comment="kpoint 139">
       <r>    2.1116    1.0000 </r>
       <r>    2.1116    1.0000 </r>
       <r>   10.5800    0.0000 </r>
       <r>   11.9395    0.0000 </r>
       <r>   11.9395    0.0000 </r>
       <r>   14.9183    0.0000 </r>
      </set>
      <set comment="kpoint 140">
       <r>    1.9897    1.0000 </r>
       <r>    2.0098    1.0000 </r>
       <r>   11.9052    0.0000 </r>
       <r>   11.9052    0.0000 </r>
       <r>   12.3899    0.0000 </r>
       <r>   13.9625    0.0000 </r>
      </set>
     </set>
    </set>
   </array>
  </eigenvalues>
  <separator name="orbital magnetization" >
   <v name="MAGDIPOLOUT">      0.00000000      0.00000000      0.00000000</v>
  </separator>
  <dos>
   <i name="efermi">      5.72263556 </i>
   <total>
    <array>
     <dimension dim="1">gridpoints</dimension>
     <dimension dim="2">spin</dimension>
     <field>energy</field>
     <field>total</field>
     <field>integrated</field>
     <set>
      <set comment="spin 1">
       <r>    -2.9746     0.0000     0.0000 </r>
       <r>    -2.9101     0.0000     0.0000 </r>
       <r>    -2.8455     0.0000     0.0000 </r>
       <r>    -2.7809     0.0000     0.0000 </r>
       <r>    -2.7164     0.0000     0.0000 </r>
       <r>    -2.6518     0.0000     0.0000 </r>
       <r>    -2.5872     0.0000     0.0000 </r>
       <r>    -2.5227     0.0000     0.0000 </r>
       <r>    -2.4581     0.0000     0.0000 </r>
       <r>    -2.3935     0.0000     0.0000 </r>
       <r>    -2.3290     0.0000     0.0000 </r>
       <r>    -2.2644     0.0000     0.0000 </r>
       <r>    -2.1998    -0.0002     0.0000 </r>
       <r>    -2.1353     0.0005     0.0000 </r>
       <r>    -2.0707     0.0385     0.0025 </r>
       <r>    -2.0061     0.0060     0.0029 </r>
       <r>    -1.9416     0.0162     0.0039 </r>
       <r>    -1.8770     0.0460     0.0069 </r>
       <r>    -1.8124    -0.0060     0.0065 </r>
       <r>    -1.7478     0.1336     0.0151 </r>
       <r>    -1.6833     0.0575     0.0189 </r>
       <r>    -1.6187    -0.0046     0.0186 </r>
       <r>    -1.5541    -0.0007     0.0185 </r>
       <r>    -1.4896    -0.0041     0.0182 </r>
       <r>    -1.4250     0.1745     0.0295 </r>
       <r>    -1.3604     0.0579     0.0333 </r>
       <r>    -1.2959     0.0493     0.0364 </r>
       <r>    -1.2313     0.1344     0.0451 </r>
       <r>    -1.1667     0.0097     0.0457 </r>
       <r>    -1.1022     0.1590     0.0560 </r>
       <r>    -1.0376     0.0115     0.0567 </r>
       <r>    -0.9730    -0.0018     0.0566 </r>
       <r>    -0.9085    -0.0085     0.0561 </r>
       <r>    -0.8439     0.1094     0.0631 </r>
       <r>    -0.7793     0.2620     0.0801 </r>
       <r>    -0.7148     0.0641     0.0842 </r>
       <r>    -0.6502     0.1201     0.0920 </r>
       <r>    -0.5856     0.0189     0.0932 </r>
       <r>    -0.5211     0.3187     0.1138 </r>
       <r>    -0.4565     0.0265     0.1155 </r>
       <r>    -0.3919    -0.0082     0.1149 </r>
       <r>    -0.3274     0.0574     0.1186 </r>
       <r>    -0.2628     0.1363     0.1274 </r>
       <r>    -0.1982     0.0295     0.1293 </r>
       <r>    -0.1337     0.0845     0.1348 </r>
       <r>    -0.0691     0.1696     0.1458 </r>
       <r>    -0.0045     0.4294     0.1735 </r>
       <r>     0.0600     0.1198     0.1812 </r>
       <r>     0.1246     0.0070     0.1817 </r>
       <r>     0.1892     0.1600     0.1920 </r>
       <r>     0.2538     0.1594     0.2023 </r>
       <r>     0.3183     0.3195     0.2229 </r>
       <r>     0.3829     0.0788     0.2280 </r>
       <r>     0.4475    -0.0143     0.2271 </r>
       <r>     0.5120     0.0850     0.2326 </r>
       <r>     0.5766     0.2796     0.2506 </r>
       <r>     0.6412    -0.0083     0.2501 </r>
       <r>     0.7057     0.2059     0.2634 </r>
       <r>     0.7703     0.3650     0.2869 </r>
       <r>     0.8349     0.5497     0.3224 </r>
       <r>     0.8994     0.2517     0.3387 </r>
       <r>     0.9640     0.0915     0.3446 </r>
       <r>     1.0286     0.0627     0.3486 </r>
       <r>     1.0931     0.6662     0.3917 </r>
       <r>     1.1577     0.1885     0.4038 </r>
       <r>     1.2223    -0.0096     0.4032 </r>
       <r>     1.2868     0.0509     0.4065 </r>
       <r>     1.3514     0.4934     0.4384 </r>
       <r>     1.4160     0.4833     0.4696 </r>
       <r>     1.4805     1.2268     0.5488 </r>
       <r>     1.5451     0.5473     0.5841 </r>
       <r>     1.6097     0.7580     0.6331 </r>
       <r>     1.6742     0.6108     0.6725 </r>
       <r>     1.7388     0.9649     0.7348 </r>
       <r>     1.8034     0.2973     0.7540 </r>
       <r>     1.8679     0.1525     0.7638 </r>
       <r>     1.9325     0.3218     0.7846 </r>
       <r>     1.9971     0.8933     0.8423 </r>
       <r>     2.0616     1.3734     0.9310 </r>
       <r>     2.1262     0.6101     0.9704 </r>
       <r>     2.1908     0.7434     1.0184 </r>
       <r>     2.2554     0.8956     1.0762 </r>
       <r>     2.3199     0.2950     1.0952 </r>
       <r>     2.3845     0.7783     1.1455 </r>
       <r>     2.4491     0.3952     1.1710 </r>
       <r>     2.5136     1.2197     1.2498 </r>
       <r>     2.5782     1.5103     1.3473 </r>
       <r>     2.6428     0.7255     1.3941 </r>
       <r>     2.7073     1.1308     1.4671 </r>
       <r>     2.7719     1.1215     1.5395 </r>
       <r>     2.8365     1.0200     1.6054 </r>
       <r>     2.9010     0.7469     1.6536 </r>
       <r>     2.9656     1.0131     1.7190 </r>
       <r>     3.0302     0.9019     1.7773 </r>
       <r>     3.0947     1.2272     1.8565 </r>
       <r>     3.1593     1.2545     1.9375 </r>
       <r>     3.2239     0.9290     1.9975 </r>
       <r>     3.2884     0.4105     2.0240 </r>
       <r>     3.3530     0.3433     2.0462 </r>
       <r>     3.4176     0.5613     2.0824 </r>
       <r>     3.4821     0.3465     2.1048 </r>
       <r>     3.5467     0.2777     2.1227 </r>
       <r>     3.6113     0.2603     2.1395 </r>
       <r>     3.6758     0.2490     2.1556 </r>
       <r>     3.7404     0.9427     2.2165 </r>
       <r>     3.8050     0.5826     2.2541 </r>
       <r>     3.8695     0.1477     2.2636 </r>
       <r>     3.9341     0.2164     2.2776 </r>
       <r>     3.9987     0.3504     2.3002 </r>
       <r>     4.0632     0.0386     2.3027 </r>
       <r>     4.1278     1.2640     2.3843 </r>
       <r>     4.1924     1.5819     2.4865 </r>
       <r>     4.2570     2.6795     2.6595 </r>
       <r>     4.3215     2.5187     2.8221 </r>
       <r>     4.3861     2.2200     2.9654 </r>
       <r>     4.4507     1.5864     3.0679 </r>
       <r>     4.5152     1.4397     3.1608 </r>
       <r>     4.5798     2.3623     3.3133 </r>
       <r>     4.6444     1.8381     3.4320 </r>
       <r>     4.7089     0.9278     3.4919 </r>
       <r>     4.7735     1.0296     3.5584 </r>
       <r>     4.8381     1.1040     3.6297 </r>
       <r>     4.9026     1.7364     3.7418 </r>
       <r>     4.9672     1.5592     3.8425 </r>
       <r>     5.0318     1.4630     3.9370 </r>
       <r>     5.0963     0.5104     3.9699 </r>
       <r>     5.1609     1.3019     4.0540 </r>
       <r>     5.2255     1.6830     4.1626 </r>
       <r>     5.2900     2.6704     4.3351 </r>
       <r>     5.3546     1.6239     4.4399 </r>
       <r>     5.4192     2.4176     4.5960 </r>
       <r>     5.4837     1.5993     4.6993 </r>
       <r>     5.5483     1.6226     4.8040 </r>
       <r>     5.6129     1.1878     4.8807 </r>
       <r>     5.6774     0.8536     4.9358 </r>
       <r>     5.7420     1.5089     5.0333 </r>
       <r>     5.8066     1.4061     5.1241 </r>
       <r>     5.8711     1.6496     5.2306 </r>
       <r>     5.9357     0.6430     5.2721 </r>
       <r>     6.0003     0.9509     5.3335 </r>
       <r>     6.0648     1.1078     5.4050 </r>
       <r>     6.1294     0.8104     5.4573 </r>
       <r>     6.1940     0.6573     5.4998 </r>
       <r>     6.2586     0.9858     5.5634 </r>
       <r>     6.3231     0.6286     5.6040 </r>
       <r>     6.3877     1.2094     5.6821 </r>
       <r>     6.4523     0.3625     5.7055 </r>
       <r>     6.5168     0.1723     5.7166 </r>
       <r>     6.5814     0.0517     5.7200 </r>
       <r>     6.6460     0.5238     5.7538 </r>
       <r>     6.7105     0.6196     5.7938 </r>
       <r>     6.7751     0.3097     5.8138 </r>
       <r>     6.8397     0.3183     5.8343 </r>
       <r>     6.9042     0.0853     5.8399 </r>
       <r>     6.9688     0.1440     5.8491 </r>
       <r>     7.0334     0.2427     5.8648 </r>
       <r>     7.0979     0.2625     5.8818 </r>
       <r>     7.1625     0.1730     5.8929 </r>
       <r>     7.2271     0.1023     5.8995 </r>
       <r>     7.2916     0.3996     5.9253 </r>
       <r>     7.3562     0.3316     5.9468 </r>
       <r>     7.4208     0.6235     5.9870 </r>
       <r>     7.4853     0.5820     6.0246 </r>
       <r>     7.5499     0.9857     6.0882 </r>
       <r>     7.6145     0.7831     6.1388 </r>
       <r>     7.6790     0.3112     6.1589 </r>
       <r>     7.7436     0.1073     6.1658 </r>
       <r>     7.8082     0.5269     6.1998 </r>
       <r>     7.8727     0.4713     6.2303 </r>
       <r>     7.9373     1.0173     6.2960 </r>
       <r>     8.0019     0.9081     6.3546 </r>
       <r>     8.0664     1.0731     6.4239 </r>
       <r>     8.1310     0.8293     6.4774 </r>
       <r>     8.1956     0.4536     6.5067 </r>
       <r>     8.2602     0.3059     6.5265 </r>
       <r>     8.3247     0.2831     6.5447 </r>
       <r>     8.3893     0.1990     6.5576 </r>
       <r>     8.4539     1.1761     6.6335 </r>
       <r>     8.5184     1.8877     6.7554 </r>
       <r>     8.5830     0.8636     6.8112 </r>
       <r>     8.6476     0.3820     6.8358 </r>
       <r>     8.7121     0.2179     6.8499 </r>
       <r>     8.7767     0.2876     6.8685 </r>
       <r>     8.8413     0.9512     6.9299 </r>
       <r>     8.9058     1.2028     7.0076 </r>
       <r>     8.9704     0.9696     7.0702 </r>
       <r>     9.0350     1.6387     7.1760 </r>
       <r>     9.0995     1.7587     7.2895 </r>
       <r>     9.1641     1.5079     7.3869 </r>
       <r>     9.2287     1.7334     7.4988 </r>
       <r>     9.2932     1.0394     7.5659 </r>
       <r>     9.3578     0.7159     7.6122 </r>
       <r>     9.4224     0.5080     7.6450 </r>
       <r>     9.4869     0.8834     7.7020 </r>
       <r>     9.5515     0.5533     7.7377 </r>
       <r>     9.6161     1.7575     7.8512 </r>
       <r>     9.6806     1.8681     7.9718 </r>
       <r>     9.7452     0.4649     8.0018 </r>
       <r>     9.8098     0.7640     8.0512 </r>
       <r>     9.8743     0.9026     8.1094 </r>
       <r>     9.9389     0.8678     8.1655 </r>
       <r>    10.0035     1.0366     8.2324 </r>
       <r>    10.0680     1.0522     8.3003 </r>
       <r>    10.1326     1.5028     8.3974 </r>
       <r>    10.1972     1.1167     8.4695 </r>
       <r>    10.2618     1.3365     8.5558 </r>
       <r>    10.3263     1.6654     8.6633 </r>
       <r>    10.3909     2.3434     8.8146 </r>
       <r>    10.4555     1.4461     8.9080 </r>
       <r>    10.5200     3.7799     9.1521 </r>
       <r>    10.5846     4.1060     9.4172 </r>
       <r>    10.6492     3.0226     9.6123 </r>
       <r>    10.7137     3.4352     9.8341 </r>
       <r>    10.7783     1.7644     9.9481 </r>
       <r>    10.8429     1.3810    10.0372 </r>
       <r>    10.9074     1.1232    10.1098 </r>
       <r>    10.9720     0.5269    10.1438 </r>
       <r>    11.0366     0.5924    10.1820 </r>
       <r>    11.1011    -0.0027    10.1818 </r>
       <r>    11.1657    -0.0155    10.1808 </r>
       <r>    11.2303     0.1293    10.1892 </r>
       <r>    11.2948     0.6820    10.2332 </r>
       <r>    11.3594     0.8347    10.2871 </r>
       <r>    11.4240     0.1873    10.2992 </r>
       <r>    11.4885     0.1600    10.3095 </r>
       <r>    11.5531     0.2921    10.3284 </r>
       <r>    11.6177     0.7826    10.3789 </r>
       <r>    11.6822     0.8168    10.4317 </r>
       <r>    11.7468     1.5393    10.5311 </r>
       <r>    11.8114     0.6607    10.5737 </r>
       <r>    11.8759     1.7528    10.6869 </r>
       <r>    11.9405     0.9367    10.7474 </r>
       <r>    12.0051     0.0423    10.7501 </r>
       <r>    12.0696     0.2516    10.7664 </r>
       <r>    12.1342     0.1214    10.7742 </r>
       <r>    12.1988     0.2949    10.7932 </r>
       <r>    12.2634     0.3399    10.8152 </r>
       <r>    12.3279     0.3355    10.8369 </r>
       <r>    12.3925     0.2681    10.8542 </r>
       <r>    12.4571     0.0982    10.8605 </r>
       <r>    12.5216     0.1207    10.8683 </r>
       <r>    12.5862     0.0614    10.8723 </r>
       <r>    12.6508     0.0120    10.8730 </r>
       <r>    12.7153     0.1590    10.8833 </r>
       <r>    12.7799     0.0067    10.8837 </r>
       <r>    12.8445     0.0187    10.8849 </r>
       <r>    12.9090     0.1619    10.8954 </r>
       <r>    12.9736     0.1418    10.9046 </r>
       <r>    13.0382     0.6454    10.9462 </r>
       <r>    13.1027     1.7365    11.0583 </r>
       <r>    13.1673     0.7001    11.1036 </r>
       <r>    13.2319     0.9955    11.1678 </r>
       <r>    13.2964     0.4773    11.1986 </r>
       <r>    13.3610     0.5889    11.2367 </r>
       <r>    13.4256     0.9501    11.2980 </r>
       <r>    13.4901     0.3953    11.3235 </r>
       <r>    13.5547     0.0186    11.3247 </r>
       <r>    13.6193     0.5266    11.3587 </r>
       <r>    13.6838     0.5679    11.3954 </r>
       <r>    13.7484     0.0672    11.3997 </r>
       <r>    13.8130     0.0067    11.4002 </r>
       <r>    13.8775     0.2733    11.4178 </r>
       <r>    13.9421     0.4499    11.4469 </r>
       <r>    14.0067     0.0495    11.4501 </r>
       <r>    14.0712     0.3115    11.4702 </r>
       <r>    14.1358     0.0477    11.4733 </r>
       <r>    14.2004     0.2303    11.4881 </r>
       <r>    14.2650     0.4990    11.5203 </r>
       <r>    14.3295     0.3177    11.5409 </r>
       <r>    14.3941     0.3260    11.5619 </r>
       <r>    14.4587     0.3836    11.5867 </r>
       <r>    14.5232     0.5099    11.6196 </r>
       <r>    14.5878     0.5418    11.6546 </r>
       <r>    14.6524     0.2924    11.6735 </r>
       <r>    14.7169     0.3970    11.6991 </r>
       <r>    14.7815     0.3766    11.7234 </r>
       <r>    14.8461     0.8801    11.7802 </r>
       <r>    14.9106     0.7472    11.8285 </r>
       <r>    14.9752     0.0462    11.8315 </r>
       <r>    15.0398     0.1744    11.8427 </r>
       <r>    15.1043     0.7941    11.8940 </r>
       <r>    15.1689     0.8663    11.9499 </r>
       <r>    15.2335     0.3748    11.9741 </r>
       <r>    15.2980    -0.0228    11.9727 </r>
       <r>    15.3626    -0.0027    11.9725 </r>
       <r>    15.4272     0.1404    11.9816 </r>
       <r>    15.4917     0.1368    11.9904 </r>
       <r>    15.5563     0.1549    12.0004 </r>
       <r>    15.6209    -0.0057    12.0000 </r>
       <r>    15.6854    -0.0005    12.0000 </r>
       <r>    15.7500     0.0000    12.0000 </r>
       <r>    15.8146     0.0000    12.0000 </r>
       <r>    15.8791     0.0000    12.0000 </r>
       <r>    15.9437     0.0000    12.0000 </r>
       <r>    16.0083     0.0000    12.0000 </r>
       <r>    16.0728     0.0000    12.0000 </r>
       <r>    16.1374     0.0000    12.0000 </r>
       <r>    16.2020     0.0000    12.0000 </r>
       <r>    16.2666     0.0000    12.0000 </r>
       <r>    16.3311     0.0000    12.0000 </r>
       <r>    16.3957     0.0000    12.0000 </r>
      </set>
     </set>
    </array>
   </total>
  </dos>
 </calculation>
 <structure name="finalpos" >
  <crystal>
   <varray name="basis" >
    <v>       2.86654409       0.00000000       0.00000000 </v>
    <v>      -0.95551470       2.70260368       0.00000000 </v>
    <v>      -0.95551470      -1.35130184       2.34052345 </v>
   </varray>
   <i name="volume">     18.13234550 </i>
   <varray name="rec_basis" >
    <v>       0.34885213       0.12333785       0.21362743 </v>
    <v>       0.00000000       0.37001356       0.21362743 </v>
    <v>       0.00000000       0.00000000       0.42725485 </v>
   </varray>
  </crystal>
  <varray name="positions" >
   <v>       0.00000000       0.00000000       0.00000000 </v>
  </varray>
 </structure>
</modeling>
