<?xml version="1.0" encoding="ISO-8859-1"?>
<modeling>
 <generator>
  <i name="program" type="string">vasp </i>
  <i name="version" type="string">5.2.12  </i>
  <i name="subversion" type="string">11Nov11 complex                                                      parallel </i>
  <i name="platform" type="string">LinuxIFC </i>
  <i name="date" type="string">2012 10 17 </i>
  <i name="time" type="string">10:14:54 </i>
 </generator>
 <incar>
  <i type="int" name="ISTART">     0</i>
  <i type="string" name="PREC">accurate</i>
  <i type="int" name="ISPIN">     2</i>
  <i name="ENCUT">    350.00000000</i>
  <i type="int" name="NBANDS">     6</i>
  <v name="MAGMOM">      6.00000000</v>
  <i type="logical" name="LREAL"> F  </i>
  <i type="int" name="ISMEAR">     1</i>
  <i name="SIGMA">      0.05000000</i>
  <i type="logical" name="LORBIT"> F  </i>
 </incar>
 <kpoints>
  <generation param="Monkhorst-Pack">
   <v type="int" name="divisions">      16       16       16 </v>
   <v name="usershift">      0.00000000       0.00000000       0.00000000 </v>
   <v name="genvec1">      0.06250000       0.00000000       0.00000000 </v>
   <v name="genvec2">      0.00000000       0.06250000       0.00000000 </v>
   <v name="genvec3">      0.00000000       0.00000000       0.06250000 </v>
   <v name="shift">      0.50000000       0.50000000       0.50000000 </v>
  </generation>
  <varray name="kpointlist" >
   <v>       0.03125000       0.03125000       0.03125000 </v>
   <v>       0.09375000       0.03125000       0.03125000 </v>
   <v>       0.15625000       0.03125000       0.03125000 </v>
   <v>       0.21875000       0.03125000       0.03125000 </v>
   <v>       0.28125000       0.03125000       0.03125000 </v>
   <v>       0.34375000       0.03125000       0.03125000 </v>
   <v>       0.40625000       0.03125000       0.03125000 </v>
   <v>       0.46875000       0.03125000       0.03125000 </v>
   <v>      -0.03125000       0.03125000       0.03125000 </v>
   <v>       0.09375000       0.09375000       0.03125000 </v>
   <v>       0.15625000       0.09375000       0.03125000 </v>
   <v>       0.21875000       0.09375000       0.03125000 </v>
   <v>       0.28125000       0.09375000       0.03125000 </v>
   <v>       0.34375000       0.09375000       0.03125000 </v>
   <v>       0.40625000       0.09375000       0.03125000 </v>
   <v>      -0.09375000       0.09375000       0.03125000 </v>
   <v>       0.15625000       0.15625000       0.03125000 </v>
   <v>       0.21875000       0.15625000       0.03125000 </v>
   <v>       0.28125000       0.15625000       0.03125000 </v>
   <v>       0.34375000       0.15625000       0.03125000 </v>
   <v>       0.40625000       0.15625000       0.03125000 </v>
   <v>      -0.15625000       0.15625000       0.03125000 </v>
   <v>      -0.09375000       0.15625000       0.03125000 </v>
   <v>       0.21875000       0.21875000       0.03125000 </v>
   <v>       0.28125000       0.21875000       0.03125000 </v>
   <v>       0.34375000       0.21875000       0.03125000 </v>
   <v>      -0.21875000       0.21875000       0.03125000 </v>
   <v>      -0.15625000       0.21875000       0.03125000 </v>
   <v>       0.28125000       0.28125000       0.03125000 </v>
   <v>       0.34375000       0.28125000       0.03125000 </v>
   <v>      -0.28125000       0.28125000       0.03125000 </v>
   <v>      -0.21875000       0.28125000       0.03125000 </v>
   <v>      -0.15625000       0.28125000       0.03125000 </v>
   <v>      -0.34375000       0.34375000       0.03125000 </v>
   <v>      -0.28125000       0.34375000       0.03125000 </v>
   <v>      -0.21875000       0.34375000       0.03125000 </v>
   <v>      -0.40625000       0.40625000       0.03125000 </v>
   <v>      -0.34375000       0.40625000       0.03125000 </v>
   <v>      -0.28125000       0.40625000       0.03125000 </v>
   <v>      -0.21875000       0.40625000       0.03125000 </v>
   <v>      -0.46875000       0.46875000       0.03125000 </v>
   <v>      -0.40625000       0.46875000       0.03125000 </v>
   <v>      -0.34375000       0.46875000       0.03125000 </v>
   <v>      -0.28125000       0.46875000       0.03125000 </v>
   <v>      -0.46875000      -0.46875000       0.03125000 </v>
   <v>      -0.40625000      -0.46875000       0.03125000 </v>
   <v>      -0.34375000      -0.46875000       0.03125000 </v>
   <v>      -0.28125000      -0.46875000       0.03125000 </v>
   <v>      -0.40625000      -0.40625000       0.03125000 </v>
   <v>      -0.34375000      -0.40625000       0.03125000 </v>
   <v>      -0.34375000      -0.34375000       0.03125000 </v>
   <v>       0.09375000       0.09375000       0.09375000 </v>
   <v>       0.15625000       0.09375000       0.09375000 </v>
   <v>       0.21875000       0.09375000       0.09375000 </v>
   <v>       0.28125000       0.09375000       0.09375000 </v>
   <v>       0.34375000       0.09375000       0.09375000 </v>
   <v>       0.40625000       0.09375000       0.09375000 </v>
   <v>      -0.09375000       0.09375000       0.09375000 </v>
   <v>       0.15625000       0.15625000       0.09375000 </v>
   <v>       0.21875000       0.15625000       0.09375000 </v>
   <v>       0.28125000       0.15625000       0.09375000 </v>
   <v>       0.34375000       0.15625000       0.09375000 </v>
   <v>      -0.15625000       0.15625000       0.09375000 </v>
   <v>       0.21875000       0.21875000       0.09375000 </v>
   <v>       0.28125000       0.21875000       0.09375000 </v>
   <v>       0.34375000       0.21875000       0.09375000 </v>
   <v>      -0.21875000       0.21875000       0.09375000 </v>
   <v>      -0.15625000       0.21875000       0.09375000 </v>
   <v>       0.28125000       0.28125000       0.09375000 </v>
   <v>      -0.28125000       0.28125000       0.09375000 </v>
   <v>      -0.21875000       0.28125000       0.09375000 </v>
   <v>      -0.34375000       0.34375000       0.09375000 </v>
   <v>      -0.28125000       0.34375000       0.09375000 </v>
   <v>      -0.21875000       0.34375000       0.09375000 </v>
   <v>      -0.40625000       0.40625000       0.09375000 </v>
   <v>      -0.34375000       0.40625000       0.09375000 </v>
   <v>      -0.28125000       0.40625000       0.09375000 </v>
   <v>      -0.46875000       0.46875000       0.09375000 </v>
   <v>      -0.40625000       0.46875000       0.09375000 </v>
   <v>      -0.34375000       0.46875000       0.09375000 </v>
   <v>      -0.28125000       0.46875000       0.09375000 </v>
   <v>      -0.46875000      -0.46875000       0.09375000 </v>
   <v>      -0.40625000      -0.46875000       0.09375000 </v>
   <v>      -0.34375000      -0.46875000       0.09375000 </v>
   <v>      -0.40625000      -0.40625000       0.09375000 </v>
   <v>      -0.34375000      -0.40625000       0.09375000 </v>
   <v>       0.15625000       0.15625000       0.15625000 </v>
   <v>       0.21875000       0.15625000       0.15625000 </v>
   <v>       0.28125000       0.15625000       0.15625000 </v>
   <v>       0.34375000       0.15625000       0.15625000 </v>
   <v>      -0.15625000       0.15625000       0.15625000 </v>
   <v>       0.21875000       0.21875000       0.15625000 </v>
   <v>       0.28125000       0.21875000       0.15625000 </v>
   <v>      -0.21875000       0.21875000       0.15625000 </v>
   <v>       0.28125000       0.28125000       0.15625000 </v>
   <v>      -0.28125000       0.28125000       0.15625000 </v>
   <v>      -0.21875000       0.28125000       0.15625000 </v>
   <v>      -0.34375000       0.34375000       0.15625000 </v>
   <v>      -0.28125000       0.34375000       0.15625000 </v>
   <v>      -0.40625000       0.40625000       0.15625000 </v>
   <v>      -0.34375000       0.40625000       0.15625000 </v>
   <v>      -0.28125000       0.40625000       0.15625000 </v>
   <v>      -0.46875000       0.46875000       0.15625000 </v>
   <v>      -0.40625000       0.46875000       0.15625000 </v>
   <v>      -0.34375000       0.46875000       0.15625000 </v>
   <v>      -0.46875000      -0.46875000       0.15625000 </v>
   <v>      -0.40625000      -0.46875000       0.15625000 </v>
   <v>      -0.34375000      -0.46875000       0.15625000 </v>
   <v>      -0.40625000      -0.40625000       0.15625000 </v>
   <v>       0.21875000       0.21875000       0.21875000 </v>
   <v>       0.28125000       0.21875000       0.21875000 </v>
   <v>      -0.21875000       0.21875000       0.21875000 </v>
   <v>      -0.28125000       0.28125000       0.21875000 </v>
   <v>      -0.34375000       0.34375000       0.21875000 </v>
   <v>      -0.28125000       0.34375000       0.21875000 </v>
   <v>      -0.40625000       0.40625000       0.21875000 </v>
   <v>      -0.34375000       0.40625000       0.21875000 </v>
   <v>      -0.46875000       0.46875000       0.21875000 </v>
   <v>      -0.40625000       0.46875000       0.21875000 </v>
   <v>      -0.34375000       0.46875000       0.21875000 </v>
   <v>      -0.46875000      -0.46875000       0.21875000 </v>
   <v>      -0.40625000      -0.46875000       0.21875000 </v>
   <v>      -0.40625000      -0.40625000       0.21875000 </v>
   <v>      -0.28125000       0.28125000       0.28125000 </v>
   <v>      -0.34375000       0.34375000       0.28125000 </v>
   <v>      -0.40625000       0.40625000       0.28125000 </v>
   <v>      -0.34375000       0.40625000       0.28125000 </v>
   <v>      -0.46875000       0.46875000       0.28125000 </v>
   <v>      -0.40625000       0.46875000       0.28125000 </v>
   <v>      -0.46875000      -0.46875000       0.28125000 </v>
   <v>      -0.40625000      -0.46875000       0.28125000 </v>
   <v>      -0.34375000       0.34375000       0.34375000 </v>
   <v>      -0.40625000       0.40625000       0.34375000 </v>
   <v>      -0.46875000       0.46875000       0.34375000 </v>
   <v>      -0.40625000       0.46875000       0.34375000 </v>
   <v>      -0.46875000      -0.46875000       0.34375000 </v>
   <v>      -0.40625000       0.40625000       0.40625000 </v>
   <v>      -0.46875000       0.46875000       0.40625000 </v>
   <v>      -0.46875000      -0.46875000       0.40625000 </v>
   <v>      -0.46875000       0.46875000       0.46875000 </v>
  </varray>
  <varray name="weights" >
   <v>       0.00195312 </v>
   <v>       0.00585938 </v>
   <v>       0.00585938 </v>
   <v>       0.00585938 </v>
   <v>       0.00585938 </v>
   <v>       0.00585938 </v>
   <v>       0.00585938 </v>
   <v>       0.00292969 </v>
   <v>       0.00146484 </v>
   <v>       0.00585938 </v>
   <v>       0.01171875 </v>
   <v>       0.01171875 </v>
   <v>       0.01171875 </v>
   <v>       0.01171875 </v>
   <v>       0.01171875 </v>
   <v>       0.00585938 </v>
   <v>       0.00585938 </v>
   <v>       0.01171875 </v>
   <v>       0.01171875 </v>
   <v>       0.01171875 </v>
   <v>       0.00585938 </v>
   <v>       0.00585938 </v>
   <v>       0.00585938 </v>
   <v>       0.00585938 </v>
   <v>       0.01171875 </v>
   <v>       0.01171875 </v>
   <v>       0.00585938 </v>
   <v>       0.01171875 </v>
   <v>       0.00585938 </v>
   <v>       0.00585938 </v>
   <v>       0.00585938 </v>
   <v>       0.01171875 </v>
   <v>       0.00585938 </v>
   <v>       0.00585938 </v>
   <v>       0.01171875 </v>
   <v>       0.01171875 </v>
   <v>       0.00585938 </v>
   <v>       0.01171875 </v>
   <v>       0.01171875 </v>
   <v>       0.00585938 </v>
   <v>       0.00585938 </v>
   <v>       0.01171875 </v>
   <v>       0.01171875 </v>
   <v>       0.01171875 </v>
   <v>       0.00585938 </v>
   <v>       0.01171875 </v>
   <v>       0.01171875 </v>
   <v>       0.00585938 </v>
   <v>       0.00585938 </v>
   <v>       0.01171875 </v>
   <v>       0.00195312 </v>
   <v>       0.00195312 </v>
   <v>       0.00585938 </v>
   <v>       0.00585938 </v>
   <v>       0.00585938 </v>
   <v>       0.00585938 </v>
   <v>       0.00292969 </v>
   <v>       0.00146484 </v>
   <v>       0.00585938 </v>
   <v>       0.01171875 </v>
   <v>       0.01171875 </v>
   <v>       0.01171875 </v>
   <v>       0.00585938 </v>
   <v>       0.00585938 </v>
   <v>       0.01171875 </v>
   <v>       0.00585938 </v>
   <v>       0.00585938 </v>
   <v>       0.00585938 </v>
   <v>       0.00585938 </v>
   <v>       0.00585938 </v>
   <v>       0.01171875 </v>
   <v>       0.00585938 </v>
   <v>       0.01171875 </v>
   <v>       0.00585938 </v>
   <v>       0.00585938 </v>
   <v>       0.01171875 </v>
   <v>       0.01171875 </v>
   <v>       0.00585938 </v>
   <v>       0.01171875 </v>
   <v>       0.01171875 </v>
   <v>       0.00585938 </v>
   <v>       0.00585938 </v>
   <v>       0.01171875 </v>
   <v>       0.01171875 </v>
   <v>       0.00585938 </v>
   <v>       0.00585938 </v>
   <v>       0.00195312 </v>
   <v>       0.00585938 </v>
   <v>       0.00585938 </v>
   <v>       0.00292969 </v>
   <v>       0.00146484 </v>
   <v>       0.00585938 </v>
   <v>       0.01171875 </v>
   <v>       0.00585938 </v>
   <v>       0.00195312 </v>
   <v>       0.00585938 </v>
   <v>       0.00585938 </v>
   <v>       0.00585938 </v>
   <v>       0.01171875 </v>
   <v>       0.00585938 </v>
   <v>       0.01171875 </v>
   <v>       0.00585938 </v>
   <v>       0.00585938 </v>
   <v>       0.01171875 </v>
   <v>       0.01171875 </v>
   <v>       0.00585938 </v>
   <v>       0.01171875 </v>
   <v>       0.00585938 </v>
   <v>       0.00585938 </v>
   <v>       0.00195312 </v>
   <v>       0.00292969 </v>
   <v>       0.00146484 </v>
   <v>       0.00585938 </v>
   <v>       0.00585938 </v>
   <v>       0.00585938 </v>
   <v>       0.00585938 </v>
   <v>       0.01171875 </v>
   <v>       0.00585938 </v>
   <v>       0.01171875 </v>
   <v>       0.00585938 </v>
   <v>       0.00585938 </v>
   <v>       0.01171875 </v>
   <v>       0.00195312 </v>
   <v>       0.00146484 </v>
   <v>       0.00585938 </v>
   <v>       0.00585938 </v>
   <v>       0.00585938 </v>
   <v>       0.00585938 </v>
   <v>       0.01171875 </v>
   <v>       0.00585938 </v>
   <v>       0.00585938 </v>
   <v>       0.00146484 </v>
   <v>       0.00585938 </v>
   <v>       0.00585938 </v>
   <v>       0.00585938 </v>
   <v>       0.00585938 </v>
   <v>       0.00146484 </v>
   <v>       0.00585938 </v>
   <v>       0.00195312 </v>
   <v>       0.00146484 </v>
  </varray>
 </kpoints>
 <parameters>
  <separator name="general" >
   <i type="string" name="SYSTEM">unknown system</i>
   <i type="logical" name="LCOMPAT"> F  </i>
  </separator>
  <separator name="electronic" >
   <i type="string" name="PREC">accura</i>
   <i name="ENMAX">    350.00000000</i>
   <i name="ENAUG">    332.07500000</i>
   <i name="EDIFF">      0.00010000</i>
   <i type="int" name="IALGO">    38</i>
   <i type="int" name="IWAVPR">    10</i>
   <i type="int" name="NBANDS">     6</i>
   <i name="NELECT">      5.00000000</i>
   <i type="int" name="TURBO">     0</i>
   <i type="int" name="IRESTART">     0</i>
   <i type="int" name="NREBOOT">     0</i>
   <i type="int" name="NMIN">     0</i>
   <i name="EREF">      0.00000000</i>
   <separator name="electronic smearing" >
    <i type="int" name="ISMEAR">     1</i>
    <i name="SIGMA">      0.05000000</i>
    <i name="KSPACING">      0.50000000</i>
    <i type="logical" name="KGAMMA"> T  </i>
   </separator>
   <separator name="electronic projectors" >
    <i type="logical" name="LREAL"> F  </i>
    <v name="ROPT">      0.00000000</v>
    <i type="int" name="LMAXPAW">  -100</i>
    <i type="int" name="LMAXMIX">     2</i>
    <i type="logical" name="NLSPLINE"> F  </i>
   </separator>
   <separator name="electronic startup" >
    <i type="int" name="ISTART">     0</i>
    <i type="int" name="ICHARG">     2</i>
    <i type="int" name="INIWAV">     1</i>
   </separator>
   <separator name="electronic spin" >
    <i type="int" name="ISPIN">     2</i>
    <i type="logical" name="LNONCOLLINEAR"> F  </i>
    <v name="MAGMOM">      6.00000000</v>
    <i name="NUPDOWN">     -1.00000000</i>
    <i type="logical" name="LSORBIT"> F  </i>
    <v name="SAXIS">      0.00000000      0.00000000      1.00000000</v>
    <i type="logical" name="LSPIRAL"> F  </i>
    <v name="QSPIRAL">      0.00000000      0.00000000      0.00000000</v>
    <i type="logical" name="LZEROZ"> F  </i>
   </separator>
   <separator name="electronic exchange-correlation" >
    <i type="logical" name="LASPH"> F  </i>
    <i type="logical" name="LMETAGGA"> F  </i>
   </separator>
   <separator name="electronic convergence" >
    <i type="int" name="NELM">    60</i>
    <i type="int" name="NELMDL">    -5</i>
    <i type="int" name="NELMIN">     2</i>
    <i name="ENINI">    350.00000000</i>
    <separator name="electronic convergence detail" >
     <i type="logical" name="LDIAG"> T  </i>
     <i type="logical" name="LSUBROT"> T  </i>
     <i name="WEIMIN">      0.00000000</i>
     <i name="EBREAK">      0.00000417</i>
     <i name="DEPER">      0.30000000</i>
     <i type="int" name="NRMM">     4</i>
     <i name="TIME">      0.40000000</i>
    </separator>
   </separator>
   <separator name="electronic mixer" >
    <i name="AMIX">      0.40000000</i>
    <i name="BMIX">      1.00000000</i>
    <i name="AMIN">      0.10000000</i>
    <i name="AMIX_MAG">      1.60000000</i>
    <i name="BMIX_MAG">      1.00000000</i>
    <separator name="electronic mixer details" >
     <i type="int" name="IMIX">     4</i>
     <i type="int" name="MAXMIX">   -45</i>
     <i name="WC">    100.00000000</i>
     <i type="int" name="INIMIX">     1</i>
     <i type="int" name="MIXPRE">     1</i>
     <i type="int" name="MREMOVE">     5</i>
    </separator>
   </separator>
   <separator name="electronic dipolcorrection" >
    <i type="logical" name="LDIPOL"> F  </i>
    <i type="logical" name="LMONO"> F  </i>
    <i type="int" name="IDIPOL">     0</i>
    <i name="EPSILON">      1.00000000</i>
    <v name="DIPOL">   -100.00000000   -100.00000000   -100.00000000</v>
    <i name="EFIELD">      0.00000000</i>
   </separator>
  </separator>
  <separator name="grids" >
   <i type="int" name="NGX">    18</i>
   <i type="int" name="NGY">    18</i>
   <i type="int" name="NGZ">    18</i>
   <i type="int" name="NGXF">    36</i>
   <i type="int" name="NGYF">    36</i>
   <i type="int" name="NGZF">    36</i>
   <i type="logical" name="ADDGRID"> F  </i>
  </separator>
  <separator name="ionic" >
   <i type="int" name="NSW">     0</i>
   <i type="int" name="IBRION">    -1</i>
   <i type="int" name="ISIF">     2</i>
   <i name="PSTRESS">      0.00000000</i>
   <i name="EDIFFG">      0.00100000</i>
   <i type="int" name="NFREE">     0</i>
   <i name="POTIM">      0.50000000</i>
   <i name="SMASS">     -3.00000000</i>
   <i name="SCALEE">      1.00000000</i>
  </separator>
  <separator name="ionic md" >
   <i name="TEBEG">      0.00010000</i>
   <i name="TEEND">      0.00010000</i>
   <i type="int" name="NBLOCK">     1</i>
   <i type="int" name="KBLOCK">     1</i>
   <i type="int" name="NPACO">   256</i>
   <i name="APACO">     16.00000000</i>
  </separator>
  <separator name="symmetry" >
   <i type="int" name="ISYM">     2</i>
   <i name="SYMPREC">      0.00001000</i>
  </separator>
  <separator name="dos" >
   <i type="logical" name="LORBIT"> F  </i>
   <v name="RWIGS">     -1.00000000</v>
   <i type="int" name="NEDOS">   301</i>
   <i name="EMIN">     10.00000000</i>
   <i name="EMAX">    -10.00000000</i>
   <i name="EFERMI">      0.00000000</i>
  </separator>
  <separator name="writing" >
   <i type="int" name="NWRITE">     2</i>
   <i type="logical" name="LWAVE"> T  </i>
   <i type="logical" name="LCHARG"> T  </i>
   <i type="logical" name="LPARD"> F  </i>
   <i type="logical" name="LVTOT"> F  </i>
   <i type="logical" name="LVHAR"> F  </i>
   <i type="logical" name="LELF"> F  </i>
   <i type="logical" name="LOPTICS"> F  </i>
   <v name="STM">      0.00000000      0.00000000      0.00000000      0.00000000      0.00000000      0.00000000      0.00000000</v>
  </separator>
  <separator name="performance" >
   <i type="int" name="NPAR">     1</i>
   <i type="int" name="NSIM">     4</i>
   <i type="int" name="NBLK">    -1</i>
   <i type="logical" name="LPLANE"> T  </i>
   <i type="logical" name="LSCALAPACK"> F  </i>
   <i type="logical" name="LSCAAWARE"> F  </i>
   <i type="logical" name="LSCALU"> F  </i>
   <i type="logical" name="LASYNC"> F  </i>
   <i type="logical" name="LORBITALREAL"> F  </i>
  </separator>
  <separator name="miscellaneous" >
   <i type="int" name="IDIOT">     3</i>
   <i type="logical" name="LMUSIC"> F  </i>
   <v name="POMASS">    180.94800000</v>
   <v name="DARWINR">      0.00000000</v>
   <v name="DARWINV">      1.00000000</v>
   <i type="logical" name="LCORR"> T  </i>
  </separator>
  <i type="logical" name="GGA_COMPAT"> T  </i>
  <i type="logical" name="LBERRY"> F  </i>
  <i type="int" name="ICORELEVEL">     0</i>
  <i type="logical" name="LDAU"> F  </i>
  <i type="int" name="I_CONSTRAINED_M">     0</i>
  <separator name="electronic exchange-correlation" >
   <i type="string" name="GGA">--</i>
   <i type="int" name="VOSKOWN">     0</i>
   <i type="logical" name="LHFCALC"> F  </i>
   <i type="string" name="PRECFOCK"></i>
   <i type="logical" name="LHFONE"> F  </i>
   <i type="logical" name="LRHFCALC"> F  </i>
   <i type="logical" name="LTHOMAS"> F  </i>
   <i type="logical" name="LMODELHF"> F  </i>
   <i name="ENCUT4O">     -1.00000000</i>
   <i type="int" name="EXXOEP">     0</i>
   <i type="int" name="FOURORBIT">     0</i>
   <i name="AEXX">      0.00000000</i>
   <i name="HFALPHA">      0.00000000</i>
   <i name="ALDAX">      1.00000000</i>
   <i name="AGGAX">      1.00000000</i>
   <i name="ALDAC">      1.00000000</i>
   <i name="AGGAC">      1.00000000</i>
   <i type="int" name="NKREDX">     1</i>
   <i type="int" name="NKREDY">     1</i>
   <i type="int" name="NKREDZ">     1</i>
   <i type="logical" name="SHIFTRED"> F  </i>
   <i type="logical" name="ODDONLY"> F  </i>
   <i type="logical" name="EVENONLY"> F  </i>
   <i type="int" name="LMAXFOCK">     0</i>
   <i type="int" name="NMAXFOCKAE">     0</i>
   <i type="logical" name="LFOCKAEDFT"> F  </i>
   <i name="HFSCREEN">      0.00000000</i>
   <i name="HFSCREENC">      0.00000000</i>
  </separator>
  <separator name="vdW DFT" >
   <i type="logical" name="LUSE_VDW"> F  </i>
   <i name="Zab_VDW">     -0.84910000</i>
   <i name="PARAM1">      0.12340000</i>
   <i name="PARAM2">      1.00000000</i>
   <i name="PARAM3">      0.00000000</i>
  </separator>
  <separator name="model GW" >
   <i type="int" name="MODEL_GW">     0</i>
   <i name="MODEL_EPS0">     10.87940730</i>
   <i name="MODEL_ALPHA">      1.00000000</i>
  </separator>
  <separator name="linear response parameters" >
   <i type="logical" name="LEPSILON"> F  </i>
   <i type="logical" name="LRPA"> F  </i>
   <i type="logical" name="LNABLA"> F  </i>
   <i type="logical" name="LVEL"> F  </i>
   <i type="int" name="KINTER">     0</i>
   <i name="CSHIFT">      0.10000000</i>
   <i name="OMEGAMAX">     -1.00000000</i>
  </separator>
  <separator name="orbital magnetization" >
   <i type="logical" name="NUCIND"> F  </i>
   <v name="MAGPOS">      0.00000000      0.00000000      0.00000000</v>
   <i type="logical" name="LNICSALL"> T  </i>
   <i type="logical" name="ORBITALMAG"> F  </i>
   <i type="logical" name="LMAGBLOCH"> F  </i>
   <i type="logical" name="LCHIMAG"> F  </i>
   <i type="logical" name="LGAUGE"> T  </i>
   <i type="int" name="MAGATOM">     0</i>
   <v name="MAGDIPOL">      0.00000000      0.00000000      0.00000000</v>
   <v name="AVECCONST">      0.00000000      0.00000000      0.00000000</v>
  </separator>
  <separator name="response functions" >
   <i type="logical" name="LADDER"> F  </i>
   <i type="logical" name="LHARTREE"> T  </i>
   <i type="int" name="IBSE">     0</i>
   <i type="logical" name="LTCTE"> F  </i>
   <i type="logical" name="LTETE"> F  </i>
   <i type="logical" name="LFXCEPS"> F  </i>
   <i type="logical" name="L2ORDER"> F  </i>
   <i type="logical" name="LUSEW"> F  </i>
   <i name="ENCUTGW">     -2.00000000</i>
   <i name="ENCUTGWSOFT">     -2.00000000</i>
   <i name="ENCUTLF">     -1.00000000</i>
   <i type="int" name="LMAXMP2">    -1</i>
   <i name="SCISSOR">      0.00000000</i>
   <i type="int" name="NOMEGA">     0</i>
   <i type="int" name="NOMEGAR">     0</i>
   <i type="int" name="NBANDSGW">    -1</i>
   <i type="int" name="NBANDSO">    -1</i>
   <i type="int" name="NBANDSV">    -1</i>
   <i name="OPTEMAX">      0.00000000</i>
   <i type="int" name="NELM">     1</i>
   <i type="int" name="DIM">     3</i>
   <i type="int" name="ANTIRES">     0</i>
   <i name="OMEGAMAX">    -30.00000000</i>
   <i name="OMEGATL">   -200.00000000</i>
   <i type="int" name="OMEGAGRID">     0</i>
   <i name="CSHIFT">     -0.10000000</i>
   <i type="logical" name="SELFENERGY"> F  </i>
   <i type="logical" name="LSPECTRAL"> F  </i>
   <i type="logical" name="ODDONLYGW"> F  </i>
   <i type="logical" name="EVENONLYGW"> F  </i>
   <i type="int" name="NKREDLFX">     1</i>
   <i type="int" name="NKREDLFY">     1</i>
   <i type="int" name="NKREDLFZ">     1</i>
   <i type="int" name="MAXMEM">  1800</i>
   <i type="int" name="TELESCOPE">     0</i>
  </separator>
 </parameters>
 <atominfo>
  <atoms>       1 </atoms>
  <types>       1 </types>
  <array name="atoms" >
   <dimension dim="1">ion</dimension>
   <field type="string">element</field>
   <field type="int">atomtype</field>
   <set>
    <rc><c>Ta</c><c>   1</c></rc>
   </set>
  </array>
  <array name="atomtypes" >
   <dimension dim="1">type</dimension>
   <field type="int">atomspertype</field>
   <field type="string">element</field>
   <field>mass</field>
   <field>valence</field>
   <field type="string">pseudopotential</field>
   <set>
    <rc><c>   1</c><c>Ta</c><c>    180.94800000</c><c>      5.00000000</c><c>  PAW_PBE Ta 17Jan2003                  </c></rc>
   </set>
  </array>
 </atominfo>
 <structure name="initialpos" >
  <crystal>
   <varray name="basis" >
    <v>       2.86654409       0.00000000       0.00000000 </v>
    <v>      -0.95551470       2.70260368       0.00000000 </v>
    <v>      -0.95551470      -1.35130184       2.34052345 </v>
   </varray>
   <i name="volume">     18.13234550 </i>
   <varray name="rec_basis" >
    <v>       0.34885213       0.12333785       0.21362743 </v>
    <v>       0.00000000       0.37001356       0.21362743 </v>
    <v>       0.00000000       0.00000000       0.42725485 </v>
   </varray>
  </crystal>
  <varray name="positions" >
   <v>       0.00000000       0.00000000       0.00000000 </v>
  </varray>
 </structure>
 <calculation>
  <scstep>
   <time name="dav">    3.20    3.20</time>
   <time name="total">    3.39    3.40</time>
   <energy>
    <i name="alphaZ">     30.58334069 </i>
    <i name="ewald">   -197.90100875 </i>
    <i name="hartreedc">     -2.50452612 </i>
    <i name="XCdc">    -60.69825643 </i>
    <i name="pawpsdc">    143.51874798 </i>
    <i name="pawaedc">    -69.33493833 </i>
    <i name="eentropy">      0.00019755 </i>
    <i name="bandstr">     35.71162460 </i>
    <i name="atom">    130.64621481 </i>
    <i name="e_fr_energy">     10.02139599 </i>
    <i name="e_wo_entrp">     10.02119845 </i>
    <i name="e_0_energy">     10.02133014 </i>
   </energy>
  </scstep>
  <scstep>
   <time name="dav">    4.93    4.93</time>
   <time name="total">    4.94    4.94</time>
   <energy>
    <i name="e_fr_energy">     -1.20950576 </i>
    <i name="e_wo_entrp">     -1.20947383 </i>
    <i name="e_0_energy">     -1.20949512 </i>
   </energy>
  </scstep>
  <scstep>
   <time name="dav">    3.21    3.22</time>
   <time name="total">    3.22    3.34</time>
   <energy>
    <i name="e_fr_energy">     -1.30579936 </i>
    <i name="e_wo_entrp">     -1.30565097 </i>
    <i name="e_0_energy">     -1.30574989 </i>
   </energy>
  </scstep>
  <scstep>
   <time name="dav">    3.81    3.82</time>
   <time name="total">    3.82    3.85</time>
   <energy>
    <i name="e_fr_energy">     -1.30676918 </i>
    <i name="e_wo_entrp">     -1.30661971 </i>
    <i name="e_0_energy">     -1.30671936 </i>
   </energy>
  </scstep>
  <scstep>
   <time name="dav">    2.94    2.95</time>
   <time name="total">    3.26    3.27</time>
   <energy>
    <i name="e_fr_energy">     -1.30677493 </i>
    <i name="e_wo_entrp">     -1.30662545 </i>
    <i name="e_0_energy">     -1.30672511 </i>
   </energy>
  </scstep>
  <scstep>
   <time name="dav">    3.21    3.21</time>
   <time name="total">    3.66    3.68</time>
   <energy>
    <i name="e_fr_energy">    -11.69673972 </i>
    <i name="e_wo_entrp">    -11.69692802 </i>
    <i name="e_0_energy">    -11.69680249 </i>
   </energy>
  </scstep>
  <scstep>
   <time name="dav">    3.40    3.40</time>
   <time name="total">    3.85    3.87</time>
   <energy>
    <i name="e_fr_energy">    -11.76979620 </i>
    <i name="e_wo_entrp">    -11.76984111 </i>
    <i name="e_0_energy">    -11.76981117 </i>
   </energy>
  </scstep>
  <scstep>
   <time name="dav">    3.33    3.33</time>
   <time name="total">    3.78    3.80</time>
   <energy>
    <i name="e_fr_energy">    -11.64892799 </i>
    <i name="e_wo_entrp">    -11.64867438 </i>
    <i name="e_0_energy">    -11.64884345 </i>
   </energy>
  </scstep>
  <scstep>
   <time name="dav">    3.35    3.35</time>
   <time name="total">    3.80    3.81</time>
   <energy>
    <i name="e_fr_energy">    -11.83006423 </i>
    <i name="e_wo_entrp">    -11.83004632 </i>
    <i name="e_0_energy">    -11.83005826 </i>
   </energy>
  </scstep>
  <scstep>
   <time name="dav">    3.45    3.46</time>
   <time name="total">    3.90    3.92</time>
   <energy>
    <i name="e_fr_energy">    -11.85995328 </i>
    <i name="e_wo_entrp">    -11.86027485 </i>
    <i name="e_0_energy">    -11.86006047 </i>
   </energy>
  </scstep>
  <scstep>
   <time name="dav">    3.31    3.31</time>
   <time name="total">    3.75    3.77</time>
   <energy>
    <i name="e_fr_energy">    -11.86209095 </i>
    <i name="e_wo_entrp">    -11.86190338 </i>
    <i name="e_0_energy">    -11.86202843 </i>
   </energy>
  </scstep>
  <scstep>
   <time name="dav">    3.18    3.19</time>
   <time name="total">    3.63    3.65</time>
   <energy>
    <i name="e_fr_energy">    -11.86167014 </i>
    <i name="e_wo_entrp">    -11.86167633 </i>
    <i name="e_0_energy">    -11.86167220 </i>
   </energy>
  </scstep>
  <scstep>
   <time name="dav">    2.26    2.26</time>
   <time name="total">    2.71    2.72</time>
   <energy>
    <i name="e_fr_energy">    -11.86204060 </i>
    <i name="e_wo_entrp">    -11.86188879 </i>
    <i name="e_0_energy">    -11.86199000 </i>
   </energy>
  </scstep>
  <scstep>
   <time name="dav">    2.09    2.09</time>
   <time name="total">    2.54    2.55</time>
   <energy>
    <i name="e_fr_energy">    -11.86221826 </i>
    <i name="e_wo_entrp">    -11.86199771 </i>
    <i name="e_0_energy">    -11.86214475 </i>
   </energy>
  </scstep>
  <scstep>
   <time name="dav">    2.04    2.04</time>
   <time name="total">    2.22    2.24</time>
   <energy>
    <i name="alphaZ">     30.58334069 </i>
    <i name="ewald">   -197.90100875 </i>
    <i name="hartreedc">     -0.58876925 </i>
    <i name="XCdc">    -65.99873456 </i>
    <i name="pawpsdc">    193.81748574 </i>
    <i name="pawaedc">   -120.39932529 </i>
    <i name="eentropy">     -0.00022647 </i>
    <i name="bandstr">     17.97878940 </i>
    <i name="atom">    130.64621481 </i>
    <i name="e_fr_energy">    -11.86223367 </i>
    <i name="e_wo_entrp">    -11.86200720 </i>
    <i name="e_0_energy">    -11.86215818 </i>
   </energy>
  </scstep>
  <parameters_embedded>
   <separator name="dft+d2" >
    <i type="logical" name="LVDW"> F  </i>
   </separator>
  </parameters_embedded>
  <structure>
   <crystal>
    <varray name="basis" >
     <v>       2.86654409       0.00000000       0.00000000 </v>
     <v>      -0.95551470       2.70260368       0.00000000 </v>
     <v>      -0.95551470      -1.35130184       2.34052345 </v>
    </varray>
    <i name="volume">     18.13234550 </i>
    <varray name="rec_basis" >
     <v>       0.34885213       0.12333785       0.21362743 </v>
     <v>       0.00000000       0.37001356       0.21362743 </v>
     <v>       0.00000000       0.00000000       0.42725485 </v>
    </varray>
   </crystal>
   <varray name="positions" >
    <v>       0.00000000       0.00000000       0.00000000 </v>
   </varray>
  </structure>
  <varray name="forces" >
   <v>       0.00000000       0.00000000       0.00000000 </v>
  </varray>
  <varray name="stress" >
   <v>      -7.14363878       0.00000000       0.00000000 </v>
   <v>       0.00000000      -7.14363878       0.00000000 </v>
   <v>       0.00000000       0.00000000      -7.14363878 </v>
  </varray>
  <energy>
   <i name="e_fr_energy">    -11.86223367 </i>
   <i name="e_wo_entrp">    -11.86215818 </i>
   <i name="e_0_energy">     -0.00022647 </i>
  </energy>
  <time name="totalsc">   54.50   54.96</time>
  <eigenvalues>
   <array>
    <dimension dim="1">band</dimension>
    <dimension dim="2">kpoint</dimension>
    <dimension dim="3">spin</dimension>
    <field>eigene</field>
    <field>occ</field>
    <set>
     <set comment="spin 1">
      <set comment="kpoint 1">
       <r>   -1.9183    1.0000 </r>
       <r>    6.3166    0.0000 </r>
       <r>    6.3166    0.0000 </r>
       <r>    6.7492    0.0000 </r>
       <r>    9.5570    0.0000 </r>
       <r>    9.5570    0.0000 </r>
      </set>
      <set comment="kpoint 2">
       <r>   -1.4343    1.0000 </r>
       <r>    5.9987    0.0000 </r>
       <r>    6.1395    0.0000 </r>
       <r>    7.2893    0.0000 </r>
       <r>    9.2205    0.0000 </r>
       <r>    9.6211    0.0000 </r>
      </set>
      <set comment="kpoint 3">
       <r>   -0.6974    1.0000 </r>
       <r>    5.5763    1.0002 </r>
       <r>    5.8329   -0.0035 </r>
       <r>    8.1170    0.0000 </r>
       <r>    9.0483    0.0000 </r>
       <r>    9.7216    0.0000 </r>
      </set>
      <set comment="kpoint 4">
       <r>    0.1615    1.0000 </r>
       <r>    5.1371    1.0000 </r>
       <r>    5.5154    1.0000 </r>
       <r>    9.0842    0.0000 </r>
       <r>    9.2694    0.0000 </r>
       <r>    9.8689    0.0000 </r>
      </set>
      <set comment="kpoint 5">
       <r>    0.9133    1.0000 </r>
       <r>    4.7441    1.0000 </r>
       <r>    5.4884    1.0000 </r>
       <r>    9.3711    0.0000 </r>
       <r>   10.0691    0.0000 </r>
       <r>   10.5241    0.0000 </r>
      </set>
      <set comment="kpoint 6">
       <r>    1.3289    1.0000 </r>
       <r>    4.4389    1.0000 </r>
       <r>    5.9697    0.0000 </r>
       <r>    9.5977    0.0000 </r>
       <r>   10.3004    0.0000 </r>
       <r>   11.8925    0.0000 </r>
      </set>
      <set comment="kpoint 7">
       <r>    1.4471    1.0000 </r>
       <r>    4.2467    1.0000 </r>
       <r>    6.7397    0.0000 </r>
       <r>    9.6517    0.0000 </r>
       <r>   10.5000    0.0000 </r>
       <r>   13.0759    0.0000 </r>
      </set>
      <set comment="kpoint 8">
       <r>    1.4596    1.0000 </r>
       <r>    4.1812    1.0000 </r>
       <r>    7.1542    0.0000 </r>
       <r>    9.6002    0.0000 </r>
       <r>   10.5817    0.0000 </r>
       <r>   13.5880    0.0000 </r>
      </set>
      <set comment="kpoint 9">
       <r>   -2.0860    1.0000 </r>
       <r>    6.4377    0.0000 </r>
       <r>    6.4377    0.0000 </r>
       <r>    6.4923    0.0000 </r>
       <r>    9.5336    0.0000 </r>
       <r>    9.7320    0.0000 </r>
      </set>
      <set comment="kpoint 10">
       <r>   -0.8309    1.0000 </r>
       <r>    5.6887    0.9410 </r>
       <r>    5.7566    0.0374 </r>
       <r>    8.0636    0.0000 </r>
       <r>    9.0820    0.0000 </r>
       <r>    9.6938    0.0000 </r>
      </set>
      <set comment="kpoint 11">
       <r>   -0.0219    1.0000 </r>
       <r>    5.2693    1.0000 </r>
       <r>    5.3949    1.0000 </r>
       <r>    8.9925    0.0000 </r>
       <r>    9.1224    0.0000 </r>
       <r>    9.9025    0.0000 </r>
      </set>
      <set comment="kpoint 12">
       <r>    0.8299    1.0000 </r>
       <r>    4.8604    1.0000 </r>
       <r>    5.1790    1.0000 </r>
       <r>    9.1589    0.0000 </r>
       <r>   10.1165    0.0000 </r>
       <r>   10.3494    0.0000 </r>
      </set>
      <set comment="kpoint 13">
       <r>    1.4581    1.0000 </r>
       <r>    4.5346    1.0000 </r>
       <r>    5.3610    1.0000 </r>
       <r>    9.4205    0.0000 </r>
       <r>   10.3130    0.0000 </r>
       <r>   11.7119    0.0000 </r>
      </set>
      <set comment="kpoint 14">
       <r>    1.7121    1.0000 </r>
       <r>    4.3095    1.0000 </r>
       <r>    6.0043    0.0000 </r>
       <r>    9.6201    0.0000 </r>
       <r>   10.4915    0.0000 </r>
       <r>   13.0115    0.0000 </r>
      </set>
      <set comment="kpoint 15">
       <r>    1.7552    1.0000 </r>
       <r>    4.1943    1.0000 </r>
       <r>    6.6487    0.0000 </r>
       <r>    9.6307    0.0000 </r>
       <r>   10.6442    0.0000 </r>
       <r>   13.8981    0.0000 </r>
      </set>
      <set comment="kpoint 16">
       <r>   -1.7525    1.0000 </r>
       <r>    6.2375    0.0000 </r>
       <r>    6.3666    0.0000 </r>
       <r>    6.8127    0.0000 </r>
       <r>    9.1582    0.0000 </r>
       <r>    9.7978    0.0000 </r>
      </set>
      <set comment="kpoint 17">
       <r>    0.8128    1.0000 </r>
       <r>    4.9207    1.0000 </r>
       <r>    5.0354    1.0000 </r>
       <r>    9.0267    0.0000 </r>
       <r>   10.1842    0.0000 </r>
       <r>   10.3102    0.0000 </r>
      </set>
      <set comment="kpoint 18">
       <r>    1.6181    1.0000 </r>
       <r>    4.5833    1.0000 </r>
       <r>    4.9356    1.0000 </r>
       <r>    9.1983    0.0000 </r>
       <r>   10.3914    0.0000 </r>
       <r>   11.6826    0.0000 </r>
      </set>
      <set comment="kpoint 19">
       <r>    2.1066    1.0000 </r>
       <r>    4.3730    1.0000 </r>
       <r>    5.2392    1.0000 </r>
       <r>    9.4614    0.0000 </r>
       <r>   10.5059    0.0000 </r>
       <r>   13.0794    0.0000 </r>
      </set>
      <set comment="kpoint 20">
       <r>    2.2395    1.0000 </r>
       <r>    4.2544    1.0000 </r>
       <r>    5.8424   -0.0016 </r>
       <r>    9.6239    0.0000 </r>
       <r>   10.6294    0.0000 </r>
       <r>   14.2539    0.0000 </r>
      </set>
      <set comment="kpoint 21">
       <r>    2.2495    1.0000 </r>
       <r>    4.2149    1.0000 </r>
       <r>    6.1622    0.0000 </r>
       <r>    9.6295    0.0000 </r>
       <r>   10.7370    0.0000 </r>
       <r>   14.7616    0.0000 </r>
      </set>
      <set comment="kpoint 22">
       <r>   -1.1272    1.0000 </r>
       <r>    5.8693   -0.0001 </r>
       <r>    6.1440    0.0000 </r>
       <r>    7.4732    0.0000 </r>
       <r>    8.8361    0.0000 </r>
       <r>    9.8576    0.0000 </r>
      </set>
      <set comment="kpoint 23">
       <r>   -1.2740    1.0000 </r>
       <r>    6.0736    0.0000 </r>
       <r>    6.1758    0.0000 </r>
       <r>    7.2593    0.0000 </r>
       <r>    8.6924    0.0000 </r>
       <r>    9.9696    0.0000 </r>
      </set>
      <set comment="kpoint 24">
       <r>    2.3375    1.0000 </r>
       <r>    4.3593    1.0000 </r>
       <r>    4.9162    1.0000 </r>
       <r>    9.3737    0.0000 </r>
       <r>   10.5105    0.0000 </r>
       <r>   13.1291    0.0000 </r>
      </set>
      <set comment="kpoint 25">
       <r>    2.7225    1.0000 </r>
       <r>    4.2906    1.0000 </r>
       <r>    5.1704    1.0000 </r>
       <r>    9.6308    0.0000 </r>
       <r>   10.5301    0.0000 </r>
       <r>   14.5287    0.0000 </r>
      </set>
      <set comment="kpoint 26">
       <r>    2.8079    1.0000 </r>
       <r>    4.2901    1.0000 </r>
       <r>    5.5032    1.0000 </r>
       <r>    9.7696    0.0000 </r>
       <r>   10.6317    0.0000 </r>
       <r>   15.1445    0.0000 </r>
      </set>
      <set comment="kpoint 27">
       <r>   -0.3067    1.0000 </r>
       <r>    5.4332    1.0000 </r>
       <r>    5.7816   -0.0354 </r>
       <r>    8.4304    0.0000 </r>
       <r>    8.8059    0.0000 </r>
       <r>    9.9572    0.0000 </r>
      </set>
      <set comment="kpoint 28">
       <r>   -0.5450    1.0000 </r>
       <r>    5.7048    0.7618 </r>
       <r>    5.8629   -0.0002 </r>
       <r>    8.0663    0.0000 </r>
       <r>    8.4460    0.0000 </r>
       <r>   10.1289    0.0000 </r>
      </set>
      <set comment="kpoint 29">
       <r>    3.1013    1.0000 </r>
       <r>    4.3828    1.0000 </r>
       <r>    5.1012    1.0000 </r>
       <r>    9.9217    0.0000 </r>
       <r>   10.4821    0.0000 </r>
       <r>   14.9013    0.0000 </r>
      </set>
      <set comment="kpoint 30">
       <r>    3.1995    1.0000 </r>
       <r>    4.5096    1.0000 </r>
       <r>    5.0349    1.0000 </r>
       <r>   10.0912    0.0000 </r>
       <r>   10.4735    0.0000 </r>
       <r>   14.3088    0.0000 </r>
      </set>
      <set comment="kpoint 31">
       <r>    0.5277    1.0000 </r>
       <r>    5.0071    1.0000 </r>
       <r>    5.5391    1.0000 </r>
       <r>    9.0281    0.0000 </r>
       <r>    9.6349    0.0000 </r>
       <r>   10.1040    0.0000 </r>
      </set>
      <set comment="kpoint 32">
       <r>    0.3074    1.0000 </r>
       <r>    5.2697    1.0000 </r>
       <r>    5.5176    1.0000 </r>
       <r>    8.5299    0.0000 </r>
       <r>    9.1672    0.0000 </r>
       <r>   10.2827    0.0000 </r>
      </set>
      <set comment="kpoint 33">
       <r>    0.2371    1.0000 </r>
       <r>    5.3808    1.0000 </r>
       <r>    5.5084    1.0000 </r>
       <r>    8.2946    0.0000 </r>
       <r>    9.0328    0.0000 </r>
       <r>   10.3682    0.0000 </r>
      </set>
      <set comment="kpoint 34">
       <r>    1.1209    1.0000 </r>
       <r>    4.6468    1.0000 </r>
       <r>    5.7282    0.3817 </r>
       <r>    9.3385    0.0000 </r>
       <r>   10.2798    0.0000 </r>
       <r>   10.9990    0.0000 </r>
      </set>
      <set comment="kpoint 35">
       <r>    1.0610    1.0000 </r>
       <r>    4.8821    1.0000 </r>
       <r>    5.4064    1.0000 </r>
       <r>    8.8511    0.0000 </r>
       <r>   10.3779    0.0000 </r>
       <r>   10.5043    0.0000 </r>
      </set>
      <set comment="kpoint 36">
       <r>    1.0715    1.0000 </r>
       <r>    4.9365    1.0000 </r>
       <r>    5.3087    1.0000 </r>
       <r>    8.4458    0.0000 </r>
       <r>   10.2133    0.0000 </r>
       <r>   10.5717    0.0000 </r>
      </set>
      <set comment="kpoint 37">
       <r>    1.3624    1.0000 </r>
       <r>    4.3892    1.0000 </r>
       <r>    6.3730    0.0000 </r>
       <r>    9.5256    0.0000 </r>
       <r>   10.4841    0.0000 </r>
       <r>   12.3432    0.0000 </r>
      </set>
      <set comment="kpoint 38">
       <r>    1.4824    1.0000 </r>
       <r>    4.5896    1.0000 </r>
       <r>    5.7533    0.0618 </r>
       <r>    9.1929    0.0000 </r>
       <r>   10.5418    0.0000 </r>
       <r>   11.8605    0.0000 </r>
      </set>
      <set comment="kpoint 39">
       <r>    1.7116    1.0000 </r>
       <r>    4.6606    1.0000 </r>
       <r>    5.3006    1.0000 </r>
       <r>    8.7912    0.0000 </r>
       <r>   10.5322    0.0000 </r>
       <r>   11.7080    0.0000 </r>
      </set>
      <set comment="kpoint 40">
       <r>    1.8410    1.0000 </r>
       <r>    4.5465    1.0000 </r>
       <r>    5.2548    1.0000 </r>
       <r>    8.6034    0.0000 </r>
       <r>   10.5082    0.0000 </r>
       <r>   11.6988    0.0000 </r>
      </set>
      <set comment="kpoint 41">
       <r>    1.4079    1.0000 </r>
       <r>    4.2555    1.0000 </r>
       <r>    7.0241    0.0000 </r>
       <r>    9.4781    0.0000 </r>
       <r>   10.6750    0.0000 </r>
       <r>   13.2853    0.0000 </r>
      </set>
      <set comment="kpoint 42">
       <r>    1.6001    1.0000 </r>
       <r>    4.4058    1.0000 </r>
       <r>    6.3754    0.0000 </r>
       <r>    9.2787    0.0000 </r>
       <r>   10.7991    0.0000 </r>
       <r>   13.0647    0.0000 </r>
      </set>
      <set comment="kpoint 43">
       <r>    1.9833    1.0000 </r>
       <r>    4.5206    1.0000 </r>
       <r>    5.6384    1.0205 </r>
       <r>    9.0703    0.0000 </r>
       <r>   10.6789    0.0000 </r>
       <r>   13.0751    0.0000 </r>
      </set>
      <set comment="kpoint 44">
       <r>    2.3817    1.0000 </r>
       <r>    4.3681    1.0000 </r>
       <r>    5.2949    1.0000 </r>
       <r>    8.9336    0.0000 </r>
       <r>   10.4856    0.0000 </r>
       <r>   13.1747    0.0000 </r>
      </set>
      <set comment="kpoint 45">
       <r>    1.6112    1.0000 </r>
       <r>    4.3431    1.0000 </r>
       <r>    6.7097    0.0000 </r>
       <r>    9.2106    0.0000 </r>
       <r>   10.9804    0.0000 </r>
       <r>   13.5888    0.0000 </r>
      </set>
      <set comment="kpoint 46">
       <r>    2.0288    1.0000 </r>
       <r>    4.4482    1.0000 </r>
       <r>    6.0430    0.0000 </r>
       <r>    9.0716    0.0000 </r>
       <r>   11.0012    0.0000 </r>
       <r>   14.0483    0.0000 </r>
      </set>
      <set comment="kpoint 47">
       <r>    2.5703    1.0000 </r>
       <r>    4.4099    1.0000 </r>
       <r>    5.4205    1.0000 </r>
       <r>    9.1590    0.0000 </r>
       <r>   10.6648    0.0000 </r>
       <r>   14.5275    0.0000 </r>
      </set>
      <set comment="kpoint 48">
       <r>    2.9098    1.0000 </r>
       <r>    4.2281    1.0000 </r>
       <r>    5.2199    1.0000 </r>
       <r>    9.2918    0.0000 </r>
       <r>   10.4082    0.0000 </r>
       <r>   14.7262    0.0000 </r>
      </set>
      <set comment="kpoint 49">
       <r>    2.5923    1.0000 </r>
       <r>    4.4521    1.0000 </r>
       <r>    5.5028    1.0000 </r>
       <r>    9.1794    0.0000 </r>
       <r>   10.8927    0.0000 </r>
       <r>   15.1764    0.0000 </r>
      </set>
      <set comment="kpoint 50">
       <r>    3.1325    1.0000 </r>
       <r>    4.3586    1.0000 </r>
       <r>    5.0266    1.0000 </r>
       <r>    9.5864    0.0000 </r>
       <r>   10.5110    0.0000 </r>
       <r>   15.0863    0.0000 </r>
      </set>
      <set comment="kpoint 51">
       <r>    3.3985    1.0000 </r>
       <r>    4.5703    1.0000 </r>
       <r>    4.5703    1.0000 </r>
       <r>   10.1441    0.0000 </r>
       <r>   10.1441    0.0000 </r>
       <r>   14.5677    0.0000 </r>
      </set>
      <set comment="kpoint 52">
       <r>   -0.1344    1.0000 </r>
       <r>    5.2977    1.0000 </r>
       <r>    5.2977    1.0000 </r>
       <r>    9.1044    0.0000 </r>
       <r>    9.4879    0.0000 </r>
       <r>    9.4879    0.0000 </r>
      </set>
      <set comment="kpoint 53">
       <r>    0.7245    1.0000 </r>
       <r>    4.8832    1.0000 </r>
       <r>    4.9546    1.0000 </r>
       <r>    9.4685    0.0000 </r>
       <r>    9.8414    0.0000 </r>
       <r>   10.3490    0.0000 </r>
      </set>
      <set comment="kpoint 54">
       <r>    1.5415    1.0000 </r>
       <r>    4.5461    1.0000 </r>
       <r>    4.8635    1.0000 </r>
       <r>    9.6085    0.0000 </r>
       <r>   10.1384    0.0000 </r>
       <r>   11.7198    0.0000 </r>
      </set>
      <set comment="kpoint 55">
       <r>    2.0142    1.0000 </r>
       <r>    4.3004    1.0000 </r>
       <r>    5.2851    1.0000 </r>
       <r>    9.7902    0.0000 </r>
       <r>   10.3843    0.0000 </r>
       <r>   13.0779    0.0000 </r>
      </set>
      <set comment="kpoint 56">
       <r>    2.1317    1.0000 </r>
       <r>    4.1516    1.0000 </r>
       <r>    6.0381    0.0000 </r>
       <r>    9.8807    0.0000 </r>
       <r>   10.5605    0.0000 </r>
       <r>   14.1723    0.0000 </r>
      </set>
      <set comment="kpoint 57">
       <r>    2.1377    1.0000 </r>
       <r>    4.1019    1.0000 </r>
       <r>    6.4364    0.0000 </r>
       <r>    9.8770    0.0000 </r>
       <r>   10.6265    0.0000 </r>
       <r>   14.6262    0.0000 </r>
      </set>
      <set comment="kpoint 58">
       <r>   -1.4253    1.0000 </r>
       <r>    6.3671    0.0000 </r>
       <r>    6.3671    0.0000 </r>
       <r>    6.8174    0.0000 </r>
       <r>    8.5096    0.0000 </r>
       <r>   10.1000    0.0000 </r>
      </set>
      <set comment="kpoint 59">
       <r>    1.6004    1.0000 </r>
       <r>    4.5753    1.0000 </r>
       <r>    4.6243    1.0000 </r>
       <r>    9.6530    0.0000 </r>
       <r>   10.0971    0.0000 </r>
       <r>   11.7430    0.0000 </r>
      </set>
      <set comment="kpoint 60">
       <r>    2.3522    1.0000 </r>
       <r>    4.3360    1.0000 </r>
       <r>    4.6454    1.0000 </r>
       <r>    9.8185    0.0000 </r>
       <r>   10.3651    0.0000 </r>
       <r>   13.1750    0.0000 </r>
      </set>
      <set comment="kpoint 61">
       <r>    2.6587    1.0000 </r>
       <r>    4.1860    1.0000 </r>
       <r>    5.2026    1.0000 </r>
       <r>    9.9838    0.0000 </r>
       <r>   10.5405    0.0000 </r>
       <r>   14.4548    0.0000 </r>
      </set>
      <set comment="kpoint 62">
       <r>    2.6890    1.0000 </r>
       <r>    4.1139    1.0000 </r>
       <r>    5.8254   -0.0060 </r>
       <r>   10.0460    0.0000 </r>
       <r>   10.6467    0.0000 </r>
       <r>   15.1871    0.0000 </r>
      </set>
      <set comment="kpoint 63">
       <r>   -0.8117    1.0000 </r>
       <r>    6.1259    0.0000 </r>
       <r>    6.2362    0.0000 </r>
       <r>    7.3696    0.0000 </r>
       <r>    7.9614    0.0000 </r>
       <r>   10.3156    0.0000 </r>
      </set>
      <set comment="kpoint 64">
       <r>    2.9909    1.0000 </r>
       <r>    4.2732    1.0000 </r>
       <r>    4.6773    1.0000 </r>
       <r>   10.0041    0.0000 </r>
       <r>   10.5307    0.0000 </r>
       <r>   14.5870    0.0000 </r>
      </set>
      <set comment="kpoint 65">
       <r>    3.1932    1.0000 </r>
       <r>    4.2638    1.0000 </r>
       <r>    5.1122    1.0000 </r>
       <r>   10.1776    0.0000 </r>
       <r>   10.6010    0.0000 </r>
       <r>   14.8417    0.0000 </r>
      </set>
      <set comment="kpoint 66">
       <r>    3.2094    1.0000 </r>
       <r>    4.2569    1.0000 </r>
       <r>    5.3899    1.0000 </r>
       <r>   10.2334    0.0000 </r>
       <r>   10.6455    0.0000 </r>
       <r>   14.2277    0.0000 </r>
      </set>
      <set comment="kpoint 67">
       <r>   -0.0046    1.0000 </r>
       <r>    5.7264    0.4117 </r>
       <r>    5.8274   -0.0052 </r>
       <r>    7.8899    0.0000 </r>
       <r>    8.3118    0.0000 </r>
       <r>   10.4734    0.0000 </r>
      </set>
      <set comment="kpoint 68">
       <r>   -0.1077    1.0000 </r>
       <r>    5.9410    0.0000 </r>
       <r>    6.0285    0.0000 </r>
       <r>    7.5358    0.0000 </r>
       <r>    7.9913    0.0000 </r>
       <r>   10.5557    0.0000 </r>
      </set>
      <set comment="kpoint 69">
       <r>    3.4059    1.0000 </r>
       <r>    4.5608    1.0000 </r>
       <r>    4.9718    1.0000 </r>
       <r>   10.3911    0.0000 </r>
       <r>   10.5697    0.0000 </r>
       <r>   13.8484    0.0000 </r>
      </set>
      <set comment="kpoint 70">
       <r>    0.8250    1.0000 </r>
       <r>    5.3214    1.0000 </r>
       <r>    5.4221    1.0000 </r>
       <r>    8.2092    0.0000 </r>
       <r>    9.5164    0.0000 </r>
       <r>   10.5760    0.0000 </r>
      </set>
      <set comment="kpoint 71">
       <r>    0.7209    1.0000 </r>
       <r>    5.3984    1.0000 </r>
       <r>    5.7605    0.0134 </r>
       <r>    7.6551    0.0000 </r>
       <r>    9.0264    0.0000 </r>
       <r>   10.6876    0.0000 </r>
      </set>
      <set comment="kpoint 72">
       <r>    1.4272    1.0000 </r>
       <r>    4.9754    1.0000 </r>
       <r>    5.3891    1.0000 </r>
       <r>    8.6530    0.0000 </r>
       <r>   10.6653    0.0000 </r>
       <r>   10.8877    0.0000 </r>
      </set>
      <set comment="kpoint 73">
       <r>    1.4734    1.0000 </r>
       <r>    4.9858    1.0000 </r>
       <r>    5.4818    1.0000 </r>
       <r>    8.0865    0.0000 </r>
       <r>   10.2396    0.0000 </r>
       <r>   10.8054    0.0000 </r>
      </set>
      <set comment="kpoint 74">
       <r>    1.5097    1.0000 </r>
       <r>    4.8490    1.0000 </r>
       <r>    5.7194    0.5304 </r>
       <r>    7.7892    0.0000 </r>
       <r>   10.0324    0.0000 </r>
       <r>   10.8532    0.0000 </r>
      </set>
      <set comment="kpoint 75">
       <r>    1.6706    1.0000 </r>
       <r>    4.7265    1.0000 </r>
       <r>    5.7897   -0.0328 </r>
       <r>    8.8728    0.0000 </r>
       <r>   10.9547    0.0000 </r>
       <r>   12.2461    0.0000 </r>
      </set>
      <set comment="kpoint 76">
       <r>    1.9105    1.0000 </r>
       <r>    4.8806    1.0000 </r>
       <r>    5.3669    1.0000 </r>
       <r>    8.4808    0.0000 </r>
       <r>   10.7656    0.0000 </r>
       <r>   11.8422    0.0000 </r>
      </set>
      <set comment="kpoint 77">
       <r>    2.1657    1.0000 </r>
       <r>    4.4857    1.0000 </r>
       <r>    5.5987    1.0014 </r>
       <r>    8.1942    0.0000 </r>
       <r>   10.4148    0.0000 </r>
       <r>   11.8267    0.0000 </r>
      </set>
      <set comment="kpoint 78">
       <r>    1.7097    1.0000 </r>
       <r>    4.5971    1.0000 </r>
       <r>    6.2482    0.0000 </r>
       <r>    8.7666    0.0000 </r>
       <r>   11.4077    0.0000 </r>
       <r>   13.2053    0.0000 </r>
      </set>
      <set comment="kpoint 79">
       <r>    2.0245    1.0000 </r>
       <r>    4.8372    1.0000 </r>
       <r>    5.5918    1.0008 </r>
       <r>    8.4979    0.0000 </r>
       <r>   11.3195    0.0000 </r>
       <r>   13.0833    0.0000 </r>
      </set>
      <set comment="kpoint 80">
       <r>    2.4787    1.0000 </r>
       <r>    4.5098    1.0000 </r>
       <r>    5.4323    1.0000 </r>
       <r>    8.5004    0.0000 </r>
       <r>   10.7057    0.0000 </r>
       <r>   13.2579    0.0000 </r>
      </set>
      <set comment="kpoint 81">
       <r>    2.7795    1.0000 </r>
       <r>    4.1347    1.0000 </r>
       <r>    5.5030    1.0000 </r>
       <r>    8.6026    0.0000 </r>
       <r>   10.3351    0.0000 </r>
       <r>   13.3482    0.0000 </r>
      </set>
      <set comment="kpoint 82">
       <r>    2.0293    1.0000 </r>
       <r>    4.8041    1.0000 </r>
       <r>    5.7773   -0.0336 </r>
       <r>    8.3986    0.0000 </r>
       <r>   11.7088    0.0000 </r>
       <r>   13.6468    0.0000 </r>
      </set>
      <set comment="kpoint 83">
       <r>    2.5245    1.0000 </r>
       <r>    4.7661    1.0000 </r>
       <r>    5.2542    1.0000 </r>
       <r>    8.5020    0.0000 </r>
       <r>   11.2861    0.0000 </r>
       <r>   14.3949    0.0000 </r>
      </set>
      <set comment="kpoint 84">
       <r>    3.1005    1.0000 </r>
       <r>    4.1921    1.0000 </r>
       <r>    5.1492    1.0000 </r>
       <r>    8.9905    0.0000 </r>
       <r>   10.5762    0.0000 </r>
       <r>   14.8727    0.0000 </r>
      </set>
      <set comment="kpoint 85">
       <r>    3.1396    1.0000 </r>
       <r>    4.5827    1.0000 </r>
       <r>    4.7104    1.0000 </r>
       <r>    9.0805    0.0000 </r>
       <r>   10.8877    0.0000 </r>
       <r>   15.5025    0.0000 </r>
      </set>
      <set comment="kpoint 86">
       <r>    3.6763    1.0000 </r>
       <r>    4.0954    1.0000 </r>
       <r>    4.5836    1.0000 </r>
       <r>    9.7021    0.0000 </r>
       <r>   10.3810    0.0000 </r>
       <r>   15.1303    0.0000 </r>
      </set>
      <set comment="kpoint 87">
       <r>    2.5123    1.0000 </r>
       <r>    4.3362    1.0000 </r>
       <r>    4.3362    1.0000 </r>
       <r>   10.1287    0.0000 </r>
       <r>   10.1287    0.0000 </r>
       <r>   13.2371    0.0000 </r>
      </set>
      <set comment="kpoint 88">
       <r>    3.1925    1.0000 </r>
       <r>    4.1868    1.0000 </r>
       <r>    4.4608    1.0000 </r>
       <r>   10.2302    0.0000 </r>
       <r>   10.4498    0.0000 </r>
       <r>   14.6447    0.0000 </r>
      </set>
      <set comment="kpoint 89">
       <r>    3.2982    1.0000 </r>
       <r>    4.1075    1.0000 </r>
       <r>    5.1442    1.0000 </r>
       <r>   10.3122    0.0000 </r>
       <r>   10.6321    0.0000 </r>
       <r>   14.8379    0.0000 </r>
      </set>
      <set comment="kpoint 90">
       <r>    3.2795    1.0000 </r>
       <r>    4.0828    1.0000 </r>
       <r>    5.5257    1.0000 </r>
       <r>   10.3309    0.0000 </r>
       <r>   10.6911    0.0000 </r>
       <r>   14.2150    0.0000 </r>
      </set>
      <set comment="kpoint 91">
       <r>   -0.2221    1.0000 </r>
       <r>    6.3867    0.0000 </r>
       <r>    6.3867    0.0000 </r>
       <r>    7.0171    0.0000 </r>
       <r>    7.4507    0.0000 </r>
       <r>   10.6348    0.0000 </r>
      </set>
      <set comment="kpoint 92">
       <r>    3.7284    1.0000 </r>
       <r>    4.2558    1.0000 </r>
       <r>    4.5230    1.0000 </r>
       <r>   10.4355    0.0000 </r>
       <r>   10.5966    0.0000 </r>
       <r>   14.7228    0.0000 </r>
      </set>
      <set comment="kpoint 93">
       <r>    3.7526    1.0000 </r>
       <r>    4.2734    1.0000 </r>
       <r>    5.0051    1.0000 </r>
       <r>   10.5238    0.0000 </r>
       <r>   10.6879    0.0000 </r>
       <r>   13.6436    0.0000 </r>
      </set>
      <set comment="kpoint 94">
       <r>    0.5524    1.0000 </r>
       <r>    5.8859    0.0000 </r>
       <r>    6.2374    0.0000 </r>
       <r>    6.9442    0.0000 </r>
       <r>    8.1790    0.0000 </r>
       <r>   10.7873    0.0000 </r>
      </set>
      <set comment="kpoint 95">
       <r>    3.8251    1.0000 </r>
       <r>    4.7056    1.0000 </r>
       <r>    4.7056    1.0000 </r>
       <r>   10.6568    0.0000 </r>
       <r>   10.6568    0.0000 </r>
       <r>   13.1748    0.0000 </r>
      </set>
      <set comment="kpoint 96">
       <r>    1.3579    1.0000 </r>
       <r>    5.1794    1.0000 </r>
       <r>    5.9178    0.0000 </r>
       <r>    7.4451    0.0000 </r>
       <r>    9.3339    0.0000 </r>
       <r>   10.7979    0.0000 </r>
      </set>
      <set comment="kpoint 97">
       <r>    1.3252    1.0000 </r>
       <r>    5.2381    1.0000 </r>
       <r>    6.2947    0.0000 </r>
       <r>    7.0539    0.0000 </r>
       <r>    8.9425    0.0000 </r>
       <r>   10.8203    0.0000 </r>
      </set>
      <set comment="kpoint 98">
       <r>    1.9653    1.0000 </r>
       <r>    4.8374    1.0000 </r>
       <r>    5.6139    1.0049 </r>
       <r>    7.9500    0.0000 </r>
       <r>   10.6989    0.0000 </r>
       <r>   10.8781    0.0000 </r>
      </set>
      <set comment="kpoint 99">
       <r>    2.0454    1.0000 </r>
       <r>    4.6263    1.0000 </r>
       <r>    6.1164    0.0000 </r>
       <r>    7.5422    0.0000 </r>
       <r>   10.0119    0.0000 </r>
       <r>   10.9014    0.0000 </r>
      </set>
      <set comment="kpoint 100">
       <r>    2.2047    1.0000 </r>
       <r>    4.9560    1.0000 </r>
       <r>    5.3880    1.0000 </r>
       <r>    8.0692    0.0000 </r>
       <r>   11.4475    0.0000 </r>
       <r>   12.0739    0.0000 </r>
      </set>
      <set comment="kpoint 101">
       <r>    2.4913    1.0000 </r>
       <r>    4.3899    1.0000 </r>
       <r>    5.8637   -0.0002 </r>
       <r>    7.9223    0.0000 </r>
       <r>   10.7209    0.0000 </r>
       <r>   11.8850    0.0000 </r>
      </set>
      <set comment="kpoint 102">
       <r>    2.6674    1.0000 </r>
       <r>    4.1112    1.0000 </r>
       <r>    6.0602    0.0000 </r>
       <r>    7.9737    0.0000 </r>
       <r>   10.2352    0.0000 </r>
       <r>   11.9120    0.0000 </r>
      </set>
      <set comment="kpoint 103">
       <r>    2.2228    1.0000 </r>
       <r>    5.2361    1.0000 </r>
       <r>    5.2688    1.0000 </r>
       <r>    7.8877    0.0000 </r>
       <r>   12.2877    0.0000 </r>
       <r>   13.0604    0.0000 </r>
      </set>
      <set comment="kpoint 104">
       <r>    2.5810    1.0000 </r>
       <r>    4.5758    1.0000 </r>
       <r>    5.6171    1.0061 </r>
       <r>    7.8938    0.0000 </r>
       <r>   11.6056    0.0000 </r>
       <r>   13.2092    0.0000 </r>
      </set>
      <set comment="kpoint 105">
       <r>    3.0305    1.0000 </r>
       <r>    3.9496    1.0000 </r>
       <r>    5.7070    0.7292 </r>
       <r>    8.4207    0.0000 </r>
       <r>   10.6011    0.0000 </r>
       <r>   13.4285    0.0000 </r>
      </set>
      <set comment="kpoint 106">
       <r>    2.5652    1.0000 </r>
       <r>    4.7658    1.0000 </r>
       <r>    5.4730    1.0000 </r>
       <r>    7.8052    0.0000 </r>
       <r>   12.1817    0.0000 </r>
       <r>   13.9115    0.0000 </r>
      </set>
      <set comment="kpoint 107">
       <r>    3.0375    1.0000 </r>
       <r>    4.2220    1.0000 </r>
       <r>    5.2973    1.0000 </r>
       <r>    8.5300    0.0000 </r>
       <r>   11.3296    0.0000 </r>
       <r>   14.8116    0.0000 </r>
      </set>
      <set comment="kpoint 108">
       <r>    3.5526    1.0000 </r>
       <r>    3.6777    1.0000 </r>
       <r>    5.1847    1.0000 </r>
       <r>    9.2386    0.0000 </r>
       <r>   10.6024    0.0000 </r>
       <r>   15.0486    0.0000 </r>
      </set>
      <set comment="kpoint 109">
       <r>    3.5382    1.0000 </r>
       <r>    3.9419    1.0000 </r>
       <r>    4.8088    1.0000 </r>
       <r>    9.5985    0.0000 </r>
       <r>   10.7220    0.0000 </r>
       <r>   15.4156    0.0000 </r>
      </set>
      <set comment="kpoint 110">
       <r>    4.2681    1.0000 </r>
       <r>    4.2681    1.0000 </r>
       <r>    4.5522    1.0000 </r>
       <r>   10.6675    0.0000 </r>
       <r>   10.6675    0.0000 </r>
       <r>   13.4420    0.0000 </r>
      </set>
      <set comment="kpoint 111">
       <r>    4.2764    1.0000 </r>
       <r>    4.3110    1.0000 </r>
       <r>    4.7618    1.0000 </r>
       <r>   10.6951    0.0000 </r>
       <r>   10.7374    0.0000 </r>
       <r>   12.9453    0.0000 </r>
      </set>
      <set comment="kpoint 112">
       <r>    1.2666    1.0000 </r>
       <r>    5.4924    1.0000 </r>
       <r>    6.6777    0.0000 </r>
       <r>    6.6777    0.0000 </r>
       <r>    8.3575    0.0000 </r>
       <r>   10.8339    0.0000 </r>
      </set>
      <set comment="kpoint 113">
       <r>    1.9927    1.0000 </r>
       <r>    4.7437    1.0000 </r>
       <r>    6.6957    0.0000 </r>
       <r>    7.1140    0.0000 </r>
       <r>    9.2159    0.0000 </r>
       <r>   10.7167    0.0000 </r>
      </set>
      <set comment="kpoint 114">
       <r>    2.5490    1.0000 </r>
       <r>    4.2100    1.0000 </r>
       <r>    6.5157    0.0000 </r>
       <r>    7.5648    0.0000 </r>
       <r>   10.4971    0.0000 </r>
       <r>   10.8510    0.0000 </r>
      </set>
      <set comment="kpoint 115">
       <r>    2.5811    1.0000 </r>
       <r>    4.1328    1.0000 </r>
       <r>    6.8379    0.0000 </r>
       <r>    7.5247    0.0000 </r>
       <r>    9.9439    0.0000 </r>
       <r>   10.7856    0.0000 </r>
      </set>
      <set comment="kpoint 116">
       <r>    2.7427    1.0000 </r>
       <r>    4.1070    1.0000 </r>
       <r>    6.3434    0.0000 </r>
       <r>    7.5879    0.0000 </r>
       <r>   11.7362    0.0000 </r>
       <r>   11.8643    0.0000 </r>
      </set>
      <set comment="kpoint 117">
       <r>    2.9499    1.0000 </r>
       <r>    3.7271    1.0000 </r>
       <r>    6.6324    0.0000 </r>
       <r>    7.9793    0.0000 </r>
       <r>   10.5854    0.0000 </r>
       <r>   11.8693    0.0000 </r>
      </set>
      <set comment="kpoint 118">
       <r>    2.7008    1.0000 </r>
       <r>    4.2497    1.0000 </r>
       <r>    6.2465    0.0000 </r>
       <r>    7.3986    0.0000 </r>
       <r>   12.8772    0.0000 </r>
       <r>   12.9941    0.0000 </r>
      </set>
      <set comment="kpoint 119">
       <r>    2.9439    1.0000 </r>
       <r>    3.7466    1.0000 </r>
       <r>    6.3686    0.0000 </r>
       <r>    8.0628    0.0000 </r>
       <r>   11.6126    0.0000 </r>
       <r>   13.3504    0.0000 </r>
      </set>
      <set comment="kpoint 120">
       <r>    3.2428    1.0000 </r>
       <r>    3.3572    1.0000 </r>
       <r>    6.2798    0.0000 </r>
       <r>    8.8417    0.0000 </r>
       <r>   10.7138    0.0000 </r>
       <r>   13.4639    0.0000 </r>
      </set>
      <set comment="kpoint 121">
       <r>    2.8784    1.0000 </r>
       <r>    3.8348    1.0000 </r>
       <r>    6.2458    0.0000 </r>
       <r>    8.0409    0.0000 </r>
       <r>   12.2629    0.0000 </r>
       <r>   14.3403    0.0000 </r>
      </set>
      <set comment="kpoint 122">
       <r>    3.1255    1.0000 </r>
       <r>    3.4626    1.0000 </r>
       <r>    5.9793    0.0000 </r>
       <r>    9.2922    0.0000 </r>
       <r>   11.2432    0.0000 </r>
       <r>   15.0617    0.0000 </r>
      </set>
      <set comment="kpoint 123">
       <r>    3.2817    1.0000 </r>
       <r>    3.2817    1.0000 </r>
       <r>    5.8036   -0.0208 </r>
       <r>   10.4848    0.0000 </r>
       <r>   10.4848    0.0000 </r>
       <r>   15.5226    0.0000 </r>
      </set>
      <set comment="kpoint 124">
       <r>    2.5481    1.0000 </r>
       <r>    4.1493    1.0000 </r>
       <r>    7.3595    0.0000 </r>
       <r>    7.3595    0.0000 </r>
       <r>    9.4675    0.0000 </r>
       <r>   10.5186    0.0000 </r>
      </set>
      <set comment="kpoint 125">
       <r>    2.8990    1.0000 </r>
       <r>    3.6044    1.0000 </r>
       <r>    7.5719    0.0000 </r>
       <r>    7.7907    0.0000 </r>
       <r>   10.3957    0.0000 </r>
       <r>   10.7154    0.0000 </r>
      </set>
      <set comment="kpoint 126">
       <r>    2.9394    1.0000 </r>
       <r>    3.3619    1.0000 </r>
       <r>    7.5414    0.0000 </r>
       <r>    7.8630    0.0000 </r>
       <r>   11.6668    0.0000 </r>
       <r>   11.8221    0.0000 </r>
      </set>
      <set comment="kpoint 127">
       <r>    3.0079    1.0000 </r>
       <r>    3.1574    1.0000 </r>
       <r>    7.5937    0.0000 </r>
       <r>    8.5772    0.0000 </r>
       <r>   10.7445    0.0000 </r>
       <r>   11.7830    0.0000 </r>
      </set>
      <set comment="kpoint 128">
       <r>    2.7938    1.0000 </r>
       <r>    3.3923    1.0000 </r>
       <r>    7.4924    0.0000 </r>
       <r>    7.7581    0.0000 </r>
       <r>   12.6860    0.0000 </r>
       <r>   13.4152    0.0000 </r>
      </set>
      <set comment="kpoint 129">
       <r>    2.8380    1.0000 </r>
       <r>    3.0553    1.0000 </r>
       <r>    7.4228    0.0000 </r>
       <r>    9.0302    0.0000 </r>
       <r>   11.5584    0.0000 </r>
       <r>   13.3897    0.0000 </r>
      </set>
      <set comment="kpoint 130">
       <r>    2.7362    1.0000 </r>
       <r>    3.0570    1.0000 </r>
       <r>    7.3474    0.0000 </r>
       <r>    9.1107    0.0000 </r>
       <r>   12.1671    0.0000 </r>
       <r>   14.6823    0.0000 </r>
      </set>
      <set comment="kpoint 131">
       <r>    2.7807    1.0000 </r>
       <r>    2.8703    1.0000 </r>
       <r>    7.2476    0.0000 </r>
       <r>   10.2599    0.0000 </r>
       <r>   11.3112    0.0000 </r>
       <r>   15.1315    0.0000 </r>
      </set>
      <set comment="kpoint 132">
       <r>    2.9234    1.0000 </r>
       <r>    3.0894    1.0000 </r>
       <r>    8.4847    0.0000 </r>
       <r>    8.4847    0.0000 </r>
       <r>   10.6598    0.0000 </r>
       <r>   10.8478    0.0000 </r>
      </set>
      <set comment="kpoint 133">
       <r>    2.7138    1.0000 </r>
       <r>    2.8103    1.0000 </r>
       <r>    8.8760    0.0000 </r>
       <r>    8.8945    0.0000 </r>
       <r>   11.5552    0.0000 </r>
       <r>   11.8802    0.0000 </r>
      </set>
      <set comment="kpoint 134">
       <r>    2.5194    1.0000 </r>
       <r>    2.7178    1.0000 </r>
       <r>    8.9432    0.0000 </r>
       <r>    8.9514    0.0000 </r>
       <r>   12.5164    0.0000 </r>
       <r>   13.5974    0.0000 </r>
      </set>
      <set comment="kpoint 135">
       <r>    2.4688    1.0000 </r>
       <r>    2.5735    1.0000 </r>
       <r>    8.8862    0.0000 </r>
       <r>   10.1038    0.0000 </r>
       <r>   11.7776    0.0000 </r>
       <r>   13.3769    0.0000 </r>
      </set>
      <set comment="kpoint 136">
       <r>    2.3933    1.0000 </r>
       <r>    2.4752    1.0000 </r>
       <r>    8.8625    0.0000 </r>
       <r>   10.5498    0.0000 </r>
       <r>   12.0406    0.0000 </r>
       <r>   14.8611    0.0000 </r>
      </set>
      <set comment="kpoint 137">
       <r>    2.3627    1.0000 </r>
       <r>    2.4683    1.0000 </r>
       <r>   10.0484    0.0000 </r>
       <r>   10.0484    0.0000 </r>
       <r>   11.7320    0.0000 </r>
       <r>   12.3351    0.0000 </r>
      </set>
      <set comment="kpoint 138">
       <r>    2.1873    1.0000 </r>
       <r>    2.2559    1.0000 </r>
       <r>   10.5299    0.0000 </r>
       <r>   10.5336    0.0000 </r>
       <r>   12.3956    0.0000 </r>
       <r>   13.6881    0.0000 </r>
      </set>
      <set comment="kpoint 139">
       <r>    2.1158    1.0000 </r>
       <r>    2.1158    1.0000 </r>
       <r>   10.5875    0.0000 </r>
       <r>   11.9460    0.0000 </r>
       <r>   11.9460    0.0000 </r>
       <r>   14.9272    0.0000 </r>
      </set>
      <set comment="kpoint 140">
       <r>    1.9940    1.0000 </r>
       <r>    2.0140    1.0000 </r>
       <r>   11.9117    0.0000 </r>
       <r>   11.9117    0.0000 </r>
       <r>   12.3954    0.0000 </r>
       <r>   13.9724    0.0000 </r>
      </set>
     </set>
     <set comment="spin 2">
      <set comment="kpoint 1">
       <r>   -1.9340    1.0000 </r>
       <r>    6.2935    0.0000 </r>
       <r>    6.2935    0.0000 </r>
       <r>    6.7260    0.0000 </r>
       <r>    9.5499    0.0000 </r>
       <r>    9.5499    0.0000 </r>
      </set>
      <set comment="kpoint 2">
       <r>   -1.4499    1.0000 </r>
       <r>    5.9759    0.0000 </r>
       <r>    6.1173    0.0000 </r>
       <r>    7.2664    0.0000 </r>
       <r>    9.2124    0.0000 </r>
       <r>    9.6136    0.0000 </r>
      </set>
      <set comment="kpoint 3">
       <r>   -0.7130    1.0000 </r>
       <r>    5.5537    1.0000 </r>
       <r>    5.8127   -0.0133 </r>
       <r>    8.0946    0.0000 </r>
       <r>    9.0382    0.0000 </r>
       <r>    9.7138    0.0000 </r>
      </set>
      <set comment="kpoint 4">
       <r>    0.1457    1.0000 </r>
       <r>    5.1148    1.0000 </r>
       <r>    5.4977    1.0000 </r>
       <r>    9.0695    0.0000 </r>
       <r>    9.2502    0.0000 </r>
       <r>    9.8606    0.0000 </r>
      </set>
      <set comment="kpoint 5">
       <r>    0.8971    1.0000 </r>
       <r>    4.7219    1.0000 </r>
       <r>    5.4728    1.0000 </r>
       <r>    9.3579    0.0000 </r>
       <r>   10.0605    0.0000 </r>
       <r>   10.5031    0.0000 </r>
      </set>
      <set comment="kpoint 6">
       <r>    1.3123    1.0000 </r>
       <r>    4.4169    1.0000 </r>
       <r>    5.9557    0.0000 </r>
       <r>    9.5842    0.0000 </r>
       <r>   10.2914    0.0000 </r>
       <r>   11.8726    0.0000 </r>
      </set>
      <set comment="kpoint 7">
       <r>    1.4304    1.0000 </r>
       <r>    4.2247    1.0000 </r>
       <r>    6.7265    0.0000 </r>
       <r>    9.6386    0.0000 </r>
       <r>   10.4908    0.0000 </r>
       <r>   13.0574    0.0000 </r>
      </set>
      <set comment="kpoint 8">
       <r>    1.4429    1.0000 </r>
       <r>    4.1592    1.0000 </r>
       <r>    7.1412    0.0000 </r>
       <r>    9.5875    0.0000 </r>
       <r>   10.5724    0.0000 </r>
       <r>   13.5702    0.0000 </r>
      </set>
      <set comment="kpoint 9">
       <r>   -2.1017    1.0000 </r>
       <r>    6.4145    0.0000 </r>
       <r>    6.4145    0.0000 </r>
       <r>    6.4691    0.0000 </r>
       <r>    9.5267    0.0000 </r>
       <r>    9.7251    0.0000 </r>
      </set>
      <set comment="kpoint 10">
       <r>   -0.8465    1.0000 </r>
       <r>    5.6666    1.0322 </r>
       <r>    5.7353    0.2708 </r>
       <r>    8.0411    0.0000 </r>
       <r>    9.0729    0.0000 </r>
       <r>    9.6856    0.0000 </r>
      </set>
      <set comment="kpoint 11">
       <r>   -0.0376    1.0000 </r>
       <r>    5.2477    1.0000 </r>
       <r>    5.3752    1.0000 </r>
       <r>    8.9793    0.0000 </r>
       <r>    9.1030    0.0000 </r>
       <r>    9.8938    0.0000 </r>
      </set>
      <set comment="kpoint 12">
       <r>    0.8139    1.0000 </r>
       <r>    4.8391    1.0000 </r>
       <r>    5.1612    1.0000 </r>
       <r>    9.1467    0.0000 </r>
       <r>   10.1075    0.0000 </r>
       <r>   10.3285    0.0000 </r>
      </set>
      <set comment="kpoint 13">
       <r>    1.4417    1.0000 </r>
       <r>    4.5131    1.0000 </r>
       <r>    5.3454    1.0000 </r>
       <r>    9.4075    0.0000 </r>
       <r>   10.3037    0.0000 </r>
       <r>   11.6921    0.0000 </r>
      </set>
      <set comment="kpoint 14">
       <r>    1.6954    1.0000 </r>
       <r>    4.2879    1.0000 </r>
       <r>    5.9901    0.0000 </r>
       <r>    9.6070    0.0000 </r>
       <r>   10.4820    0.0000 </r>
       <r>   12.9931    0.0000 </r>
      </set>
      <set comment="kpoint 15">
       <r>    1.7384    1.0000 </r>
       <r>    4.1727    1.0000 </r>
       <r>    6.6352    0.0000 </r>
       <r>    9.6179    0.0000 </r>
       <r>   10.6345    0.0000 </r>
       <r>   13.8810    0.0000 </r>
      </set>
      <set comment="kpoint 16">
       <r>   -1.7681    1.0000 </r>
       <r>    6.2145    0.0000 </r>
       <r>    6.3438    0.0000 </r>
       <r>    6.7896    0.0000 </r>
       <r>    9.1508    0.0000 </r>
       <r>    9.7907    0.0000 </r>
      </set>
      <set comment="kpoint 17">
       <r>    0.7970    1.0000 </r>
       <r>    4.9022    1.0000 </r>
       <r>    5.0142    1.0000 </r>
       <r>    9.0150    0.0000 </r>
       <r>   10.1751    0.0000 </r>
       <r>   10.2893    0.0000 </r>
      </set>
      <set comment="kpoint 18">
       <r>    1.6019    1.0000 </r>
       <r>    4.5647    1.0000 </r>
       <r>    4.9163    1.0000 </r>
       <r>    9.1857    0.0000 </r>
       <r>   10.3819    0.0000 </r>
       <r>   11.6631    0.0000 </r>
      </set>
      <set comment="kpoint 19">
       <r>    2.0897    1.0000 </r>
       <r>    4.3532    1.0000 </r>
       <r>    5.2228    1.0000 </r>
       <r>    9.4484    0.0000 </r>
       <r>   10.4959    0.0000 </r>
       <r>   13.0614    0.0000 </r>
      </set>
      <set comment="kpoint 20">
       <r>    2.2225    1.0000 </r>
       <r>    4.2338    1.0000 </r>
       <r>    5.8279   -0.0051 </r>
       <r>    9.6110    0.0000 </r>
       <r>   10.6189    0.0000 </r>
       <r>   14.2375    0.0000 </r>
      </set>
      <set comment="kpoint 21">
       <r>    2.2324    1.0000 </r>
       <r>    4.1941    1.0000 </r>
       <r>    6.1484    0.0000 </r>
       <r>    9.6168    0.0000 </r>
       <r>   10.7263    0.0000 </r>
       <r>   14.7460    0.0000 </r>
      </set>
      <set comment="kpoint 22">
       <r>   -1.1428    1.0000 </r>
       <r>    5.8465   -0.0011 </r>
       <r>    6.1228    0.0000 </r>
       <r>    7.4503    0.0000 </r>
       <r>    8.8271    0.0000 </r>
       <r>    9.8501    0.0000 </r>
      </set>
      <set comment="kpoint 23">
       <r>   -1.2895    1.0000 </r>
       <r>    6.0508    0.0000 </r>
       <r>    6.1537    0.0000 </r>
       <r>    7.2364    0.0000 </r>
       <r>    8.6840    0.0000 </r>
       <r>    9.9622    0.0000 </r>
      </set>
      <set comment="kpoint 24">
       <r>    2.3204    1.0000 </r>
       <r>    4.3427    1.0000 </r>
       <r>    4.8966    1.0000 </r>
       <r>    9.3606    0.0000 </r>
       <r>   10.5003    0.0000 </r>
       <r>   13.1113    0.0000 </r>
      </set>
      <set comment="kpoint 25">
       <r>    2.7045    1.0000 </r>
       <r>    4.2734    1.0000 </r>
       <r>    5.1535    1.0000 </r>
       <r>    9.6176    0.0000 </r>
       <r>   10.5192    0.0000 </r>
       <r>   14.5127    0.0000 </r>
      </set>
      <set comment="kpoint 26">
       <r>    2.7898    1.0000 </r>
       <r>    4.2716    1.0000 </r>
       <r>    5.4887    1.0000 </r>
       <r>    9.7566    0.0000 </r>
       <r>   10.6200    0.0000 </r>
       <r>   15.1241    0.0000 </r>
      </set>
      <set comment="kpoint 27">
       <r>   -0.3223    1.0000 </r>
       <r>    5.4106    1.0000 </r>
       <r>    5.7631    0.0009 </r>
       <r>    8.4080    0.0000 </r>
       <r>    8.7946    0.0000 </r>
       <r>    9.9491    0.0000 </r>
      </set>
      <set comment="kpoint 28">
       <r>   -0.5605    1.0000 </r>
       <r>    5.6825    0.9831 </r>
       <r>    5.8429   -0.0015 </r>
       <r>    8.0439    0.0000 </r>
       <r>    8.4355    0.0000 </r>
       <r>   10.1209    0.0000 </r>
      </set>
      <set comment="kpoint 29">
       <r>    3.0817    1.0000 </r>
       <r>    4.3674    1.0000 </r>
       <r>    5.0853    1.0000 </r>
       <r>    9.9084    0.0000 </r>
       <r>   10.4701    0.0000 </r>
       <r>   14.8808    0.0000 </r>
      </set>
      <set comment="kpoint 30">
       <r>    3.1794    1.0000 </r>
       <r>    4.4938    1.0000 </r>
       <r>    5.0203    1.0000 </r>
       <r>   10.0781    0.0000 </r>
       <r>   10.4610    0.0000 </r>
       <r>   14.2875    0.0000 </r>
      </set>
      <set comment="kpoint 31">
       <r>    0.5118    1.0000 </r>
       <r>    4.9847    1.0000 </r>
       <r>    5.5231    1.0000 </r>
       <r>    9.0152    0.0000 </r>
       <r>    9.6132    0.0000 </r>
       <r>   10.0954    0.0000 </r>
      </set>
      <set comment="kpoint 32">
       <r>    0.2918    1.0000 </r>
       <r>    5.2480    1.0000 </r>
       <r>    5.4998    1.0000 </r>
       <r>    8.5173    0.0000 </r>
       <r>    9.1454    0.0000 </r>
       <r>   10.2742    0.0000 </r>
      </set>
      <set comment="kpoint 33">
       <r>    0.2216    1.0000 </r>
       <r>    5.3626    1.0000 </r>
       <r>    5.4866    1.0000 </r>
       <r>    8.2824    0.0000 </r>
       <r>    9.0110    0.0000 </r>
       <r>   10.3597    0.0000 </r>
      </set>
      <set comment="kpoint 34">
       <r>    1.1046    1.0000 </r>
       <r>    4.6246    1.0000 </r>
       <r>    5.7142    0.6176 </r>
       <r>    9.3248    0.0000 </r>
       <r>   10.2708    0.0000 </r>
       <r>   10.9782    0.0000 </r>
      </set>
      <set comment="kpoint 35">
       <r>    1.0450    1.0000 </r>
       <r>    4.8605    1.0000 </r>
       <r>    5.3910    1.0000 </r>
       <r>    8.8373    0.0000 </r>
       <r>   10.3646    0.0000 </r>
       <r>   10.4875    0.0000 </r>
      </set>
      <set comment="kpoint 36">
       <r>    1.0558    1.0000 </r>
       <r>    4.9192    1.0000 </r>
       <r>    5.2882    1.0000 </r>
       <r>    8.4321    0.0000 </r>
       <r>   10.1934    0.0000 </r>
       <r>   10.5615    0.0000 </r>
      </set>
      <set comment="kpoint 37">
       <r>    1.3458    1.0000 </r>
       <r>    4.3671    1.0000 </r>
       <r>    6.3601    0.0000 </r>
       <r>    9.5119    0.0000 </r>
       <r>   10.4747    0.0000 </r>
       <r>   12.3236    0.0000 </r>
      </set>
      <set comment="kpoint 38">
       <r>    1.4660    1.0000 </r>
       <r>    4.5678    1.0000 </r>
       <r>    5.7399    0.2066 </r>
       <r>    9.1787    0.0000 </r>
       <r>   10.5320    0.0000 </r>
       <r>   11.8408    0.0000 </r>
      </set>
      <set comment="kpoint 39">
       <r>    1.6954    1.0000 </r>
       <r>    4.6422    1.0000 </r>
       <r>    5.2833    1.0000 </r>
       <r>    8.7768    0.0000 </r>
       <r>   10.5212    0.0000 </r>
       <r>   11.6893    0.0000 </r>
      </set>
      <set comment="kpoint 40">
[...]
       </set>
       <set comment="band 2">
        <r>  0.0039 </r>
       </set>
       <set comment="band 3">
        <r>  0.0009 </r>
       </set>
       <set comment="band 4">
        <r>  0.0003 </r>
       </set>
       <set comment="band 5">
        <r>  0.0181 </r>
       </set>
       <set comment="band 6">
        <r>  0.1369 </r>
       </set>
      </set>
      <set comment="kpoint 100">
       <set comment="band 1">
        <r>  0.2703 </r>
       </set>
       <set comment="band 2">
        <r>  0.0349 </r>
       </set>
       <set comment="band 3">
        <r>  0.0000 </r>
       </set>
       <set comment="band 4">
        <r>  0.0472 </r>
       </set>
       <set comment="band 5">
        <r>  0.1158 </r>
       </set>
       <set comment="band 6">
        <r>  0.0000 </r>
       </set>
      </set>
      <set comment="kpoint 101">
       <set comment="band 1">
        <r>  0.2905 </r>
       </set>
       <set comment="band 2">
        <r>  0.0227 </r>
       </set>
       <set comment="band 3">
        <r>  0.0001 </r>
       </set>
       <set comment="band 4">
        <r>  0.0229 </r>
       </set>
       <set comment="band 5">
        <r>  0.1160 </r>
       </set>
       <set comment="band 6">
        <r>  0.0628 </r>
       </set>
      </set>
      <set comment="kpoint 102">
       <set comment="band 1">
        <r>  0.3157 </r>
       </set>
       <set comment="band 2">
        <r>  0.0000 </r>
       </set>
       <set comment="band 3">
        <r>  0.0010 </r>
       </set>
       <set comment="band 4">
        <r>  0.0000 </r>
       </set>
       <set comment="band 5">
        <r>  0.1328 </r>
       </set>
       <set comment="band 6">
        <r>  0.0821 </r>
       </set>
      </set>
      <set comment="kpoint 103">
       <set comment="band 1">
        <r>  0.2086 </r>
       </set>
       <set comment="band 2">
        <r>  0.0075 </r>
       </set>
       <set comment="band 3">
        <r>  0.0000 </r>
       </set>
       <set comment="band 4">
        <r>  0.1110 </r>
       </set>
       <set comment="band 5">
        <r>  0.0251 </r>
       </set>
       <set comment="band 6">
        <r>  0.0000 </r>
       </set>
      </set>
      <set comment="kpoint 104">
       <set comment="band 1">
        <r>  0.1872 </r>
       </set>
       <set comment="band 2">
        <r>  0.0231 </r>
       </set>
       <set comment="band 3">
        <r>  0.0057 </r>
       </set>
       <set comment="band 4">
        <r>  0.0869 </r>
       </set>
       <set comment="band 5">
        <r>  0.0668 </r>
       </set>
       <set comment="band 6">
        <r>  0.0342 </r>
       </set>
      </set>
      <set comment="kpoint 105">
       <set comment="band 1">
        <r>  0.1917 </r>
       </set>
       <set comment="band 2">
        <r>  0.0184 </r>
       </set>
       <set comment="band 3">
        <r>  0.0181 </r>
       </set>
       <set comment="band 4">
        <r>  0.0225 </r>
       </set>
       <set comment="band 5">
        <r>  0.1288 </r>
       </set>
       <set comment="band 6">
        <r>  0.0679 </r>
       </set>
      </set>
      <set comment="kpoint 106">
       <set comment="band 1">
        <r>  0.1574 </r>
       </set>
       <set comment="band 2">
        <r>  0.0000 </r>
       </set>
       <set comment="band 3">
        <r>  0.0192 </r>
       </set>
       <set comment="band 4">
        <r>  0.1199 </r>
       </set>
       <set comment="band 5">
        <r>  0.0000 </r>
       </set>
       <set comment="band 6">
        <r>  0.0000 </r>
       </set>
      </set>
      <set comment="kpoint 107">
       <set comment="band 1">
        <r>  0.1112 </r>
       </set>
       <set comment="band 2">
        <r>  0.0126 </r>
       </set>
       <set comment="band 3">
        <r>  0.0606 </r>
       </set>
       <set comment="band 4">
        <r>  0.0657 </r>
       </set>
       <set comment="band 5">
        <r>  0.0255 </r>
       </set>
       <set comment="band 6">
        <r>  0.0498 </r>
       </set>
      </set>
      <set comment="kpoint 108">
       <set comment="band 1">
        <r>  0.1167 </r>
       </set>
       <set comment="band 2">
        <r>  0.0000 </r>
       </set>
       <set comment="band 3">
        <r>  0.0718 </r>
       </set>
       <set comment="band 4">
        <r>  0.0000 </r>
       </set>
       <set comment="band 5">
        <r>  0.0849 </r>
       </set>
       <set comment="band 6">
        <r>  0.1410 </r>
       </set>
      </set>
      <set comment="kpoint 109">
       <set comment="band 1">
        <r>  0.0358 </r>
       </set>
       <set comment="band 2">
        <r>  0.0000 </r>
       </set>
       <set comment="band 3">
        <r>  0.1414 </r>
       </set>
       <set comment="band 4">
        <r>  0.0183 </r>
       </set>
       <set comment="band 5">
        <r>  0.0000 </r>
       </set>
       <set comment="band 6">
        <r>  0.4831 </r>
       </set>
      </set>
      <set comment="kpoint 110">
       <set comment="band 1">
        <r>  0.0000 </r>
       </set>
       <set comment="band 2">
        <r>  0.0000 </r>
       </set>
       <set comment="band 3">
        <r>  0.0938 </r>
       </set>
       <set comment="band 4">
        <r>  0.0000 </r>
       </set>
       <set comment="band 5">
        <r>  0.0000 </r>
       </set>
       <set comment="band 6">
        <r>  0.8429 </r>
       </set>
      </set>
      <set comment="kpoint 111">
       <set comment="band 1">
        <r>  0.0000 </r>
       </set>
       <set comment="band 2">
        <r>  0.0261 </r>
       </set>
       <set comment="band 3">
        <r>  0.0000 </r>
       </set>
       <set comment="band 4">
        <r>  0.0016 </r>
       </set>
       <set comment="band 5">
        <r>  0.0000 </r>
       </set>
       <set comment="band 6">
        <r>  0.9195 </r>
       </set>
      </set>
      <set comment="kpoint 112">
       <set comment="band 1">
        <r>  0.5594 </r>
       </set>
       <set comment="band 2">
        <r>  0.0000 </r>
       </set>
       <set comment="band 3">
        <r>  0.0000 </r>
       </set>
       <set comment="band 4">
        <r>  0.0000 </r>
       </set>
       <set comment="band 5">
        <r>  0.0000 </r>
       </set>
       <set comment="band 6">
        <r>  0.0983 </r>
       </set>
      </set>
      <set comment="kpoint 113">
       <set comment="band 1">
        <r>  0.4454 </r>
       </set>
       <set comment="band 2">
        <r>  0.0005 </r>
       </set>
       <set comment="band 3">
        <r>  0.0000 </r>
       </set>
       <set comment="band 4">
        <r>  0.0000 </r>
       </set>
       <set comment="band 5">
        <r>  0.0000 </r>
       </set>
       <set comment="band 6">
        <r>  0.1714 </r>
       </set>
      </set>
      <set comment="kpoint 114">
       <set comment="band 1">
        <r>  0.3096 </r>
       </set>
       <set comment="band 2">
        <r>  0.0086 </r>
       </set>
       <set comment="band 3">
        <r>  0.0000 </r>
       </set>
       <set comment="band 4">
        <r>  0.0142 </r>
       </set>
       <set comment="band 5">
        <r>  0.0000 </r>
       </set>
       <set comment="band 6">
        <r>  0.2266 </r>
       </set>
      </set>
      <set comment="kpoint 115">
       <set comment="band 1">
        <r>  0.3191 </r>
       </set>
       <set comment="band 2">
        <r>  0.0000 </r>
       </set>
       <set comment="band 3">
        <r>  0.0029 </r>
       </set>
       <set comment="band 4">
        <r>  0.0000 </r>
       </set>
       <set comment="band 5">
        <r>  0.0387 </r>
       </set>
       <set comment="band 6">
        <r>  0.2131 </r>
       </set>
      </set>
      <set comment="kpoint 116">
       <set comment="band 1">
        <r>  0.1771 </r>
       </set>
       <set comment="band 2">
        <r>  0.0244 </r>
       </set>
       <set comment="band 3">
        <r>  0.0000 </r>
       </set>
       <set comment="band 4">
        <r>  0.0856 </r>
       </set>
       <set comment="band 5">
        <r>  0.1824 </r>
       </set>
       <set comment="band 6">
        <r>  0.0000 </r>
       </set>
      </set>
      <set comment="kpoint 117">
       <set comment="band 1">
        <r>  0.1884 </r>
       </set>
       <set comment="band 2">
        <r>  0.0090 </r>
       </set>
       <set comment="band 3">
        <r>  0.0222 </r>
       </set>
       <set comment="band 4">
        <r>  0.0227 </r>
       </set>
       <set comment="band 5">
        <r>  0.1478 </r>
       </set>
       <set comment="band 6">
        <r>  0.1142 </r>
       </set>
      </set>
      <set comment="kpoint 118">
       <set comment="band 1">
        <r>  0.1170 </r>
       </set>
       <set comment="band 2">
        <r>  0.0058 </r>
       </set>
       <set comment="band 3">
        <r>  0.0000 </r>
       </set>
       <set comment="band 4">
        <r>  0.1561 </r>
       </set>
       <set comment="band 5">
        <r>  0.0000 </r>
       </set>
       <set comment="band 6">
        <r>  0.0480 </r>
       </set>
      </set>
      <set comment="kpoint 119">
       <set comment="band 1">
        <r>  0.0848 </r>
       </set>
       <set comment="band 2">
        <r>  0.0182 </r>
       </set>
       <set comment="band 3">
        <r>  0.0580 </r>
       </set>
       <set comment="band 4">
        <r>  0.0779 </r>
       </set>
       <set comment="band 5">
        <r>  0.0730 </r>
       </set>
       <set comment="band 6">
        <r>  0.0819 </r>
       </set>
      </set>
      <set comment="kpoint 120">
       <set comment="band 1">
        <r>  0.0966 </r>
       </set>
       <set comment="band 2">
        <r>  0.0000 </r>
       </set>
       <set comment="band 3">
        <r>  0.0793 </r>
       </set>
       <set comment="band 4">
        <r>  0.0000 </r>
       </set>
       <set comment="band 5">
        <r>  0.1438 </r>
       </set>
       <set comment="band 6">
        <r>  0.1033 </r>
       </set>
      </set>
      <set comment="kpoint 121">
       <set comment="band 1">
        <r>  0.0631 </r>
       </set>
       <set comment="band 2">
        <r>  0.0000 </r>
       </set>
       <set comment="band 3">
        <r>  0.0803 </r>
       </set>
       <set comment="band 4">
        <r>  0.0987 </r>
       </set>
       <set comment="band 5">
        <r>  0.0000 </r>
       </set>
       <set comment="band 6">
        <r>  0.0000 </r>
       </set>
      </set>
      <set comment="kpoint 122">
       <set comment="band 1">
        <r>  0.0216 </r>
       </set>
       <set comment="band 2">
        <r>  0.0087 </r>
       </set>
       <set comment="band 3">
        <r>  0.1276 </r>
       </set>
       <set comment="band 4">
        <r>  0.0280 </r>
       </set>
       <set comment="band 5">
        <r>  0.0299 </r>
       </set>
       <set comment="band 6">
        <r>  0.1248 </r>
       </set>
      </set>
      <set comment="kpoint 123">
       <set comment="band 1">
        <r>  0.0000 </r>
       </set>
       <set comment="band 2">
        <r>  0.0000 </r>
       </set>
       <set comment="band 3">
        <r>  0.1556 </r>
       </set>
       <set comment="band 4">
        <r>  0.0000 </r>
       </set>
       <set comment="band 5">
        <r>  0.0000 </r>
       </set>
       <set comment="band 6">
        <r>  0.4376 </r>
       </set>
      </set>
      <set comment="kpoint 124">
       <set comment="band 1">
        <r>  0.3188 </r>
       </set>
       <set comment="band 2">
        <r>  0.0000 </r>
       </set>
       <set comment="band 3">
        <r>  0.0000 </r>
       </set>
       <set comment="band 4">
        <r>  0.0000 </r>
       </set>
       <set comment="band 5">
        <r>  0.0000 </r>
       </set>
       <set comment="band 6">
        <r>  0.2688 </r>
       </set>
      </set>
      <set comment="kpoint 125">
       <set comment="band 1">
        <r>  0.1895 </r>
       </set>
       <set comment="band 2">
        <r>  0.0011 </r>
       </set>
       <set comment="band 3">
        <r>  0.0000 </r>
       </set>
       <set comment="band 4">
        <r>  0.0212 </r>
       </set>
       <set comment="band 5">
        <r>  0.0000 </r>
       </set>
       <set comment="band 6">
        <r>  0.3212 </r>
       </set>
      </set>
      <set comment="kpoint 126">
       <set comment="band 1">
        <r>  0.0738 </r>
       </set>
       <set comment="band 2">
        <r>  0.0197 </r>
       </set>
       <set comment="band 3">
        <r>  0.0000 </r>
       </set>
       <set comment="band 4">
        <r>  0.1095 </r>
       </set>
       <set comment="band 5">
        <r>  0.0000 </r>
       </set>
       <set comment="band 6">
        <r>  0.2424 </r>
       </set>
      </set>
      <set comment="kpoint 127">
       <set comment="band 1">
        <r>  0.0907 </r>
       </set>
       <set comment="band 2">
        <r>  0.0000 </r>
       </set>
       <set comment="band 3">
        <r>  0.0519 </r>
       </set>
       <set comment="band 4">
        <r>  0.0000 </r>
       </set>
       <set comment="band 5">
        <r>  0.1629 </r>
       </set>
       <set comment="band 6">
        <r>  0.1572 </r>
       </set>
      </set>
      <set comment="kpoint 128">
       <set comment="band 1">
        <r>  0.0363 </r>
       </set>
       <set comment="band 2">
        <r>  0.0044 </r>
       </set>
       <set comment="band 3">
        <r>  0.0000 </r>
       </set>
       <set comment="band 4">
        <r>  0.1734 </r>
       </set>
       <set comment="band 5">
        <r>  0.0000 </r>
       </set>
       <set comment="band 6">
        <r>  0.0770 </r>
       </set>
      </set>
      <set comment="kpoint 129">
       <set comment="band 1">
        <r>  0.0153 </r>
       </set>
       <set comment="band 2">
        <r>  0.0166 </r>
       </set>
       <set comment="band 3">
        <r>  0.0925 </r>
       </set>
       <set comment="band 4">
        <r>  0.0317 </r>
       </set>
       <set comment="band 5">
        <r>  0.0770 </r>
       </set>
       <set comment="band 6">
        <r>  0.1215 </r>
       </set>
      </set>
      <set comment="kpoint 130">
       <set comment="band 1">
        <r>  0.0126 </r>
       </set>
       <set comment="band 2">
        <r>  0.0000 </r>
       </set>
       <set comment="band 3">
        <r>  0.1076 </r>
       </set>
       <set comment="band 4">
        <r>  0.0526 </r>
       </set>
       <set comment="band 5">
        <r>  0.0000 </r>
       </set>
       <set comment="band 6">
        <r>  0.0000 </r>
       </set>
      </set>
      <set comment="kpoint 131">
       <set comment="band 1">
        <r>  0.0000 </r>
       </set>
       <set comment="band 2">
        <r>  0.0043 </r>
       </set>
       <set comment="band 3">
        <r>  0.1188 </r>
       </set>
       <set comment="band 4">
        <r>  0.0000 </r>
       </set>
       <set comment="band 5">
        <r>  0.0245 </r>
       </set>
       <set comment="band 6">
        <r>  0.1423 </r>
       </set>
      </set>
      <set comment="kpoint 132">
       <set comment="band 1">
        <r>  0.0892 </r>
       </set>
       <set comment="band 2">
        <r>  0.0000 </r>
       </set>
       <set comment="band 3">
        <r>  0.0000 </r>
       </set>
       <set comment="band 4">
        <r>  0.0000 </r>
       </set>
       <set comment="band 5">
        <r>  0.0000 </r>
       </set>
       <set comment="band 6">
        <r>  0.3880 </r>
       </set>
      </set>
      <set comment="kpoint 133">
       <set comment="band 1">
        <r>  0.0061 </r>
       </set>
       <set comment="band 2">
        <r>  0.0267 </r>
       </set>
       <set comment="band 3">
        <r>  0.0000 </r>
       </set>
       <set comment="band 4">
        <r>  0.0621 </r>
       </set>
       <set comment="band 5">
        <r>  0.0000 </r>
       </set>
       <set comment="band 6">
        <r>  0.2930 </r>
       </set>
      </set>
      <set comment="kpoint 134">
       <set comment="band 1">
        <r>  0.0059 </r>
       </set>
       <set comment="band 2">
        <r>  0.0030 </r>
       </set>
       <set comment="band 3">
        <r>  0.1252 </r>
       </set>
       <set comment="band 4">
        <r>  0.0000 </r>
       </set>
       <set comment="band 5">
        <r>  0.0000 </r>
       </set>
       <set comment="band 6">
        <r>  0.1015 </r>
       </set>
      </set>
      <set comment="kpoint 135">
       <set comment="band 1">
        <r>  0.0000 </r>
       </set>
       <set comment="band 2">
        <r>  0.0081 </r>
       </set>
       <set comment="band 3">
        <r>  0.0669 </r>
       </set>
       <set comment="band 4">
        <r>  0.0000 </r>
       </set>
       <set comment="band 5">
        <r>  0.0582 </r>
       </set>
       <set comment="band 6">
        <r>  0.1437 </r>
       </set>
      </set>
      <set comment="kpoint 136">
       <set comment="band 1">
        <r>  0.0012 </r>
       </set>
       <set comment="band 2">
        <r>  0.0000 </r>
       </set>
       <set comment="band 3">
        <r>  0.0778 </r>
       </set>
       <set comment="band 4">
        <r>  0.0165 </r>
       </set>
       <set comment="band 5">
        <r>  0.0000 </r>
       </set>
       <set comment="band 6">
        <r>  0.0000 </r>
       </set>
      </set>
      <set comment="kpoint 137">
       <set comment="band 1">
        <r>  0.0000 </r>
       </set>
       <set comment="band 2">
        <r>  0.0093 </r>
       </set>
       <set comment="band 3">
        <r>  0.0000 </r>
       </set>
       <set comment="band 4">
        <r>  0.0000 </r>
       </set>
       <set comment="band 5">
        <r>  0.0000 </r>
       </set>
       <set comment="band 6">
        <r>  0.2870 </r>
       </set>
      </set>
      <set comment="kpoint 138">
       <set comment="band 1">
        <r>  0.0003 </r>
       </set>
       <set comment="band 2">
        <r>  0.0011 </r>
       </set>
       <set comment="band 3">
        <r>  0.0000 </r>
       </set>
       <set comment="band 4">
        <r>  0.0460 </r>
       </set>
       <set comment="band 5">
        <r>  0.0000 </r>
       </set>
       <set comment="band 6">
        <r>  0.1076 </r>
       </set>
      </set>
      <set comment="kpoint 139">
       <set comment="band 1">
        <r>  0.0000 </r>
       </set>
       <set comment="band 2">
        <r>  0.0000 </r>
       </set>
       <set comment="band 3">
        <r>  0.0332 </r>
       </set>
       <set comment="band 4">
        <r>  0.0000 </r>
       </set>
       <set comment="band 5">
        <r>  0.0000 </r>
       </set>
       <set comment="band 6">
        <r>  0.0000 </r>
       </set>
      </set>
      <set comment="kpoint 140">
       <set comment="band 1">
        <r>  0.0000 </r>
       </set>
       <set comment="band 2">
        <r>  0.0001 </r>
       </set>
       <set comment="band 3">
        <r>  0.0000 </r>
       </set>
       <set comment="band 4">
        <r>  0.0000 </r>
       </set>
       <set comment="band 5">
        <r>  0.0000 </r>
       </set>
       <set comment="band 6">
        <r>  0.0576 </r>
       </set>
      </set>
     </set>
    </set>
   </array>
  </projected>
 </calculation>
 <structure name="finalpos" >
  <crystal>
   <varray name="basis" >
    <v>       2.86654409       0.00000000       0.00000000 </v>
    <v>      -0.95551470       2.70260368       0.00000000 </v>
    <v>      -0.95551470      -1.35130184       2.34052345 </v>
   </varray>
   <i name="volume">     18.13234550 </i>
   <varray name="rec_basis" >
    <v>       0.34885213       0.12333785       0.21362743 </v>
    <v>       0.00000000       0.37001356       0.21362743 </v>
    <v>       0.00000000       0.00000000       0.42725485 </v>
   </varray>
  </crystal>
  <varray name="positions" >
   <v>       0.00000000       0.00000000       0.00000000 </v>
  </varray>
 </structure>
</modeling>
