   2   2   0   0
  0.4851000E+03  0.9800000E-09  0.9900000E-09  0.1000000E-08  0.1500000E-16
  1.000000000000000E-004
  CAR 
 unknown system                          
      2.78115974    -33.63665605  301     -5.97245283      1.00000000
    -33.637  0.0000E+00  0.0000E+00
    -33.515  0.0000E+00  0.0000E+00
    -33.394  0.0000E+00  0.0000E+00
    -33.272  0.0000E+00  0.0000E+00
    -33.151  0.0000E+00  0.0000E+00
    -33.030  0.0000E+00  0.0000E+00
    -32.908  0.0000E+00  0.0000E+00
    -32.787  0.0000E+00  0.0000E+00
    -32.666  0.0000E+00  0.0000E+00
    -32.544  0.0000E+00  0.0000E+00
    -32.423  0.0000E+00  0.0000E+00
    -32.301  0.0000E+00  0.0000E+00
    -32.180  0.1587E-06  0.1927E-07
    -32.059  0.2380E+00  0.2889E-01
    -31.937  0.1449E+02  0.1788E+01
    -31.816  0.1745E+01  0.2000E+01
    -31.694  0.2340E-04  0.2000E+01
    -31.573  0.0000E+00  0.2000E+01
    -31.452  0.0000E+00  0.2000E+01
    -31.330  0.0000E+00  0.2000E+01
    -31.209  0.0000E+00  0.2000E+01
    -31.087  0.0000E+00  0.2000E+01
    -30.966  0.0000E+00  0.2000E+01
    -30.845  0.0000E+00  0.2000E+01
    -30.723  0.0000E+00  0.2000E+01
    -30.602  0.0000E+00  0.2000E+01
    -30.480  0.0000E+00  0.2000E+01
    -30.359  0.0000E+00  0.2000E+01
    -30.238  0.0000E+00  0.2000E+01
    -30.116  0.0000E+00  0.2000E+01
    -29.995  0.0000E+00  0.2000E+01
    -29.873  0.0000E+00  0.2000E+01
    -29.752  0.0000E+00  0.2000E+01
    -29.631  0.0000E+00  0.2000E+01
    -29.509  0.0000E+00  0.2000E+01
    -29.388  0.0000E+00  0.2000E+01
    -29.267  0.0000E+00  0.2000E+01
    -29.145  0.0000E+00  0.2000E+01
    -29.024  0.0000E+00  0.2000E+01
    -28.902  0.0000E+00  0.2000E+01
    -28.781  0.0000E+00  0.2000E+01
    -28.660  0.0000E+00  0.2000E+01
    -28.538  0.0000E+00  0.2000E+01
    -28.417  0.0000E+00  0.2000E+01
    -28.295  0.0000E+00  0.2000E+01
    -28.174  0.0000E+00  0.2000E+01
    -28.053  0.0000E+00  0.2000E+01
    -27.931  0.0000E+00  0.2000E+01
    -27.810  0.0000E+00  0.2000E+01
    -27.688  0.0000E+00  0.2000E+01
    -27.567  0.0000E+00  0.2000E+01
    -27.446  0.0000E+00  0.2000E+01
    -27.324  0.0000E+00  0.2000E+01
    -27.203  0.0000E+00  0.2000E+01
    -27.081  0.0000E+00  0.2000E+01
    -26.960  0.0000E+00  0.2000E+01
    -26.839  0.0000E+00  0.2000E+01
    -26.717  0.0000E+00  0.2000E+01
    -26.596  0.0000E+00  0.2000E+01
    -26.474  0.0000E+00  0.2000E+01
    -26.353  0.0000E+00  0.2000E+01
    -26.232  0.0000E+00  0.2000E+01
    -26.110  0.0000E+00  0.2000E+01
    -25.989  0.0000E+00  0.2000E+01
    -25.868  0.0000E+00  0.2000E+01
    -25.746  0.0000E+00  0.2000E+01
    -25.625  0.0000E+00  0.2000E+01
    -25.503  0.0000E+00  0.2000E+01
    -25.382  0.0000E+00  0.2000E+01
    -25.261  0.0000E+00  0.2000E+01
    -25.139  0.0000E+00  0.2000E+01
    -25.018  0.0000E+00  0.2000E+01
    -24.896  0.0000E+00  0.2000E+01
    -24.775  0.0000E+00  0.2000E+01
    -24.654  0.0000E+00  0.2000E+01
    -24.532  0.0000E+00  0.2000E+01
    -24.411  0.0000E+00  0.2000E+01
    -24.289  0.0000E+00  0.2000E+01
    -24.168  0.0000E+00  0.2000E+01
    -24.047  0.0000E+00  0.2000E+01
    -23.925  0.0000E+00  0.2000E+01
    -23.804  0.0000E+00  0.2000E+01
    -23.682  0.0000E+00  0.2000E+01
    -23.561  0.0000E+00  0.2000E+01
    -23.440  0.0000E+00  0.2000E+01
    -23.318  0.0000E+00  0.2000E+01
    -23.197  0.0000E+00  0.2000E+01
    -23.075  0.0000E+00  0.2000E+01
    -22.954  0.0000E+00  0.2000E+01
    -22.833  0.0000E+00  0.2000E+01
    -22.711  0.0000E+00  0.2000E+01
    -22.590  0.0000E+00  0.2000E+01
    -22.469  0.0000E+00  0.2000E+01
    -22.347  0.0000E+00  0.2000E+01
    -22.226  0.0000E+00  0.2000E+01
    -22.104  0.0000E+00  0.2000E+01
    -21.983  0.0000E+00  0.2000E+01
    -21.862  0.0000E+00  0.2000E+01
    -21.740  0.0000E+00  0.2000E+01
    -21.619  0.0000E+00  0.2000E+01
    -21.497  0.0000E+00  0.2000E+01
    -21.376  0.0000E+00  0.2000E+01
    -21.255  0.0000E+00  0.2000E+01
    -21.133  0.0000E+00  0.2000E+01
    -21.012  0.0000E+00  0.2000E+01
    -20.890  0.0000E+00  0.2000E+01
    -20.769  0.0000E+00  0.2000E+01
    -20.648  0.0000E+00  0.2000E+01
    -20.526  0.0000E+00  0.2000E+01
    -20.405  0.0000E+00  0.2000E+01
    -20.283  0.0000E+00  0.2000E+01
    -20.162  0.7654E-08  0.2000E+01
    -20.041  0.5928E-01  0.2007E+01
    -19.919  0.1266E+02  0.3544E+01
    -19.798  0.3754E+01  0.4000E+01
    -19.676  0.2408E-03  0.4000E+01
    -19.555  0.2195E-12  0.4000E+01
    -19.434  0.0000E+00  0.4000E+01
    -19.312  0.0000E+00  0.4000E+01
    -19.191  0.0000E+00  0.4000E+01
    -19.070  0.0000E+00  0.4000E+01
    -18.948  0.0000E+00  0.4000E+01
    -18.827  0.0000E+00  0.4000E+01
    -18.705  0.0000E+00  0.4000E+01
    -18.584  0.0000E+00  0.4000E+01
    -18.463  0.0000E+00  0.4000E+01
    -18.341  0.0000E+00  0.4000E+01
    -18.220  0.0000E+00  0.4000E+01
    -18.098  0.0000E+00  0.4000E+01
    -17.977  0.0000E+00  0.4000E+01
    -17.856  0.0000E+00  0.4000E+01
    -17.734  0.0000E+00  0.4000E+01
    -17.613  0.0000E+00  0.4000E+01
    -17.491  0.0000E+00  0.4000E+01
    -17.370  0.0000E+00  0.4000E+01
    -17.249  0.0000E+00  0.4000E+01
    -17.127  0.0000E+00  0.4000E+01
    -17.006  0.0000E+00  0.4000E+01
    -16.884  0.0000E+00  0.4000E+01
    -16.763  0.0000E+00  0.4000E+01
    -16.642  0.0000E+00  0.4000E+01
    -16.520  0.0000E+00  0.4000E+01
    -16.399  0.0000E+00  0.4000E+01
    -16.277  0.0000E+00  0.4000E+01
    -16.156  0.0000E+00  0.4000E+01
    -16.035  0.0000E+00  0.4000E+01
    -15.913  0.0000E+00  0.4000E+01
    -15.792  0.0000E+00  0.4000E+01
    -15.671  0.0000E+00  0.4000E+01
    -15.549  0.0000E+00  0.4000E+01
    -15.428  0.0000E+00  0.4000E+01
    -15.306  0.0000E+00  0.4000E+01
    -15.185  0.0000E+00  0.4000E+01
    -15.064  0.0000E+00  0.4000E+01
    -14.942  0.0000E+00  0.4000E+01
    -14.821  0.0000E+00  0.4000E+01
    -14.699  0.0000E+00  0.4000E+01
    -14.578  0.0000E+00  0.4000E+01
    -14.457  0.0000E+00  0.4000E+01
    -14.335  0.0000E+00  0.4000E+01
    -14.214  0.0000E+00  0.4000E+01
    -14.092  0.0000E+00  0.4000E+01
    -13.971  0.0000E+00  0.4000E+01
    -13.850  0.0000E+00  0.4000E+01
    -13.728  0.0000E+00  0.4000E+01
    -13.607  0.0000E+00  0.4000E+01
    -13.485  0.0000E+00  0.4000E+01
    -13.364  0.0000E+00  0.4000E+01
    -13.243  0.5900E-08  0.4000E+01
    -13.121  0.5234E-01  0.4006E+01
    -13.000  0.1246E+02  0.5519E+01
    -12.879  0.3963E+01  0.6000E+01
    -12.757  0.2885E-03  0.6000E+01
    -12.636  0.3948E-06  0.6000E+01
    -12.514  0.5236E+00  0.6064E+01
    -12.393  0.2916E+02  0.9603E+01
    -12.272  0.3267E+01  0.1000E+02
    -12.150  0.3889E-04  0.1000E+02
    -12.029  0.0000E+00  0.1000E+02
    -11.907  0.0000E+00  0.1000E+02
    -11.786  0.0000E+00  0.1000E+02
    -11.665  0.0000E+00  0.1000E+02
    -11.543  0.0000E+00  0.1000E+02
    -11.422  0.0000E+00  0.1000E+02
    -11.300  0.0000E+00  0.1000E+02
    -11.179  0.0000E+00  0.1000E+02
    -11.058  0.0000E+00  0.1000E+02
    -10.936  0.0000E+00  0.1000E+02
    -10.815  0.0000E+00  0.1000E+02
    -10.693  0.0000E+00  0.1000E+02
    -10.572  0.0000E+00  0.1000E+02
    -10.451  0.0000E+00  0.1000E+02
    -10.329  0.0000E+00  0.1000E+02
    -10.208  0.0000E+00  0.1000E+02
    -10.086  0.0000E+00  0.1000E+02
     -9.965  0.0000E+00  0.1000E+02
     -9.844  0.0000E+00  0.1000E+02
     -9.722  0.0000E+00  0.1000E+02
     -9.601  0.0000E+00  0.1000E+02
     -9.480  0.0000E+00  0.1000E+02
     -9.358  0.0000E+00  0.1000E+02
     -9.237  0.0000E+00  0.1000E+02
     -9.115  0.0000E+00  0.1000E+02
     -8.994  0.0000E+00  0.1000E+02
     -8.873  0.0000E+00  0.1000E+02
     -8.751  0.0000E+00  0.1000E+02
     -8.630  0.0000E+00  0.1000E+02
     -8.508  0.0000E+00  0.1000E+02
     -8.387  0.0000E+00  0.1000E+02
     -8.266  0.0000E+00  0.1000E+02
     -8.144  0.0000E+00  0.1000E+02
     -8.023  0.0000E+00  0.1000E+02
     -7.901  0.0000E+00  0.1000E+02
     -7.780  0.0000E+00  0.1000E+02
     -7.659  0.0000E+00  0.1000E+02
     -7.537  0.0000E+00  0.1000E+02
     -7.416  0.0000E+00  0.1000E+02
     -7.294  0.0000E+00  0.1000E+02
     -7.173  0.0000E+00  0.1000E+02
     -7.052  0.0000E+00  0.1000E+02
     -6.930  0.0000E+00  0.1000E+02
     -6.809  0.0000E+00  0.1000E+02
     -6.687  0.0000E+00  0.1000E+02
     -6.566  0.0000E+00  0.1000E+02
     -6.445  0.0000E+00  0.1000E+02
     -6.323  0.0000E+00  0.1000E+02
     -6.202  0.1416E-08  0.1000E+02
     -6.081  0.3692E-01  0.1000E+02
     -5.959  0.2128E+02  0.1259E+02
     -5.838  0.1163E+02  0.1400E+02
     -5.716  0.2283E-02  0.1400E+02
     -5.595  0.7165E-11  0.1400E+02
     -5.474  0.0000E+00  0.1400E+02
     -5.352  0.0000E+00  0.1400E+02
     -5.231  0.0000E+00  0.1400E+02
     -5.109  0.0000E+00  0.1400E+02
     -4.988  0.0000E+00  0.1400E+02
     -4.867  0.0000E+00  0.1400E+02
     -4.745  0.0000E+00  0.1400E+02
     -4.624  0.0000E+00  0.1400E+02
     -4.502  0.0000E+00  0.1400E+02
     -4.381  0.0000E+00  0.1400E+02
     -4.260  0.0000E+00  0.1400E+02
     -4.138  0.0000E+00  0.1400E+02
     -4.017  0.0000E+00  0.1400E+02
     -3.895  0.0000E+00  0.1400E+02
     -3.774  0.0000E+00  0.1400E+02
     -3.653  0.0000E+00  0.1400E+02
     -3.531  0.0000E+00  0.1400E+02
     -3.410  0.0000E+00  0.1400E+02
     -3.288  0.0000E+00  0.1400E+02
     -3.167  0.0000E+00  0.1400E+02
     -3.046  0.0000E+00  0.1400E+02
     -2.924  0.0000E+00  0.1400E+02
     -2.803  0.0000E+00  0.1400E+02
     -2.682  0.0000E+00  0.1400E+02
     -2.560  0.0000E+00  0.1400E+02
     -2.439  0.0000E+00  0.1400E+02
     -2.317  0.0000E+00  0.1400E+02
     -2.196  0.0000E+00  0.1400E+02
     -2.075  0.0000E+00  0.1400E+02
     -1.953  0.0000E+00  0.1400E+02
     -1.832  0.0000E+00  0.1400E+02
     -1.710  0.0000E+00  0.1400E+02
     -1.589  0.0000E+00  0.1400E+02
     -1.468  0.0000E+00  0.1400E+02
     -1.346  0.0000E+00  0.1400E+02
     -1.225  0.0000E+00  0.1400E+02
     -1.103  0.0000E+00  0.1400E+02
     -0.982  0.0000E+00  0.1400E+02
     -0.861  0.0000E+00  0.1400E+02
     -0.739  0.0000E+00  0.1400E+02
     -0.618  0.0000E+00  0.1400E+02
     -0.496  0.2029E-05  0.1400E+02
     -0.375  0.6934E+00  0.1408E+02
     -0.254  0.1506E+02  0.1591E+02
     -0.132  0.7242E+00  0.1600E+02
     -0.011  0.2263E-05  0.1600E+02
      0.111  0.0000E+00  0.1600E+02
      0.232  0.0000E+00  0.1600E+02
      0.353  0.0000E+00  0.1600E+02
      0.475  0.0000E+00  0.1600E+02
      0.596  0.0000E+00  0.1600E+02
      0.717  0.5187E-07  0.1600E+02
      0.839  0.1445E+00  0.1602E+02
      0.960  0.1394E+02  0.1771E+02
      1.082  0.4133E+01  0.1821E+02
      1.203  0.1449E+02  0.1997E+02
      1.324  0.2380E+00  0.2000E+02
      1.446  0.1587E-06  0.2000E+02
      1.567  0.0000E+00  0.2000E+02
      1.689  0.0000E+00  0.2000E+02
      1.810  0.0000E+00  0.2000E+02
      1.931  0.0000E+00  0.2000E+02
      2.053  0.0000E+00  0.2000E+02
      2.174  0.0000E+00  0.2000E+02
      2.296  0.0000E+00  0.2000E+02
      2.417  0.0000E+00  0.2000E+02
      2.538  0.0000E+00  0.2000E+02
      2.660  0.0000E+00  0.2000E+02
      2.781  0.0000E+00  0.2000E+02
