    2    2    1    1
  0.4851000E+03  0.9800000E-09  0.9900000E-09  0.1000000E-08  0.1500000E-16
  1.000000000000000E-004
  CAR 
 unknown system                          
   12    1   10
 
  0.0000000E+00  0.0000000E+00  0.0000000E+00  0.1000000E+01
   1      -31.981301
   2      -19.945650
   3      -13.024803
   4      -12.438488
   5      -12.438330
   6       -5.972497
   7       -5.972409
   8       -0.313992
   9        0.922852
  10        1.125804
