       N       E                     dE             d eps       ncg     rms          rms(c)
DAV:   1     0.679529024714E+02    0.67953E+02   -0.31508E+03    36   0.504E+02
DAV:   2     0.611393365740E+01   -0.61839E+02   -0.61743E+02    32   0.157E+02
DAV:   3    -0.775618985956E+01   -0.13870E+02   -0.13842E+02    40   0.362E+01
DAV:   4    -0.904307462979E+01   -0.12869E+01   -0.12332E+01    32   0.108E+01
DAV:   5    -0.905158934085E+01   -0.85147E-02   -0.84844E-02    24   0.876E-01    0.437E+00
DAV:   6    -0.880269856697E+01    0.24889E+00   -0.24809E-01    22   0.498E+00    0.233E+00
DAV:   7    -0.878131931270E+01    0.21379E-01   -0.30532E-01    20   0.473E+00    0.329E+00
DAV:   8    -0.869817902758E+01    0.83140E-01   -0.11211E-01    20   0.145E+00    0.111E+00
DAV:   9    -0.877478393531E+01   -0.76605E-01   -0.36798E-02    20   0.974E-01    0.104E+00
DAV:  10    -0.876146513092E+01    0.13319E-01   -0.10645E-02    20   0.388E-01    0.347E-01
DAV:  11    -0.877418566924E+01   -0.12721E-01   -0.12212E-03    20   0.243E-01    0.935E-02
DAV:  12    -0.877421973494E+01   -0.34066E-04   -0.28856E-04    20   0.652E-02    0.827E-02
DAV:  13    -0.877441021426E+01   -0.19048E-03   -0.17257E-04    20   0.697E-02    0.508E-02
DAV:  14    -0.877457846308E+01   -0.16825E-03   -0.15559E-05    22   0.528E-02    0.109E-02
DAV:  15    -0.877471606905E+01   -0.13761E-03   -0.68416E-06    20   0.173E-02    0.897E-03
DAV:  16    -0.877475779757E+01   -0.41729E-04   -0.16017E-06    22   0.128E-02    0.755E-03
DAV:  17    -0.877477036747E+01   -0.12570E-04   -0.10258E-06    20   0.437E-03    0.769E-03
DAV:  18    -0.877478034726E+01   -0.99798E-05   -0.50970E-07    20   0.889E-03    0.133E-03
DAV:  19    -0.877478889852E+01   -0.85513E-05   -0.11128E-07    20   0.399E-03    0.840E-04
DAV:  20    -0.877478996714E+01   -0.10686E-05   -0.17523E-08    24   0.127E-03    0.157E-04
DAV:  21    -0.877479043302E+01   -0.46588E-06   -0.34619E-09    24   0.696E-04    0.190E-04
DAV:  22    -0.877479045021E+01   -0.17187E-07   -0.60964E-10    24   0.257E-04    0.315E-05
DAV:  23    -0.877479048204E+01   -0.31832E-07   -0.13822E-10    24   0.157E-04    0.781E-06
DAV:  24    -0.877479048469E+01   -0.26527E-08   -0.25899E-12    24   0.367E-05
   1 F= -.87747905E+01 E0= -.87465810E+01  d E =-.564189E-01
 Found     3 degrees of freedom:
       N       E                     dE             d eps       ncg     rms          rms(c)
DAV:   1    -0.876636536717E+01    0.84251E-02   -0.11768E+00    24   0.110E+01    0.262E-01
DAV:   2    -0.876624039731E+01    0.12497E-03   -0.13067E-02    22   0.109E+00    0.140E-01
DAV:   3    -0.876643262219E+01   -0.19222E-03   -0.19881E-03    24   0.375E-01    0.862E-02
DAV:   4    -0.876625121878E+01    0.18140E-03   -0.50161E-04    20   0.809E-02    0.153E-01
DAV:   5    -0.876586960674E+01    0.38161E-03   -0.24170E-04    20   0.978E-02    0.451E-02
DAV:   6    -0.876648830854E+01   -0.61870E-03   -0.80672E-05    20   0.862E-02    0.253E-02
DAV:   7    -0.876643957713E+01    0.48731E-04   -0.12758E-05    24   0.240E-02    0.850E-03
DAV:   8    -0.876649921739E+01   -0.59640E-04   -0.17649E-06    20   0.168E-02    0.187E-03
DAV:   9    -0.876650509337E+01   -0.58760E-05   -0.34962E-07    20   0.392E-03    0.140E-03
DAV:  10    -0.876651227227E+01   -0.71789E-05   -0.30786E-07    20   0.349E-03    0.116E-03
DAV:  11    -0.876651505319E+01   -0.27809E-05   -0.60202E-08    20   0.219E-03    0.105E-03
DAV:  12    -0.876651611242E+01   -0.10592E-05   -0.22086E-08    20   0.175E-03    0.197E-04
DAV:  13    -0.876651680503E+01   -0.69260E-06   -0.50139E-09    20   0.844E-04    0.102E-04
DAV:  14    -0.876651686750E+01   -0.62471E-07   -0.51658E-10    20   0.199E-04    0.175E-05
DAV:  15    -0.876651689313E+01   -0.25633E-07   -0.65371E-11    24   0.117E-04    0.891E-05
DAV:  16    -0.876651688754E+01    0.55937E-08   -0.62883E-11    20   0.873E-05
   2 F= -.87665169E+01 E0= -.87383074E+01  d E =-.564189E-01
       N       E                     dE             d eps       ncg     rms          rms(c)
DAV:   1    -0.876779753458E+01   -0.12806E-02   -0.46677E+00    24   0.217E+01    0.531E-01
DAV:   2    -0.876710552949E+01    0.69201E-03   -0.45532E-02    24   0.210E+00    0.267E-01
DAV:   3    -0.876731325156E+01   -0.20772E-03   -0.62895E-03    24   0.653E-01    0.154E-01
DAV:   4    -0.876703336982E+01    0.27988E-03   -0.14623E-03    22   0.145E-01    0.269E-01
DAV:   5    -0.876625028485E+01    0.78308E-03   -0.68904E-04    20   0.181E-01    0.825E-02
DAV:   6    -0.876752810617E+01   -0.12778E-02   -0.24763E-04    20   0.142E-01    0.399E-02
DAV:   7    -0.876745872728E+01    0.69379E-04   -0.22117E-05    20   0.419E-02    0.159E-02
DAV:   8    -0.876755880146E+01   -0.10007E-03   -0.68677E-06    20   0.272E-02    0.136E-03
DAV:   9    -0.876757790202E+01   -0.19101E-04   -0.11808E-06    20   0.770E-03    0.138E-03
DAV:  10    -0.876759295607E+01   -0.15054E-04   -0.53719E-07    20   0.418E-03    0.810E-04
DAV:  11    -0.876760228664E+01   -0.93306E-05   -0.15589E-07    20   0.252E-03    0.120E-03
DAV:  12    -0.876760461398E+01   -0.23273E-05   -0.24825E-08    22   0.177E-03    0.380E-04
DAV:  13    -0.876760631491E+01   -0.17009E-05   -0.12950E-08    20   0.133E-03    0.258E-04
DAV:  14    -0.876760649882E+01   -0.18391E-06   -0.14064E-09    24   0.317E-04    0.153E-04
DAV:  15    -0.876760662743E+01   -0.12860E-06   -0.11346E-09    20   0.384E-04    0.578E-05
DAV:  16    -0.876760663357E+01   -0.61427E-08   -0.38607E-11    24   0.595E-05
   3 F= -.87676066E+01 E0= -.87393972E+01  d E =-.564189E-01
       N       E                     dE             d eps       ncg     rms          rms(c)
DAV:   1    -0.877318208730E+01   -0.55755E-02   -0.24570E+00    24   0.157E+01    0.283E-01
DAV:   2    -0.877436193246E+01   -0.11798E-02   -0.26646E-02    22   0.161E+00    0.189E-01
DAV:   3    -0.877456645211E+01   -0.20452E-03   -0.29694E-03    24   0.277E-01    0.510E-01
DAV:   4    -0.877055802905E+01    0.40084E-02   -0.23084E-03    20   0.246E-01    0.154E-01
DAV:   5    -0.877472592386E+01   -0.41679E-02   -0.43526E-04    20   0.179E-01    0.635E-02
DAV:   6    -0.877463199419E+01    0.93930E-04   -0.17730E-04    24   0.628E-02    0.624E-02
DAV:   7    -0.877465149329E+01   -0.19499E-04   -0.53429E-05    20   0.540E-02    0.175E-02
DAV:   8    -0.877478957935E+01   -0.13809E-03   -0.46507E-06    20   0.293E-02    0.340E-03
DAV:   9    -0.877479669444E+01   -0.71151E-05   -0.36394E-07    20   0.554E-03    0.246E-03
DAV:  10    -0.877480432380E+01   -0.76294E-05   -0.41950E-07    20   0.467E-03    0.783E-04
DAV:  11    -0.877480824444E+01   -0.39206E-05   -0.76916E-08    22   0.246E-03    0.132E-04
DAV:  12    -0.877481108511E+01   -0.28407E-05   -0.53127E-08    20   0.142E-03    0.179E-04
DAV:  13    -0.877481149312E+01   -0.40801E-06   -0.29240E-09    24   0.402E-04    0.937E-05
DAV:  14    -0.877481168508E+01   -0.19195E-06   -0.99847E-10    20   0.304E-04    0.501E-05
DAV:  15    -0.877481171544E+01   -0.30364E-07   -0.27403E-10    20   0.134E-04    0.204E-05
DAV:  16    -0.877481172566E+01   -0.10217E-07   -0.96083E-11    24   0.816E-05    0.141E-05
DAV:  17    -0.877481172685E+01   -0.11944E-08    0.21619E-11    24   0.170E-05
   4 F= -.87748117E+01 E0= -.87466023E+01  d E =-.564189E-01
       N       E                     dE             d eps       ncg     rms          rms(c)
DAV:   1    -0.876799550464E+01    0.68162E-02   -0.51241E+00    20   0.219E+01    0.273E-01
DAV:   2    -0.877419948090E+01   -0.62040E-02   -0.69398E-02    24   0.229E+00    0.504E-01
DAV:   3    -0.877043772175E+01    0.37618E-02   -0.55798E-03    20   0.353E-01    0.269E-01
DAV:   4    -0.877413802660E+01   -0.37003E-02   -0.99973E-04    20   0.261E-01    0.106E-01
DAV:   5    -0.877466712335E+01   -0.52910E-03   -0.34896E-04    24   0.156E-01    0.596E-02
DAV:   6    -0.877469957421E+01   -0.32451E-04   -0.75491E-05    22   0.693E-02    0.285E-02
DAV:   7    -0.877478029328E+01   -0.80719E-04   -0.68853E-06    20   0.340E-02    0.820E-03
DAV:   8    -0.877479614825E+01   -0.15855E-04   -0.10134E-06    20   0.996E-03    0.356E-03
DAV:   9    -0.877480499697E+01   -0.88487E-05   -0.12413E-07    24   0.344E-03    0.191E-03
DAV:  10    -0.877480892437E+01   -0.39274E-05   -0.73963E-08    24   0.220E-03    0.163E-03
DAV:  11    -0.877481110163E+01   -0.21773E-05   -0.64098E-08    24   0.297E-03    0.197E-04
DAV:  12    -0.877481165341E+01   -0.55178E-06   -0.13890E-08    24   0.983E-04    0.396E-04
DAV:  13    -0.877481159680E+01    0.56609E-07   -0.33471E-09    24   0.457E-04    0.119E-04
DAV:  14    -0.877481171994E+01   -0.12313E-06   -0.12087E-09    22   0.421E-04    0.726E-05
DAV:  15    -0.877481172045E+01   -0.51170E-09   -0.13024E-10    24   0.823E-05
   5 F= -.87748117E+01 E0= -.87466023E+01  d E =-.564189E-01
       N       E                     dE             d eps       ncg     rms          rms(c)
DAV:   1    -0.877142736331E+01    0.33844E-02   -0.25627E+00    20   0.157E+01    0.175E-01
DAV:   2    -0.877427863073E+01   -0.28513E-02   -0.33035E-02    20   0.161E+00    0.102E-01
DAV:   3    -0.877461327208E+01   -0.33464E-03   -0.86647E-04    22   0.241E-01    0.417E-02
DAV:   4    -0.877478025344E+01   -0.16698E-03   -0.93928E-05    20   0.892E-02    0.162E-02
DAV:   5    -0.877476571307E+01    0.14540E-04   -0.19054E-05    24   0.256E-02    0.223E-02
DAV:   6    -0.877475149582E+01    0.14217E-04   -0.39005E-06    20   0.226E-02    0.547E-03
DAV:   7    -0.877478242212E+01   -0.30926E-04   -0.10858E-06    20   0.127E-02    0.240E-03
DAV:   8    -0.877478164446E+01    0.77766E-06   -0.13398E-07    22   0.311E-03    0.171E-03
DAV:   9    -0.877478333130E+01   -0.16868E-05   -0.82329E-08    24   0.325E-03    0.779E-04
DAV:  10    -0.877478383821E+01   -0.50691E-06   -0.26110E-08    24   0.159E-03    0.311E-04
DAV:  11    -0.877478406309E+01   -0.22488E-06   -0.90319E-09    24   0.458E-04    0.829E-05
DAV:  12    -0.877478422446E+01   -0.16137E-06   -0.20824E-09    24   0.316E-04    0.812E-05
DAV:  13    -0.877478424563E+01   -0.21169E-07   -0.44123E-10    20   0.168E-04    0.109E-05
DAV:  14    -0.877478425049E+01   -0.48661E-08   -0.74218E-11    24   0.683E-05
   6 F= -.87747843E+01 E0= -.87465748E+01  d E =-.564189E-01
       N       E                     dE             d eps       ncg     rms          rms(c)
DAV:   1    -0.876936057480E+01    0.54237E-02   -0.51360E+00    20   0.219E+01    0.265E-01
DAV:   2    -0.877416019010E+01   -0.47996E-02   -0.54793E-02    20   0.204E+00    0.502E-01
DAV:   3    -0.877040742803E+01    0.37528E-02   -0.48512E-03    20   0.332E-01    0.245E-01
DAV:   4    -0.877428638823E+01   -0.38790E-02   -0.89870E-04    20   0.256E-01    0.886E-02
DAV:   5    -0.877466969348E+01   -0.38331E-03   -0.22098E-04    20   0.125E-01    0.451E-02
DAV:   6    -0.877471098689E+01   -0.41293E-04   -0.65887E-05    20   0.574E-02    0.286E-02
DAV:   7    -0.877474302370E+01   -0.32037E-04   -0.54888E-06    20   0.309E-02    0.676E-03
DAV:   8    -0.877476786706E+01   -0.24843E-04   -0.72954E-07    22   0.937E-03    0.199E-03
DAV:   9    -0.877478040267E+01   -0.12536E-04   -0.14585E-07    24   0.418E-03    0.990E-04
DAV:  10    -0.877478294999E+01   -0.25473E-05   -0.79755E-08    20   0.174E-03    0.150E-03
DAV:  11    -0.877478340956E+01   -0.45957E-06   -0.32128E-08    20   0.205E-03    0.310E-04
DAV:  12    -0.877478418372E+01   -0.77416E-06   -0.15369E-08    20   0.115E-03    0.333E-04
DAV:  13    -0.877478414107E+01    0.42648E-07   -0.27537E-09    22   0.355E-04    0.626E-05
DAV:  14    -0.877478424132E+01   -0.10024E-06   -0.65635E-10    24   0.285E-04    0.890E-05
DAV:  15    -0.877478424598E+01   -0.46631E-08   -0.84077E-11    24   0.131E-04
   7 F= -.87747842E+01 E0= -.87465748E+01  d E =-.564189E-01
