 vasp.5.2.12 11Nov11 complex                                                    
  
 executed on             LinuxIFC date 2012.10.09  22:34:36
 running on    1 nodes
 distr:  one band on    1 nodes,    1 groups


--------------------------------------------------------------------------------------------------------


 INCAR:
 POTCAR:   PAW_PBE O 08Apr2002                    
 POTCAR:   PAW_PBE O 08Apr2002                    
   VRHFIN =O: s2p4                                                              
   LEXCH  = PE                                                                  
   EATOM  =   432.3788 eV,   31.7789 Ry                                         
                                                                                
   TITEL  = PAW_PBE O 08Apr2002                                                 
   LULTRA =        F    use ultrasoft PP ?                                      
   IUNSCR =        0    unscreen: 0-lin 1-nonlin 2-no                           
   RPACOR =     .000    partial core radius                                     
   POMASS =   16.000; ZVAL   =    6.000    mass and valenz                      
   RCORE  =    1.520    outmost cutoff radius                                   
   RWIGS  =    1.550; RWIGS  =     .820    wigner-seitz radius (au A)           
   ENMAX  =  400.000; ENMIN  =  300.000 eV                                      
   ICORE  =        2    local potential                                         
   LCOR   =        T    correct aug charges                                     
   LPAW   =        T    paw PP                                                  
   EAUG   =  605.392                                                            
   DEXC   =     .000                                                            
   RMAX   =    2.264    core radius for proj-oper                               
   RAUG   =    1.300    factor for augmentation sphere                          
   RDEP   =    1.550    radius for radial grids                                 
   QCUT   =   -5.520; QGAM   =   11.041    optimization parameters              
                                                                                
   Description                                                                  
     l     E      TYP  RCUT    TYP  RCUT                                        
     0   .000     23  1.200                                                     
     0  -.700     23  1.200                                                     
     1   .000     23  1.520                                                     
     1   .600     23  1.520                                                     
     2   .000      7  1.500                                                     
  local pseudopotential read in
  atomic valenz-charges read in
  non local Contribution for L=           0  read in
    real space projection operators read in
  non local Contribution for L=           0  read in
    real space projection operators read in
  non local Contribution for L=           1  read in
    real space projection operators read in
  non local Contribution for L=           1  read in
    real space projection operators read in
    PAW grid and wavefunctions read in
 
   number of l-projection  operators is LMAX  =           4
   number of lm-projection operators is LMMAX =           8
 
 PAW_PBE O 08Apr2002                    :
 energy of atom  1       EATOM= -432.3788
 kinetic energy error for atom=    0.3782 (will be added to EATOM!!)
 
 
 POSCAR:  O                                      
  positions in cartesian coordinates
  No initial velocities read in
 exchange correlation table for  LEXCH =        8
   RHO(1)=    0.500       N(1)  =     2000
   RHO(2)=  100.500       N(2)  =     4000
 


--------------------------------------------------------------------------------------------------------


 ion  position               nearest neighbor table
   1  0.437  0.500  0.500-   2 1.24
   2  0.563  0.500  0.500-   1 1.24
 
  LATTYP: Found a simple orthorhombic cell.
 ALAT       =     9.8000000000
 B/A-ratio  =     1.0102040816
 C/A-ratio  =     1.0204081633
  
  Lattice vectors:
  
 A1 = (   9.8000000000,   0.0000000000,   0.0000000000)
 A2 = (   0.0000000000,   9.9000000000,   0.0000000000)
 A3 = (   0.0000000000,   0.0000000000,  10.0000000000)
 Subroutine PRICEL returns:
 Original cell was already a primitive cell.
 

Analysis of symmetry for initial positions (statically):

 Routine SETGRP: Setting up the symmetry group for a 
 simple orthorhombic supercell.


 Subroutine GETGRP returns: Found  8 space group operations
 (whereof  8 operations were pure point group operations)
 out of a pool of  8 trial point group operations.


The static configuration has the point symmetry D_2h.

Analysis of symmetry for dynamics (positions and initial velocities):

 Subroutine DYNSYM returns: Found  8 space group operations
 (whereof  8 operations were pure point group operations)
 out of a pool of  8 trial space group operations
 (whereof  8 operations were pure point group operations)
 and found also     1 'primitive' translations


The dynamic configuration has the point symmetry D_2h.
 
 
 KPOINTS: KPOINTS created by Atomic Simulation Env

Automatic generation of k-mesh.
 
 Subroutine IBZKPT returns following result:
 ===========================================
 
 Found      1 irreducible k-points:
 
 Following reciprocal coordinates:
            Coordinates               Weight
  0.000000  0.000000  0.000000      1.000000
 
 Following cartesian coordinates:
            Coordinates               Weight
  0.000000  0.000000  0.000000      1.000000
 
 
 Subroutine IBZKPT_HF returns following result:
 ==============================================
 
 Found      1 k-points in 1st BZ
 the following      1 k-points will be used (e.g. in the exchange kernel)
 Following reciprocal coordinates:   # in IRBZ
  0.000000  0.000000  0.000000       1 t-inv F


--------------------------------------------------------------------------------------------------------




 Dimension of arrays:
   k-points           NKPTS =      1   k-points in BZ     NKDIM =      1   number of bands    NBANDS=     10
   number of dos      NEDOS =    301   number of ions     NIONS =      2
   non local maximal  LDIM  =      4   non local SUM 2l+1 LMDIM =      8
   total plane-waves  NPLWV = 230400
   max r-space proj   IRMAX =      1   max aug-charges    IRDMAX=   3280
   dimension x,y,z NGX =    60 NGY =   60 NGZ =   64
   dimension x,y,z NGXF=   120 NGYF=  120 NGZF=  128
   support grid    NGXF=   120 NGYF=  120 NGZF=  128
   ions per type =               2
 NGX,Y,Z   is equivalent  to a cutoff of  10.18, 10.08, 10.64 a.u.
 NGXF,Y,Z  is equivalent  to a cutoff of  20.36, 20.15, 21.28 a.u.


 I would recommend the setting:
   dimension x,y,z NGX =    60 NGY =   60 NGZ =   61
 SYSTEM =  unknown system                          
 POSCAR =   O                                      

 Startparameter for this run:
   NWRITE =      2    write-flag & timer
   PREC   = accura    normal or accurate (medium, high low for compatibility)
   ISTART =      0    job   : 0-new  1-cont  2-samecut
   ICHARG =      2    charge: 1-file 2-atom 10-const
   ISPIN  =      1    spin polarized calculation?
   LNONCOLLINEAR =      F non collinear calculations
   LSORBIT =      F    spin-orbit coupling
   INIWAV =      1    electr: 0-lowe 1-rand  2-diag
   LASPH  =      F    aspherical Exc in radial PAW
   METAGGA=      F    non-selfconsistent MetaGGA calc.

 Electronic Relaxation 1
   ENCUT  =  350.0 eV  25.72 Ry    5.07 a.u.  14.95 15.10 15.25*2*pi/ulx,y,z
   ENINI  =  350.0     initial cutoff
   ENAUG  =  605.4 eV  augmentation charge cutoff
   NELM   =     60;   NELMIN=  2; NELMDL= -5     # of ELM steps 
   EDIFF  = 0.1E-07   stopping-criterion for ELM
   LREAL  =      F    real-space projection
   NLSPLINE    = F    spline interpolate recip. space projectors
   LCOMPAT=      F    compatible to vasp.4.4
   GGA_COMPAT  = T    GGA compatible to vasp.4.4-vasp.4.6
   LMAXPAW     = -100 max onsite density
   LMAXMIX     =    2 max onsite mixed and CHGCAR
   VOSKOWN=      0    Vosko Wilk Nusair interpolation
   ROPT   =    0.00000
 Ionic relaxation
   EDIFFG = 0.1E-06   stopping-criterion for IOM
   NSW    =     61    number of steps for IOM
   NBLOCK =      1;   KBLOCK =      1    inner block; outer block 
   IBRION =      6    ionic relax: 0-MD 1-quasi-New 2-CG
   NFREE  =      2    steps in history (QN), initial steepest desc. (CG)
   ISIF   =      2    stress and relaxation
   IWAVPR =     11    prediction:  0-non 1-charg 2-wave 3-comb
   ISYM   =      2    0-nonsym 1-usesym 2-fastsym
   LCORR  =      T    Harris-Foulkes like correction to forces

   POTIM  = 0.0150    time-step for ionic-motion
   TEIN   =    0.0    initial temperature
   TEBEG  =    0.0;   TEEND  =   0.0 temperature during run
   SMASS  =  -3.00    Nose mass-parameter (am)
   estimated Nose-frequenzy (Omega)   =  0.10E-29 period in steps =****** mass=  -0.219E-26a.u.
   SCALEE = 1.0000    scale energy and forces
   NPACO  =    256;   APACO  = 16.0  distance and # of slots for P.C.
   PSTRESS=    0.0 pullay stress

  Mass of Ions in am
   POMASS =  16.00
  Ionic Valenz
   ZVAL   =   6.00
  Atomic Wigner-Seitz radii
   RWIGS  =  -1.00
  virtual crystal weights 
   VCA    =   1.00
   NELECT =      12.0000    total number of electrons
   NUPDOWN=      -1.0000    fix difference up-down

 DOS related values:
   EMIN   =  10.00;   EMAX   =-10.00  energy-range for DOS
   EFERMI =   0.00
   ISMEAR =     0;   SIGMA  =   0.05  broadening in eV -4-tet -1-fermi 0-gaus

 Electronic relaxation 2 (details)
   IALGO  =     38    algorithm
   LDIAG  =      T    sub-space diagonalisation (order eigenvalues)
   LSUBROT=      T    optimize rotation matrix (better conditioning)
   TURBO    =      0    0=normal 1=particle mesh
   IRESTART =      0    0=no restart 2=restart with 2 vectors
   NREBOOT  =      0    no. of reboots
   NMIN     =      0    reboot dimension
   EREF     =   0.00    reference energy to select bands
   IMIX   =      4    mixing-type and parameters
     AMIX     =   0.40;   BMIX     =  1.00
     AMIX_MAG =   1.60;   BMIX_MAG =  1.00
     AMIN     =   0.10
     WC   =   100.;   INIMIX=   1;  MIXPRE=   1

 Intra band minimization:
   WEIMIN = 0.0010     energy-eigenvalue tresh-hold
   EBREAK =  0.25E-09  absolut break condition
   DEPER  =   0.30     relativ break condition  

   TIME   =   0.40     timestep for ELM

  volume/ion in A,a.u.               =     485.10      3273.62
  Fermi-wavevector in a.u.,A,eV,Ry     =   0.378601  0.715452  1.950239  0.143339
  Thomas-Fermi vector in A             =   1.312033
 
 Write flags
   LWAVE  =      T    write WAVECAR
   LCHARG =      T    write CHGCAR
   LVTOT  =      F    write LOCPOT, total local potential
   LVHAR  =      F    write LOCPOT, Hartree potential only
   LELF   =      F    write electronic localiz. function (ELF)
   LORBIT =      0    0 simple, 1 ext, 2 COOP (PROOUT)


 Dipole corrections
   LMONO  =      F    monopole corrections only (constant potential shift)
   LDIPOL =      F    correct potential (dipole corrections)
   IDIPOL =      0    1-x, 2-y, 3-z, 4-all directions 
   EPSILON=  1.0000000 bulk dielectric constant

 Exchange correlation treatment:
   GGA     =    --    GGA type
   LEXCH   =     8    internal setting for exchange type
   VOSKOWN=      0    Vosko Wilk Nusair interpolation
   LHFCALC =     F    Hartree Fock is set to
   LHFONE  =     F    Hartree Fock one center treatment
   AEXX    =    0.0000 exact exchange contribution

 Linear response parameters
   LEPSILON=     F    determine dielectric tensor
   LRPA    =     F    only Hartree local field effects (RPA)
   LNABLA  =     F    use nabla operator in PAW spheres
   LVEL    =     F    velocity operator in full k-point grid
   LINTERFAST=   F  fast interpolation
   KINTER  =     0    interpolate to denser k-point grid
   CSHIFT  =0.1000    complex shift for real part using Kramers Kronig
   OMEGAMAX=  -1.0    maximum frequency
   RTIME   =    0.100 relaxation time in fs

 Orbital magnetization related:
   ORBITALMAG=     F  switch on orbital magnetization
   LCHIMAG   =     F  perturbation theory with respect to B field
   DQ        =  0.001000  dq finite difference perturbation B field



--------------------------------------------------------------------------------------------------------


 finite differences with symmetry
 charge density and potential will be updated during run
 non-spin polarized calculation
 Variant of blocked Davidson
 Davidson routine will perform the subspace rotation
 perform sub-space diagonalisation
    after iterative eigenvector-optimisation
 modified Broyden-mixing scheme, WC =      100.0
 initial mixing is a Kerker type mixing with AMIX =  0.4000 and BMIX =      1.0000
 Hartree-type preconditioning will be used
 using additional bands            4
 reciprocal scheme for non local part
 calculate Harris-corrections to forces 
   (improved forces if not selfconsistent)
 use gradient corrections 
 use of overlap-Matrix (Vanderbilt PP)
 Gauss-broadening in eV      SIGMA  =   0.05


--------------------------------------------------------------------------------------------------------


  energy-cutoff  :      350.00
  volume of cell :      970.20
      direct lattice vectors                 reciprocal lattice vectors
     9.800000000  0.000000000  0.000000000     0.102040816  0.000000000  0.000000000
     0.000000000  9.900000000  0.000000000     0.000000000  0.101010101  0.000000000
     0.000000000  0.000000000 10.000000000     0.000000000  0.000000000  0.100000000

  length of vectors
     9.800000000  9.900000000 10.000000000     0.102040816  0.101010101  0.100000000


 
 k-points in units of 2pi/SCALE and weight: KPOINTS created by Atomic Simulation Env
   0.00000000  0.00000000  0.00000000       1.000
 
 k-points in reciprocal lattice and weights: KPOINTS created by Atomic Simulation Env
   0.00000000  0.00000000  0.00000000       1.000
 
 position of ions in fractional coordinates (direct lattice) 
   0.43683238  0.50000000  0.50000000
   0.56316762  0.50000000  0.50000000
 
 position of ions in cartesian coordinates  (Angst):
   4.28095732  4.95000000  5.00000000
   5.51904268  4.95000000  5.00000000
 


--------------------------------------------------------------------------------------------------------


 k-point  1 :  0.00000.00000.0000  plane waves:   14425

 maximum and minimum number of plane-waves per node :     14425    14425

 maximum number of plane-waves:     14425
 maximum index in each direction: 
   IXMAX=   14   IYMAX=   15   IZMAX=   15
   IXMIN=  -14   IYMIN=  -15   IZMIN=  -15

 NGX is ok and might be reduce to  58
 WARNING: aliasing errors must be expected set NGY to  62 to avoid them
 NGZ is ok and might be reduce to  62
 aliasing errors are usually negligible using standard VASP settings
 and one can safely disregard these warnings

 serial   3D FFT for wavefunctions
 parallel 3D FFT for charge:
    minimum data exchange during FFTs selected (reduces bandwidth)


 total amount of memory used by VASP on root node   196072. kBytes
========================================================================

   base      :      30000. kBytes
   nonl-proj :       1384. kBytes
   fftplans  :      63704. kBytes
   grid      :      98668. kBytes
   one-center:          6. kBytes
   wavefun   :       2310. kBytes
 
 Broyden mixing: mesh for mixing (old mesh)
   NGX = 29   NGY = 31   NGZ = 31
  (NGX  =120   NGY  =120   NGZ  =128)
  gives a total of  27869 points

 initial charge density was supplied:
 charge density of overlapping atoms calculated
 number of electron      12.0000000 magnetization 
 keeping initial charge density in first step


--------------------------------------------------------------------------------------------------------


 Maximum index for augmentation-charges         2980 (set IRDMAX)


--------------------------------------------------------------------------------------------------------


 First call to EWALD:  gamma=   0.179
 Maximum number of real-space cells 3x 3x 3
 Maximum number of reciprocal cells 3x 3x 3

    FEWALD:  cpu time    0.00: real time    0.00


----------------------------------------- Iteration    1(   1)  ---------------------------------------


    POTLOK:  cpu time    4.43: real time    6.08
    SETDIJ:  cpu time    0.01: real time    0.02
     EDDAV:  cpu time    2.87: real time    3.38
       DOS:  cpu time    0.00: real time    0.00
    --------------------------------------------
      LOOP:  cpu time    7.30: real time    9.60

 eigenvalue-minimisations  :    36
 total energy-change (2. order) : 0.6795290E+02  (-0.3150750E+03)
 number of electron      12.0000000 magnetization 
 augmentation part       12.0000000 magnetization 

 Free energy of the ion-electron system (eV)
  ---------------------------------------------------
  alpha Z        PSCENC =         0.57280012
  Ewald energy   TEWEN  =       123.42262555
  -1/2 Hartree   DENC   =      -852.18570187
  -exchange  EXHF       =         0.00000000
  -V(xc)+E(xc)   XCENC  =        54.42379720
  PAW double counting   =       491.99680524     -495.69617649
  entropy T*S    EENTRO =         0.00000000
  eigenvalues    EBANDS =      -118.58247627
  atomic energy  EATOM  =       864.00122898
  ---------------------------------------------------
  free energy    TOTEN  =        67.95290247 eV

  energy without entropy =       67.95290247  energy(sigma->0) =       67.95290247


--------------------------------------------------------------------------------------------------------




----------------------------------------- Iteration    1(   2)  ---------------------------------------


     EDDAV:  cpu time    3.35: real time    4.23
       DOS:  cpu time    0.00: real time    0.00
    --------------------------------------------
      LOOP:  cpu time    3.35: real time    4.25

 eigenvalue-minimisations  :    32
 total energy-change (2. order) :-0.6183897E+02  (-0.6174310E+02)
 number of electron      12.0000000 magnetization 
 augmentation part       12.0000000 magnetization 

 Free energy of the ion-electron system (eV)
  ---------------------------------------------------
  alpha Z        PSCENC =         0.57280012
  Ewald energy   TEWEN  =       123.42262555
  -1/2 Hartree   DENC   =      -852.18570187
  -exchange  EXHF       =         0.00000000
  -V(xc)+E(xc)   XCENC  =        54.42379720
  PAW double counting   =       491.99680524     -495.69617649
  entropy T*S    EENTRO =        -0.00000281
  eigenvalues    EBANDS =      -180.42144227
  atomic energy  EATOM  =       864.00122898
  ---------------------------------------------------
  free energy    TOTEN  =         6.11393366 eV

  energy without entropy =        6.11393647  energy(sigma->0) =        6.11393506


--------------------------------------------------------------------------------------------------------




----------------------------------------- Iteration    1(   3)  ---------------------------------------


     EDDAV:  cpu time    3.76: real time    4.11
       DOS:  cpu time    0.00: real time    0.00
    --------------------------------------------
      LOOP:  cpu time    3.76: real time    4.13

 eigenvalue-minimisations  :    40
 total energy-change (2. order) :-0.1387012E+02  (-0.1384177E+02)
 number of electron      12.0000000 magnetization 
 augmentation part       12.0000000 magnetization 

 Free energy of the ion-electron system (eV)
  ---------------------------------------------------
  alpha Z        PSCENC =         0.57280012
  Ewald energy   TEWEN  =       123.42262555
  -1/2 Hartree   DENC   =      -852.18570187
  -exchange  EXHF       =         0.00000000
  -V(xc)+E(xc)   XCENC  =        54.42379720
  PAW double counting   =       491.99680524     -495.69617649
  entropy T*S    EENTRO =        -0.00003824
  eigenvalues    EBANDS =      -194.29153036
  atomic energy  EATOM  =       864.00122898
  ---------------------------------------------------
  free energy    TOTEN  =        -7.75618986 eV

  energy without entropy =       -7.75615162  energy(sigma->0) =       -7.75617074


--------------------------------------------------------------------------------------------------------




----------------------------------------- Iteration    1(   4)  ---------------------------------------


     EDDAV:  cpu time    2.56: real time    3.27
       DOS:  cpu time    0.00: real time    0.00
    --------------------------------------------
      LOOP:  cpu time    2.56: real time    3.29

 eigenvalue-minimisations  :    32
 total energy-change (2. order) :-0.1286885E+01  (-0.1233192E+01)
 number of electron      12.0000000 magnetization 
 augmentation part       12.0000000 magnetization 

 Free energy of the ion-electron system (eV)
  ---------------------------------------------------
  alpha Z        PSCENC =         0.57280012
  Ewald energy   TEWEN  =       123.42262555
  -1/2 Hartree   DENC   =      -852.18570187
  -exchange  EXHF       =         0.00000000
  -V(xc)+E(xc)   XCENC  =        54.42379720
  PAW double counting   =       491.99680524     -495.69617649
  entropy T*S    EENTRO =        -0.05635940
  eigenvalues    EBANDS =      -195.52209397
  atomic energy  EATOM  =       864.00122898
  ---------------------------------------------------
  free energy    TOTEN  =        -9.04307463 eV

  energy without entropy =       -8.98671523  energy(sigma->0) =       -9.01489493


--------------------------------------------------------------------------------------------------------




----------------------------------------- Iteration    1(   5)  ---------------------------------------


     EDDAV:  cpu time    2.10: real time    2.57
       DOS:  cpu time    0.00: real time    0.00
    CHARGE:  cpu time    0.61: real time    0.61
    MIXING:  cpu time    0.09: real time    0.10
    --------------------------------------------
      LOOP:  cpu time    2.81: real time    3.36

 eigenvalue-minimisations  :    24
 total energy-change (2. order) :-0.8514711E-02  (-0.8484378E-02)
 number of electron      12.0000000 magnetization 
 augmentation part        1.1273964 magnetization 

 Broyden mixing:
  rms(total) = 0.43672E+00    rms(broyden)= 0.42850E+00
  rms(prec ) = 0.48583E+00
  weight for this iteration     100.00

 Free energy of the ion-electron system (eV)
  ---------------------------------------------------
  alpha Z        PSCENC =         0.57280012
  Ewald energy   TEWEN  =       123.42262555
  -1/2 Hartree   DENC   =      -852.18570187
  -exchange  EXHF       =         0.00000000
  -V(xc)+E(xc)   XCENC  =        54.42379720
  PAW double counting   =       491.99680524     -495.69617649
  entropy T*S    EENTRO =        -0.05641205
  eigenvalues    EBANDS =      -195.53055604
  atomic energy  EATOM  =       864.00122898
  ---------------------------------------------------
  free energy    TOTEN  =        -9.05158934 eV

  energy without entropy =       -8.99517730  energy(sigma->0) =       -9.02338332


--------------------------------------------------------------------------------------------------------




----------------------------------------- Iteration    1(   6)  ---------------------------------------


    POTLOK:  cpu time    4.10: real time    5.88
    SETDIJ:  cpu time    0.01: real time    0.01
     EDDAV:  cpu time    2.45: real time    3.34
       DOS:  cpu time    0.00: real time    0.00
    CHARGE:  cpu time    0.73: real time    0.78
    MIXING:  cpu time    0.12: real time    0.20
    --------------------------------------------
      LOOP:  cpu time    7.41: real time   10.23

 eigenvalue-minimisations  :    22
 total energy-change (2. order) : 0.2488908E+00  (-0.2480945E-01)
 number of electron      11.9999997 magnetization 
 augmentation part        1.1143268 magnetization 

 Broyden mixing:
  rms(total) = 0.23303E+00    rms(broyden)= 0.23195E+00
  rms(prec ) = 0.25908E+00
  weight for this iteration     100.00

 eigenvalues of (default mixing * dielectric matrix)
  average eigenvalue GAMMA=   2.0029
  2.0029

 Free energy of the ion-electron system (eV)
  ---------------------------------------------------
  alpha Z        PSCENC =         0.57280012
  Ewald energy   TEWEN  =       123.42262555
  -1/2 Hartree   DENC   =      -853.82946220
  -exchange  EXHF       =         0.00000000
  -V(xc)+E(xc)   XCENC  =        54.65562585
  PAW double counting   =       526.26857500     -529.90217496
  entropy T*S    EENTRO =        -0.05630102
  eigenvalues    EBANDS =      -193.93561589
  atomic energy  EATOM  =       864.00122898
  ---------------------------------------------------
  free energy    TOTEN  =        -8.80269857 eV

  energy without entropy =       -8.74639755  energy(sigma->0) =       -8.77454806


--------------------------------------------------------------------------------------------------------




----------------------------------------- Iteration    1(   7)  ---------------------------------------


    POTLOK:  cpu time    4.70: real time    6.45
    SETDIJ:  cpu time    0.01: real time    0.01
     EDDAV:  cpu time    2.24: real time    2.87
       DOS:  cpu time    0.00: real time    0.00
    CHARGE:  cpu time    0.84: real time    0.91
    MIXING:  cpu time    0.13: real time    0.18
    --------------------------------------------
      LOOP:  cpu time    7.92: real time   10.48

 eigenvalue-minimisations  :    20
 total energy-change (2. order) : 0.2137925E-01  (-0.3053185E-01)
 number of electron      12.0000014 magnetization 
 augmentation part        1.1037652 magnetization 

 Broyden mixing:
  rms(total) = 0.32946E+00    rms(broyden)= 0.31846E+00
  rms(prec ) = 0.35344E+00
  weight for this iteration     100.00

 eigenvalues of (default mixing * dielectric matrix)
  average eigenvalue GAMMA=   1.1441
  2.0837  0.2045

 Free energy of the ion-electron system (eV)
  ---------------------------------------------------
  alpha Z        PSCENC =         0.57280012
  Ewald energy   TEWEN  =       123.42262555
  -1/2 Hartree   DENC   =      -855.91950233
  -exchange  EXHF       =         0.00000000
  -V(xc)+E(xc)   XCENC  =        54.86869487
  PAW double counting   =       567.32236386     -570.82480406
  entropy T*S    EENTRO =        -0.04625758
  eigenvalues    EBANDS =      -192.17846873
  atomic energy  EATOM  =       864.00122898
  ---------------------------------------------------
  free energy    TOTEN  =        -8.78131931 eV

  energy without entropy =       -8.73506173  energy(sigma->0) =       -8.75819052


--------------------------------------------------------------------------------------------------------




----------------------------------------- Iteration    1(   8)  ---------------------------------------


    POTLOK:  cpu time    4.89: real time    5.68
    SETDIJ:  cpu time    0.01: real time    0.01
     EDDAV:  cpu time    2.48: real time    2.81
       DOS:  cpu time    0.00: real time    0.00
    CHARGE:  cpu time    0.89: real time    0.91
    MIXING:  cpu time    0.14: real time    0.14
    --------------------------------------------
      LOOP:  cpu time    8.41: real time    9.57

 eigenvalue-minimisations  :    20
 total energy-change (2. order) : 0.8314029E-01  (-0.1121130E-01)
 number of electron      11.9999995 magnetization 
 augmentation part        1.1047707 magnetization 

 Broyden mixing:
  rms(total) = 0.11125E+00    rms(broyden)= 0.78300E-01
  rms(prec ) = 0.87114E-01
  weight for this iteration     100.00
  WARNING: grid for Broyden might be to small

 eigenvalues of (default mixing * dielectric matrix)
  average eigenvalue GAMMA=   1.4609
  2.1056  2.1056  0.1717

 Free energy of the ion-electron system (eV)
  ---------------------------------------------------
  alpha Z        PSCENC =         0.57280012
  Ewald energy   TEWEN  =       123.42262555
  -1/2 Hartree   DENC   =      -856.03509743
  -exchange  EXHF       =         0.00000000
  -V(xc)+E(xc)   XCENC  =        54.93296321
  PAW double counting   =       569.43803802     -572.92854126
  entropy T*S    EENTRO =        -0.05588012
  eigenvalues    EBANDS =      -192.04631610
  atomic energy  EATOM  =       864.00122898
  ---------------------------------------------------
  free energy    TOTEN  =        -8.69817903 eV

  energy without entropy =       -8.64229891  energy(sigma->0) =       -8.67023897


--------------------------------------------------------------------------------------------------------




----------------------------------------- Iteration    1(   9)  ---------------------------------------


    POTLOK:  cpu time    3.81: real time    5.67
    SETDIJ:  cpu time    0.01: real time    0.01
     EDDAV:  cpu time    2.13: real time    2.77
       DOS:  cpu time    0.00: real time    0.00
    CHARGE:  cpu time    0.84: real time    0.91
    MIXING:  cpu time    0.13: real time    0.13
    --------------------------------------------
      LOOP:  cpu time    6.91: real time    9.50

 eigenvalue-minimisations  :    20
 total energy-change (2. order) :-0.7660491E-01  (-0.3679829E-02)
 number of electron      12.0000004 magnetization 
 augmentation part        1.1065942 magnetization 

 Broyden mixing:
  rms(total) = 0.10405E+00    rms(broyden)= 0.10044E+00
  rms(prec ) = 0.11151E+00
  weight for this iteration     100.00

 eigenvalues of (default mixing * dielectric matrix)
  average eigenvalue GAMMA=   1.4201
  2.5342  1.6372  1.3415  0.1674

 Free energy of the ion-electron system (eV)
  ---------------------------------------------------
  alpha Z        PSCENC =         0.57280012
  Ewald energy   TEWEN  =       123.42262555
  -1/2 Hartree   DENC   =      -856.20539260
  -exchange  EXHF       =         0.00000000
  -V(xc)+E(xc)   XCENC  =        54.86663638
  PAW double counting   =       573.91571092     -577.35352010
  entropy T*S    EENTRO =        -0.05541247
  eigenvalues    EBANDS =      -191.93946073
  atomic energy  EATOM  =       864.00122898
  ---------------------------------------------------
  free energy    TOTEN  =        -8.77478394 eV

  energy without entropy =       -8.71937147  energy(sigma->0) =       -8.74707770


--------------------------------------------------------------------------------------------------------




----------------------------------------- Iteration    1(  10)  ---------------------------------------


    POTLOK:  cpu time    4.09: real time    5.05
    SETDIJ:  cpu time    0.01: real time    0.01
     EDDAV:  cpu time    2.38: real time    3.35
       DOS:  cpu time    0.00: real time    0.00
    CHARGE:  cpu time    0.70: real time    1.07
    MIXING:  cpu time    0.11: real time    0.11
    --------------------------------------------
      LOOP:  cpu time    7.29: real time    9.66

 eigenvalue-minimisations  :    20
 total energy-change (2. order) : 0.1331880E-01  (-0.1064499E-02)
 number of electron      11.9999998 magnetization 
 augmentation part        1.1059549 magnetization 

 Broyden mixing:
  rms(total) = 0.34676E-01    rms(broyden)= 0.23736E-01
  rms(prec ) = 0.26417E-01
  weight for this iteration     100.00
  WARNING: grid for Broyden might be to small

 eigenvalues of (default mixing * dielectric matrix)
  average eigenvalue GAMMA=   1.2666
  2.5367  1.6601  1.3367  0.1672  0.6322

 Free energy of the ion-electron system (eV)
  ---------------------------------------------------
  alpha Z        PSCENC =         0.57280012
  Ewald energy   TEWEN  =       123.42262555
  -1/2 Hartree   DENC   =      -856.38892642
  -exchange  EXHF       =         0.00000000
  -V(xc)+E(xc)   XCENC  =        54.89102337
  PAW double counting   =       576.42007662     -579.85266898
  entropy T*S    EENTRO =        -0.05636137
  eigenvalues    EBANDS =      -191.77126300
  atomic energy  EATOM  =       864.00122898
  ---------------------------------------------------
  free energy    TOTEN  =        -8.76146513 eV

  energy without entropy =       -8.70510376  energy(sigma->0) =       -8.73328444


--------------------------------------------------------------------------------------------------------




----------------------------------------- Iteration    1(  11)  ---------------------------------------


    POTLOK:  cpu time    4.12: real time    5.51
    SETDIJ:  cpu time    0.01: real time    0.01
     EDDAV:  cpu time    2.05: real time    2.63
       DOS:  cpu time    0.00: real time    0.00
    CHARGE:  cpu time    0.67: real time    0.90
    MIXING:  cpu time    0.13: real time    0.23
    --------------------------------------------
      LOOP:  cpu time    6.98: real time    9.29

 eigenvalue-minimisations  :    20
 total energy-change (2. order) :-0.1272054E-01  (-0.1221195E-03)
 number of electron      11.9999999 magnetization 
 augmentation part        1.1058384 magnetization 

 Broyden mixing:
  rms(total) = 0.93520E-02    rms(broyden)= 0.87950E-02
  rms(prec ) = 0.98847E-02
  weight for this iteration     100.00

 eigenvalues of (default mixing * dielectric matrix)
  average eigenvalue GAMMA=   1.3851
  2.5487  1.9777  1.7038  1.0480  0.8653  0.1672

 Free energy of the ion-electron system (eV)
  ---------------------------------------------------
  alpha Z        PSCENC =         0.57280012
  Ewald energy   TEWEN  =       123.42262555
  -1/2 Hartree   DENC   =      -856.43819656
  -exchange  EXHF       =         0.00000000
  -V(xc)+E(xc)   XCENC  =        54.88286280
  PAW double counting   =       576.34366372     -579.77551745
  entropy T*S    EENTRO =        -0.05641026
  eigenvalues    EBANDS =      -191.72724258
  atomic energy  EATOM  =       864.00122898
  ---------------------------------------------------
  free energy    TOTEN  =        -8.77418567 eV

  energy without entropy =       -8.71777541  energy(sigma->0) =       -8.74598054


--------------------------------------------------------------------------------------------------------




----------------------------------------- Iteration    1(  12)  ---------------------------------------


    POTLOK:  cpu time    4.51: real time    5.75
    SETDIJ:  cpu time    0.01: real time    0.01
     EDDAV:  cpu time    2.12: real time    2.87
       DOS:  cpu time    0.00: real time    0.00
    CHARGE:  cpu time    0.87: real time    0.87
    MIXING:  cpu time    0.12: real time    0.12
    --------------------------------------------
      LOOP:  cpu time    7.64: real time    9.64

 eigenvalue-minimisations  :    20
 total energy-change (2. order) :-0.3406569E-04  (-0.2885642E-04)
 number of electron      11.9999999 magnetization 
 augmentation part        1.1057779 magnetization 

 Broyden mixing:
  rms(total) = 0.82743E-02    rms(broyden)= 0.75569E-02
  rms(prec ) = 0.84595E-02
  weight for this iteration     100.00

 eigenvalues of (default mixing * dielectric matrix)
  average eigenvalue GAMMA=   1.5147
  2.8066  2.4835  1.6456  1.6456  0.1672  1.0353  0.8192

 Free energy of the ion-electron system (eV)
  ---------------------------------------------------
  alpha Z        PSCENC =         0.57280012
  Ewald energy   TEWEN  =       123.42262555
  -1/2 Hartree   DENC   =      -856.49430478
  -exchange  EXHF       =         0.00000000
  -V(xc)+E(xc)   XCENC  =        54.88409203
  PAW double counting   =       576.16874035     -579.60030457
  entropy T*S    EENTRO =        -0.05641414
  eigenvalues    EBANDS =      -191.67268328
  atomic energy  EATOM  =       864.00122898
  ---------------------------------------------------
  free energy    TOTEN  =        -8.77421973 eV

  energy without entropy =       -8.71780559  energy(sigma->0) =       -8.74601266


--------------------------------------------------------------------------------------------------------




----------------------------------------- Iteration    1(  13)  ---------------------------------------


    POTLOK:  cpu time    3.88: real time    4.63
    SETDIJ:  cpu time    0.01: real time    0.01
     EDDAV:  cpu time    2.45: real time    2.97
       DOS:  cpu time    0.00: real time    0.00
    CHARGE:  cpu time    0.78: real time    0.82
    MIXING:  cpu time    0.15: real time    0.31
    --------------------------------------------
      LOOP:  cpu time    7.27: real time    8.75

 eigenvalue-minimisations  :    20
 total energy-change (2. order) :-0.1904793E-03  (-0.1725708E-04)
 number of electron      11.9999999 magnetization 
 augmentation part        1.1057816 magnetization 

 Broyden mixing:
  rms(total) = 0.50760E-02    rms(broyden)= 0.45148E-02
  rms(prec ) = 0.50538E-02
  weight for this iteration     100.00
  WARNING: grid for Broyden might be to small

 eigenvalues of (default mixing * dielectric matrix)
  average eigenvalue GAMMA=   1.5276
  3.1762  2.5616  1.8330  0.1672  1.3979  1.1490  1.1490  0.7868

 Free energy of the ion-electron system (eV)
  ---------------------------------------------------
  alpha Z        PSCENC =         0.57280012
  Ewald energy   TEWEN  =       123.42262555
  -1/2 Hartree   DENC   =      -856.53485010
  -exchange  EXHF       =         0.00000000
  -V(xc)+E(xc)   XCENC  =        54.88440738
  PAW double counting   =       576.03477653     -579.46545835
  entropy T*S    EENTRO =        -0.05641624
  eigenvalues    EBANDS =      -191.63352409
  atomic energy  EATOM  =       864.00122898
  ---------------------------------------------------
  free energy    TOTEN  =        -8.77441021 eV

  energy without entropy =       -8.71799397  energy(sigma->0) =       -8.74620209


--------------------------------------------------------------------------------------------------------




----------------------------------------- Iteration    1(  14)  ---------------------------------------


    POTLOK:  cpu time    5.01: real time    6.18
    SETDIJ:  cpu time    0.01: real time    0.01
     EDDAV:  cpu time    2.22: real time    2.87
       DOS:  cpu time    0.00: real time    0.00
    CHARGE:  cpu time    0.75: real time    1.05
    MIXING:  cpu time    0.15: real time    0.22
    --------------------------------------------
      LOOP:  cpu time    8.15: real time   10.33

 eigenvalue-minimisations  :    22
 total energy-change (2. order) :-0.1682488E-03  (-0.1555899E-05)
 number of electron      11.9999999 magnetization 
 augmentation part        1.1057551 magnetization 

 Broyden mixing:
  rms(total) = 0.10891E-02    rms(broyden)= 0.10091E-02
  rms(prec ) = 0.11976E-02
  weight for this iteration     100.00

 eigenvalues of (default mixing * dielectric matrix)
  average eigenvalue GAMMA=   1.7620
  4.5690  2.7413  2.5255  0.1672  1.7334  1.3490  0.9971  0.9971  0.7785

 Free energy of the ion-electron system (eV)
  ---------------------------------------------------
  alpha Z        PSCENC =         0.57280012
  Ewald energy   TEWEN  =       123.42262555
  -1/2 Hartree   DENC   =      -856.55180770
  -exchange  EXHF       =         0.00000000
  -V(xc)+E(xc)   XCENC  =        54.88466004
  PAW double counting   =       576.03515570     -579.46600154
  entropy T*S    EENTRO =        -0.05641869
  eigenvalues    EBANDS =      -191.61682093
  atomic energy  EATOM  =       864.00122898
  ---------------------------------------------------
  free energy    TOTEN  =        -8.77457846 eV

  energy without entropy =       -8.71815977  energy(sigma->0) =       -8.74636912


--------------------------------------------------------------------------------------------------------




----------------------------------------- Iteration    1(  15)  ---------------------------------------


    POTLOK:  cpu time    4.41: real time    6.09
    SETDIJ:  cpu time    0.01: real time    0.01
     EDDAV:  cpu time    2.04: real time    2.54
       DOS:  cpu time    0.00: real time    0.00
    CHARGE:  cpu time    0.90: real time    0.97
    MIXING:  cpu time    0.16: real time    0.17
    --------------------------------------------
      LOOP:  cpu time    7.52: real time    9.79

 eigenvalue-minimisations  :    20
 total energy-change (2. order) :-0.1376060E-03  (-0.6841585E-06)
 number of electron      11.9999999 magnetization 
 augmentation part        1.1057486 magnetization 

 Broyden mixing:
  rms(total) = 0.89668E-03    rms(broyden)= 0.73489E-03
  rms(prec ) = 0.83504E-03
  weight for this iteration     100.00
  WARNING: grid for Broyden might be to small

 eigenvalues of (default mixing * dielectric matrix)
  average eigenvalue GAMMA=   1.9052
  5.8749  2.9883  2.5495  0.1672  1.8875  1.4599  1.3486  1.1049  0.8821  0.7895

 Free energy of the ion-electron system (eV)
  ---------------------------------------------------
  alpha Z        PSCENC =         0.57280012
  Ewald energy   TEWEN  =       123.42262555
  -1/2 Hartree   DENC   =      -856.56611486
  -exchange  EXHF       =         0.00000000
  -V(xc)+E(xc)   XCENC  =        54.88459735
  PAW double counting   =       576.08729101     -579.51815477
  entropy T*S    EENTRO =        -0.05641896
  eigenvalues    EBANDS =      -191.60257050
  atomic energy  EATOM  =       864.00122898
  ---------------------------------------------------
  free energy    TOTEN  =        -8.77471607 eV

  energy without entropy =       -8.71829711  energy(sigma->0) =       -8.74650659


--------------------------------------------------------------------------------------------------------




----------------------------------------- Iteration    1(  16)  ---------------------------------------


    POTLOK:  cpu time    4.40: real time    5.45
    SETDIJ:  cpu time    0.03: real time    0.03
     EDDAV:  cpu time    2.47: real time    3.06
       DOS:  cpu time    0.00: real time    0.00
    CHARGE:  cpu time    0.93: real time    0.98
    MIXING:  cpu time    0.17: real time    0.20
    --------------------------------------------
      LOOP:  cpu time    8.00: real time    9.97

 eigenvalue-minimisations  :    22
 total energy-change (2. order) :-0.4172852E-04  (-0.1601662E-06)
 number of electron      11.9999999 magnetization 
 augmentation part        1.1057382 magnetization 

 Broyden mixing:
  rms(total) = 0.75455E-03    rms(broyden)= 0.74723E-03
  rms(prec ) = 0.83750E-03
  weight for this iteration     100.00

 eigenvalues of (default mixing * dielectric matrix)
  average eigenvalue GAMMA=   1.9963
  6.7014  3.1591  2.4954  2.0440  2.0440  0.1672  1.3085  1.3085  1.0297  0.7946
  0.9065

 Free energy of the ion-electron system (eV)
  ---------------------------------------------------
  alpha Z        PSCENC =         0.57280012
  Ewald energy   TEWEN  =       123.42262555
  -1/2 Hartree   DENC   =      -856.56785644
  -exchange  EXHF       =         0.00000000
  -V(xc)+E(xc)   XCENC  =        54.88453539
  PAW double counting   =       576.08888305     -579.51978717
  entropy T*S    EENTRO =        -0.05641896
  eigenvalues    EBANDS =      -191.60076833
  atomic energy  EATOM  =       864.00122898
  ---------------------------------------------------
  free energy    TOTEN  =        -8.77475780 eV

  energy without entropy =       -8.71833884  energy(sigma->0) =       -8.74654832


--------------------------------------------------------------------------------------------------------




----------------------------------------- Iteration    1(  17)  ---------------------------------------


    POTLOK:  cpu time    4.73: real time    5.67
    SETDIJ:  cpu time    0.01: real time    0.01
     EDDAV:  cpu time    2.19: real time    2.64
       DOS:  cpu time    0.00: real time    0.00
    CHARGE:  cpu time    0.67: real time    1.11
    MIXING:  cpu time    0.16: real time    0.16
    --------------------------------------------
      LOOP:  cpu time    7.76: real time    9.65

 eigenvalue-minimisations  :    20
 total energy-change (2. order) :-0.1256990E-04  (-0.1025802E-06)
 number of electron      11.9999999 magnetization 
 augmentation part        1.1057397 magnetization 

 Broyden mixing:
  rms(total) = 0.76947E-03    rms(broyden)= 0.69225E-03
  rms(prec ) = 0.76988E-03
  weight for this iteration     100.00
  WARNING: grid for Broyden might be to small

 eigenvalues of (default mixing * dielectric matrix)
  average eigenvalue GAMMA=   2.1235
  7.7018  4.0927  2.7657  2.5251  0.1672  1.7124  1.3819  1.2109  1.2109  0.7945
  0.9858  0.9324

 Free energy of the ion-electron system (eV)
  ---------------------------------------------------
  alpha Z        PSCENC =         0.57280012
  Ewald energy   TEWEN  =       123.42262555
  -1/2 Hartree   DENC   =      -856.56422672
  -exchange  EXHF       =         0.00000000
  -V(xc)+E(xc)   XCENC  =        54.88436538
  PAW double counting   =       576.07862742     -579.50949632
  entropy T*S    EENTRO =        -0.05641878
  eigenvalues    EBANDS =      -191.60427602
  atomic energy  EATOM  =       864.00122898
  ---------------------------------------------------
  free energy    TOTEN  =        -8.77477037 eV

  energy without entropy =       -8.71835159  energy(sigma->0) =       -8.74656098


--------------------------------------------------------------------------------------------------------




----------------------------------------- Iteration    1(  18)  ---------------------------------------


    POTLOK:  cpu time    3.97: real time    5.11
    SETDIJ:  cpu time    0.01: real time    0.01
     EDDAV:  cpu time    1.94: real time    2.37
       DOS:  cpu time    0.00: real time    0.00
    CHARGE:  cpu time    0.79: real time    0.92
    MIXING:  cpu time    0.16: real time    0.16
    --------------------------------------------
      LOOP:  cpu time    6.87: real time    8.60

 eigenvalue-minimisations  :    20
 total energy-change (2. order) :-0.9979795E-05  (-0.5097036E-07)
 number of electron      11.9999999 magnetization 
 augmentation part        1.1057404 magnetization 

 Broyden mixing:
  rms(total) = 0.13266E-03    rms(broyden)= 0.61995E-04
  rms(prec ) = 0.72076E-04
  weight for this iteration     100.00
  WARNING: grid for Broyden might be to small

 eigenvalues of (default mixing * dielectric matrix)
  average eigenvalue GAMMA=   2.1754
  8.0070  4.4856  2.9467  2.5068  0.1672  2.0834  1.8190  0.7932  1.3188  0.9138
  0.9978  1.1205  1.1205

 Free energy of the ion-electron system (eV)
  ---------------------------------------------------
  alpha Z        PSCENC =         0.57280012
  Ewald energy   TEWEN  =       123.42262555
  -1/2 Hartree   DENC   =      -856.56204947
  -exchange  EXHF       =         0.00000000
  -V(xc)+E(xc)   XCENC  =        54.88426704
  PAW double counting   =       576.07225053     -579.50311270
  entropy T*S    EENTRO =        -0.05641892
  eigenvalues    EBANDS =      -191.60637149
  atomic energy  EATOM  =       864.00122898
  ---------------------------------------------------
  free energy    TOTEN  =        -8.77478035 eV

  energy without entropy =       -8.71836142  energy(sigma->0) =       -8.74657089


--------------------------------------------------------------------------------------------------------




----------------------------------------- Iteration    1(  19)  ---------------------------------------


    POTLOK:  cpu time    4.32: real time    5.06
    SETDIJ:  cpu time    0.01: real time    0.01
     EDDAV:  cpu time    1.99: real time    2.30
       DOS:  cpu time    0.00: real time    0.00
    CHARGE:  cpu time    0.62: real time    0.62
    MIXING:  cpu time    0.15: real time    0.15
    --------------------------------------------
      LOOP:  cpu time    7.09: real time    8.14

 eigenvalue-minimisations  :    20
 total energy-change (2. order) :-0.8551262E-05  (-0.1112793E-07)
 number of electron      11.9999999 magnetization 
 augmentation part        1.1057396 magnetization 

 Broyden mixing:
  rms(total) = 0.84025E-04    rms(broyden)= 0.78918E-04
  rms(prec ) = 0.88175E-04
  weight for this iteration     100.00

 eigenvalues of (default mixing * dielectric matrix)
  average eigenvalue GAMMA=   2.2075
  8.3907  4.9759  3.1783  2.7059  2.5034  0.1672  1.7618  1.3080  1.1697  1.1697
  0.9710  0.9710  0.7931  0.8388

 Free energy of the ion-electron system (eV)
  ---------------------------------------------------
  alpha Z        PSCENC =         0.57280012
  Ewald energy   TEWEN  =       123.42262555
  -1/2 Hartree   DENC   =      -856.56196117
  -exchange  EXHF       =         0.00000000
  -V(xc)+E(xc)   XCENC  =        54.88426611
  PAW double counting   =       576.07366383     -579.50450794
  entropy T*S    EENTRO =        -0.05641892
  eigenvalues    EBANDS =      -191.60648547
  atomic energy  EATOM  =       864.00122898
  ---------------------------------------------------
  free energy    TOTEN  =        -8.77478890 eV

  energy without entropy =       -8.71836997  energy(sigma->0) =       -8.74657944


--------------------------------------------------------------------------------------------------------




----------------------------------------- Iteration    1(  20)  ---------------------------------------


    POTLOK:  cpu time    4.17: real time    4.81
    SETDIJ:  cpu time    0.01: real time    0.02
     EDDAV:  cpu time    2.15: real time    2.69
       DOS:  cpu time    0.00: real time    0.00
    CHARGE:  cpu time    0.68: real time    0.84
    MIXING:  cpu time    0.19: real time    0.19
    --------------------------------------------
      LOOP:  cpu time    7.20: real time    8.56

 eigenvalue-minimisations  :    24
 total energy-change (2. order) :-0.1068616E-05  (-0.1752328E-08)
 number of electron      11.9999999 magnetization 
 augmentation part        1.1057388 magnetization 

 Broyden mixing:
  rms(total) = 0.15691E-04    rms(broyden)= 0.65659E-05
  rms(prec ) = 0.82792E-05
  weight for this iteration     100.00
  WARNING: grid for Broyden might be to small

 eigenvalues of (default mixing * dielectric matrix)
  average eigenvalue GAMMA=   2.2477
  8.5360  5.2070  3.5699  2.7953  2.5146  0.1672  1.9680  1.8222  1.2386  1.2386
  1.0611  0.9696  0.9696  0.7933  0.8645

 Free energy of the ion-electron system (eV)
  ---------------------------------------------------
  alpha Z        PSCENC =         0.57280012
  Ewald energy   TEWEN  =       123.42262555
  -1/2 Hartree   DENC   =      -856.56189650
  -exchange  EXHF       =         0.00000000
  -V(xc)+E(xc)   XCENC  =        54.88427387
  PAW double counting   =       576.07567165     -579.50650999
  entropy T*S    EENTRO =        -0.05641891
  eigenvalues    EBANDS =      -191.60656476
  atomic energy  EATOM  =       864.00122898
  ---------------------------------------------------
  free energy    TOTEN  =        -8.77478997 eV

  energy without entropy =       -8.71837105  energy(sigma->0) =       -8.74658051


--------------------------------------------------------------------------------------------------------




----------------------------------------- Iteration    1(  21)  ---------------------------------------


    POTLOK:  cpu time    4.28: real time    5.17
    SETDIJ:  cpu time    0.01: real time    0.06
     EDDAV:  cpu time    2.09: real time    2.69
       DOS:  cpu time    0.00: real time    0.00
    CHARGE:  cpu time    0.56: real time    0.62
    MIXING:  cpu time    0.15: real time    0.15
    --------------------------------------------
      LOOP:  cpu time    7.09: real time    8.76

 eigenvalue-minimisations  :    24
 total energy-change (2. order) :-0.4658800E-06  (-0.3461948E-09)
 number of electron      11.9999999 magnetization 
 augmentation part        1.1057390 magnetization 

 Broyden mixing:
  rms(total) = 0.19007E-04    rms(broyden)= 0.18025E-04
  rms(prec ) = 0.20052E-04
  weight for this iteration     100.00

 eigenvalues of (default mixing * dielectric matrix)
  average eigenvalue GAMMA=   2.2245
  8.6228  5.3730  3.6917  2.8436  2.5019  2.4303  0.1672  1.7925  1.2037  1.2037
  0.7931  1.0604  1.0604  0.9724  0.9724  0.9036

 Free energy of the ion-electron system (eV)
  ---------------------------------------------------
  alpha Z        PSCENC =         0.57280012
  Ewald energy   TEWEN  =       123.42262555
  -1/2 Hartree   DENC   =      -856.56186399
  -exchange  EXHF       =         0.00000000
  -V(xc)+E(xc)   XCENC  =        54.88427181
  PAW double counting   =       576.07570009     -579.50654078
  entropy T*S    EENTRO =        -0.05641891
  eigenvalues    EBANDS =      -191.60659331
  atomic energy  EATOM  =       864.00122898
  ---------------------------------------------------
  free energy    TOTEN  =        -8.77479043 eV

  energy without entropy =       -8.71837152  energy(sigma->0) =       -8.74658098


--------------------------------------------------------------------------------------------------------




----------------------------------------- Iteration    1(  22)  ---------------------------------------


    POTLOK:  cpu time    3.38: real time    3.84
    SETDIJ:  cpu time    0.01: real time    0.01
     EDDAV:  cpu time    2.05: real time    2.20
       DOS:  cpu time    0.00: real time    0.00
    CHARGE:  cpu time    0.63: real time    0.69
    MIXING:  cpu time    0.17: real time    0.18
    --------------------------------------------
      LOOP:  cpu time    6.23: real time    6.93

 eigenvalue-minimisations  :    24
 total energy-change (2. order) :-0.1718672E-07  (-0.6096360E-10)
 number of electron      11.9999999 magnetization 
 augmentation part        1.1057392 magnetization 

 Broyden mixing:
  rms(total) = 0.31515E-05    rms(broyden)= 0.74677E-06
  rms(prec ) = 0.13363E-05
  weight for this iteration     100.00
  WARNING: grid for Broyden might be to small

 eigenvalues of (default mixing * dielectric matrix)
  average eigenvalue GAMMA=   2.2878
  8.6553  5.5354  4.1154  2.9807  2.8513  2.5032  0.1672  2.1029  1.8038  1.2487
  1.2487  0.7932  1.0351  1.0351  0.9546  0.9546  0.9073

 Free energy of the ion-electron system (eV)
  ---------------------------------------------------
  alpha Z        PSCENC =         0.57280012
  Ewald energy   TEWEN  =       123.42262555
  -1/2 Hartree   DENC   =      -856.56180304
  -exchange  EXHF       =         0.00000000
  -V(xc)+E(xc)   XCENC  =        54.88426884
  PAW double counting   =       576.07524426     -579.50608941
  entropy T*S    EENTRO =        -0.05641892
  eigenvalues    EBANDS =      -191.60664684
  atomic energy  EATOM  =       864.00122898
  ---------------------------------------------------
  free energy    TOTEN  =        -8.77479045 eV

  energy without entropy =       -8.71837154  energy(sigma->0) =       -8.74658099


--------------------------------------------------------------------------------------------------------




----------------------------------------- Iteration    1(  23)  ---------------------------------------


    POTLOK:  cpu time    3.63: real time    4.94
    SETDIJ:  cpu time    0.01: real time    0.01
     EDDAV:  cpu time    2.40: real time    2.74
       DOS:  cpu time    0.00: real time    0.00
    CHARGE:  cpu time    0.79: real time    1.32
    MIXING:  cpu time    0.21: real time    0.28
    --------------------------------------------
      LOOP:  cpu time    7.03: real time    9.37

 eigenvalue-minimisations  :    24
 total energy-change (2. order) :-0.3183163E-07  (-0.1382161E-10)
 number of electron      11.9999999 magnetization 
 augmentation part        1.1057391 magnetization 

 Broyden mixing:
  rms(total) = 0.78128E-06    rms(broyden)= 0.43998E-06
  rms(prec ) = 0.83781E-06
  weight for this iteration     100.00
  WARNING: grid for Broyden might be to small

 eigenvalues of (default mixing * dielectric matrix)
  average eigenvalue GAMMA=   2.2359
  8.6581  5.5965  4.1426  3.1049  2.6662  2.5028  2.2982  0.1672  1.8011  1.2436
  1.2436  1.1210  1.1210  0.7932  0.9758  0.9758  0.9177  0.9177

 Free energy of the ion-electron system (eV)
  ---------------------------------------------------
  alpha Z        PSCENC =         0.57280012
  Ewald energy   TEWEN  =       123.42262555
  -1/2 Hartree   DENC   =      -856.56182457
  -exchange  EXHF       =         0.00000000
  -V(xc)+E(xc)   XCENC  =        54.88427045
  PAW double counting   =       576.07532018     -579.50616464
  entropy T*S    EENTRO =        -0.05641892
  eigenvalues    EBANDS =      -191.60662764
  atomic energy  EATOM  =       864.00122898
  ---------------------------------------------------
  free energy    TOTEN  =        -8.77479048 eV

  energy without entropy =       -8.71837157  energy(sigma->0) =       -8.74658102


--------------------------------------------------------------------------------------------------------




----------------------------------------- Iteration    1(  24)  ---------------------------------------


    POTLOK:  cpu time    4.01: real time    5.04
    SETDIJ:  cpu time    0.01: real time    0.01
     EDDAV:  cpu time    2.13: real time    2.33
       DOS:  cpu time    0.00: real time    0.00
    --------------------------------------------
      LOOP:  cpu time    6.15: real time    7.39

 eigenvalue-minimisations  :    24
 total energy-change (2. order) :-0.2652655E-08  (-0.2589926E-12)
 number of electron      11.9999999 magnetization 
 augmentation part        1.1057391 magnetization 

 Free energy of the ion-electron system (eV)
  ---------------------------------------------------
  alpha Z        PSCENC =         0.57280012
  Ewald energy   TEWEN  =       123.42262555
  -1/2 Hartree   DENC   =      -856.56180571
  -exchange  EXHF       =         0.00000000
  -V(xc)+E(xc)   XCENC  =        54.88427018
  PAW double counting   =       576.07533366     -579.50617757
  entropy T*S    EENTRO =        -0.05641892
  eigenvalues    EBANDS =      -191.60664680
  atomic energy  EATOM  =       864.00122898
  ---------------------------------------------------
  free energy    TOTEN  =        -8.77479048 eV

  energy without entropy =       -8.71837157  energy(sigma->0) =       -8.74658103


--------------------------------------------------------------------------------------------------------




 average (electrostatic) potential at core
  the test charge radii are     0.7215
  (the norm of the test charge is              1.0000)
       1 -84.2394       2 -84.2394
 
 
 
 E-fermi :  -5.9718     XC(G=0):  -0.6574     alpha+bet : -0.1544


 k-point   1 :       0.0000    0.0000    0.0000
  band No.  band energies     occupation 
      1     -31.9832      2.00000
      2     -19.9449      2.00000
      3     -13.0250      2.00000
      4     -12.4393      2.00000
      5     -12.4391      2.00000
      6      -5.9718      1.00099
      7      -5.9717      0.99901
      8      -0.3140      0.00000
      9       0.9232      0.00000
     10       1.1258      0.00000


--------------------------------------------------------------------------------------------------------


 soft charge-density along one line, spin component           1
         0         1         2         3         4         5         6         7         8         9
 total charge-density along one line
 
 pseudopotential strength for first ion, spin component:           1
 14.348  -0.623   0.000   0.000  -0.128   0.000   0.000   0.006
 -0.623   0.140   0.000   0.000   0.016   0.000   0.000  -0.003
  0.000   0.000 -11.221   0.000   0.000   0.484   0.000   0.000
  0.000   0.000   0.000 -11.221   0.000   0.000   0.484   0.000
 -0.128   0.016   0.000   0.000 -11.397   0.000   0.000   0.512
  0.000   0.000   0.484   0.000   0.000   0.065   0.000   0.000
  0.000   0.000   0.000   0.484   0.000   0.000   0.065   0.000
  0.006  -0.003   0.000   0.000   0.512   0.000   0.000   0.057
 total augmentation occupancy for first ion, spin component:           1
  1.976   0.147   0.000   0.000  -0.196   0.000   0.000   0.028
  0.147   0.062   0.000   0.000   0.176   0.000   0.000   0.068
  0.000   0.000   1.521   0.000   0.000   0.094   0.000   0.000
  0.000   0.000   0.000   1.522   0.000   0.000   0.093   0.000
 -0.196   0.176   0.000   0.000   1.329   0.000   0.000   0.283
  0.000   0.000   0.094   0.000   0.000   0.017   0.000   0.000
  0.000   0.000   0.000   0.093   0.000   0.000   0.017   0.000
  0.028   0.068   0.000   0.000   0.283   0.000   0.000   0.087


------------------------ aborting loop because EDIFF is reached ----------------------------------------


    CHARGE:  cpu time    0.62: real time    0.63
    FORLOC:  cpu time    0.15: real time    0.16
    FORNL :  cpu time    0.07: real time    0.07
    STRESS:  cpu time    0.51: real time    0.62
    FORHAR:  cpu time    1.24: real time    1.49
    MIXING:  cpu time    0.16: real time    0.16

  FORCE on cell =-STRESS in cart. coord.  units (eV):
  Direction    XX          YY          ZZ          XY          YZ          ZX
  --------------------------------------------------------------------------------------
  Alpha Z     0.57280     0.57280     0.57280
  Ewald     326.12212   -99.85009  -102.84952     0.00000     0.00000     0.00000
  Hartree   420.94251   219.26206   216.35720     0.00000     0.00000     0.00000
  E(xc)     -57.25536   -58.48197   -58.48150     0.00000     0.00000     0.00000
  Local    -888.37683  -305.26524  -299.39484     0.00000     0.00000     0.00000
  n-local   -48.51239   -45.09784   -45.10455     0.00000     0.00000     0.00000
  augment    10.00142    12.70903    12.71769     0.00000     0.00000     0.00000
  Kinetic   232.82713   271.72044   271.78893     0.00000     0.00000     0.00000
  Fock        0.00000     0.00000     0.00000     0.00000     0.00000     0.00000
  -------------------------------------------------------------------------------------
  Total      -3.67860    -4.43081    -4.39378     0.00000     0.00000     0.00000
  in kB      -6.07480    -7.31699    -7.25584     0.00000     0.00000     0.00000
  external pressure =       -6.88 kB  Pullay stress =        0.00 kB


 VOLUME and BASIS-vectors are now :
 -----------------------------------------------------------------------------
  energy-cutoff  :      350.00
  volume of cell :      970.20
      direct lattice vectors                 reciprocal lattice vectors
     9.800000000  0.000000000  0.000000000     0.102040816  0.000000000  0.000000000
     0.000000000  9.900000000  0.000000000     0.000000000  0.101010101  0.000000000
     0.000000000  0.000000000 10.000000000     0.000000000  0.000000000  0.100000000

  length of vectors
     9.800000000  9.900000000 10.000000000     0.102040816  0.101010101  0.100000000


 FORCES acting on ions
    electron-ion (+dipol)            ewald-force                    non-local-force                 convergence-correction
 -----------------------------------------------------------------------------------------------
   0.283E+03 -.769E-12 0.159E-05   -.335E+03 0.180E-16 0.158E-17   0.519E+02 0.000E+00 0.000E+00   0.414E-05 0.818E-13 -.101E-12
   -.283E+03 0.938E-12 -.159E-05   0.335E+03 0.420E-16 -.546E-16   -.519E+02 0.000E+00 0.000E+00   -.414E-05 0.929E-13 -.726E-14
 -----------------------------------------------------------------------------------------------
   0.568E-13 0.169E-12 0.985E-12   0.000E+00 0.600E-16 -.530E-16   0.000E+00 0.000E+00 0.000E+00   0.297E-13 0.175E-12 -.108E-12
 
 
 POSITION                                       TOTAL-FORCE (eV/Angst)
 -----------------------------------------------------------------------------------
      4.28096      4.95000      5.00000        -0.018406      0.000000      0.000000
      5.51904      4.95000      5.00000         0.018406      0.000000      0.000000
 -----------------------------------------------------------------------------------
    total drift:                                0.000000      0.000000      0.000000


--------------------------------------------------------------------------------------------------------



  FREE ENERGIE OF THE ION-ELECTRON SYSTEM (eV)
  ---------------------------------------------------
  free  energy   TOTEN  =        -8.774790 eV

  energy  without entropy=       -8.718372  energy(sigma->0) =       -8.746581
 


--------------------------------------------------------------------------------------------------------


    POTLOK:  cpu time    4.72: real time    5.94


--------------------------------------------------------------------------------------------------------


 
 
Found     3 degrees of freedom:
 
 
        Directions for atom     1:
        --------------------------
 
              1.0000000000000000      0.0000000000000000      0.0000000000000000
              0.0000000000000000      1.0000000000000000      0.0000000000000000
              0.0000000000000000      0.0000000000000000      1.0000000000000000
 Finite differences:
   Step               POTIM =   1.500000000000000E-002
   Degrees of freedom DOF   =            3
  LATTYP: Found a simple orthorhombic cell.
 ALAT       =     9.8000000000
 B/A-ratio  =     1.0102040816
 C/A-ratio  =     1.0204081633
  
  Lattice vectors:
  
 A1 = (   9.8000000000,   0.0000000000,   0.0000000000)
 A2 = (   0.0000000000,   9.9000000000,   0.0000000000)
 A3 = (   0.0000000000,   0.0000000000,  10.0000000000)
 Subroutine PRICEL returns:
 Original cell was already a primitive cell.
 

Analysis of symmetry for initial positions (statically):

 Routine SETGRP: Setting up the symmetry group for a 
 simple orthorhombic supercell.


 Subroutine GETGRP returns: Found  8 space group operations
 (whereof  4 operations were pure point group operations)
 out of a pool of  8 trial point group operations.


The static configuration has the point symmetry C_2v.
 The point group associated with its full space group is D_2h.

Analysis of symmetry for dynamics (positions and initial velocities):

 Subroutine DYNSYM returns: Found  8 space group operations
 (whereof  4 operations were pure point group operations)
 out of a pool of  8 trial space group operations
 (whereof  4 operations were pure point group operations)
 and found also     1 'primitive' translations


The dynamic configuration has the point symmetry C_2v.
 The point group associated with its full space group is D_2h.
 
 KPOINTS: KPOINTS created by Atomic Simulation Env

Automatic generation of k-mesh.
 
 Subroutine IBZKPT returns following result:
 ===========================================
 
 Found      1 irreducible k-points:
 
 Following reciprocal coordinates:
            Coordinates               Weight
  0.000000  0.000000  0.000000      1.000000
 
 Following cartesian coordinates:
            Coordinates               Weight
  0.000000  0.000000  0.000000      1.000000
 
    WAVPRE:  cpu time    0.40: real time    0.66
    FEWALD:  cpu time    0.00: real time    0.00
    ORTHCH:  cpu time    0.02: real time    0.02
     LOOP+:  cpu time  170.38: real time  213.96


----------------------------------------- Iteration    2(   1)  ---------------------------------------


    POTLOK:  cpu time    4.46: real time    5.66
    SETDIJ:  cpu time    0.01: real time    0.01
     EDDAV:  cpu time    2.54: real time    2.88
       DOS:  cpu time    0.00: real time    0.00
    CHARGE:  cpu time    0.72: real time    0.77
    MIXING:  cpu time    0.13: real time    0.14
    --------------------------------------------
      LOOP:  cpu time    7.86: real time    9.45

 eigenvalue-minimisations  :    24
 total energy-change (2. order) : 0.8425115E-02  (-0.1176827E+00)
 number of electron      11.9999999 magnetization 
 augmentation part        1.1160291 magnetization 

 Broyden mixing:
  rms(total) = 0.26195E-01    rms(broyden)= 0.24714E-01
  rms(prec ) = 0.27791E-01
  weight for this iteration     100.00

 Free energy of the ion-electron system (eV)
  ---------------------------------------------------
  alpha Z        PSCENC =         0.57280012
  Ewald energy   TEWEN  =       128.51249270
  -1/2 Hartree   DENC   =      -860.28108690
  -exchange  EXHF       =         0.00000000
  -V(xc)+E(xc)   XCENC  =        54.95083190
  PAW double counting   =       576.07527327     -579.50611686
  entropy T*S    EENTRO =        -0.05641889
  eigenvalues    EBANDS =      -193.03536967
  atomic energy  EATOM  =       864.00122898
  ---------------------------------------------------
  free energy    TOTEN  =        -8.76636537 eV

  energy without entropy =       -8.70994647  energy(sigma->0) =       -8.73815592


--------------------------------------------------------------------------------------------------------




----------------------------------------- Iteration    2(   2)  ---------------------------------------


    POTLOK:  cpu time    4.76: real time    5.51
    SETDIJ:  cpu time    0.01: real time    0.01
     EDDAV:  cpu time    2.39: real time    2.93
       DOS:  cpu time    0.00: real time    0.00
    CHARGE:  cpu time    0.90: real time    1.06
    MIXING:  cpu time    0.13: real time    0.13
    --------------------------------------------
      LOOP:  cpu time    8.19: real time    9.64

 eigenvalue-minimisations  :    22
 total energy-change (2. order) : 0.1249699E-03  (-0.1306663E-02)
 number of electron      11.9999999 magnetization 
 augmentation part        1.1161838 magnetization 

 Broyden mixing:
  rms(total) = 0.13968E-01    rms(broyden)= 0.13870E-01
  rms(prec ) = 0.15563E-01
  weight for this iteration     100.00

 eigenvalues of (default mixing * dielectric matrix)
  average eigenvalue GAMMA=   1.8448
  1.8448

 Free energy of the ion-electron system (eV)
  ---------------------------------------------------
  alpha Z        PSCENC =         0.57280012
  Ewald energy   TEWEN  =       128.51249270
  -1/2 Hartree   DENC   =      -860.68123780
  -exchange  EXHF       =         0.00000000
  -V(xc)+E(xc)   XCENC  =        54.97699723
  PAW double counting   =       578.31080687     -581.75021726
  entropy T*S    EENTRO =        -0.05641896
  eigenvalues    EBANDS =      -192.65269229
  atomic energy  EATOM  =       864.00122898
  ---------------------------------------------------
  free energy    TOTEN  =        -8.76624040 eV

  energy without entropy =       -8.70982144  energy(sigma->0) =       -8.73803092


--------------------------------------------------------------------------------------------------------




----------------------------------------- Iteration    2(   3)  ---------------------------------------


    POTLOK:  cpu time    5.05: real time    6.70
    SETDIJ:  cpu time    0.01: real time    0.01
     EDDAV:  cpu time    1.91: real time    3.13
       DOS:  cpu time    0.00: real time    0.00
    CHARGE:  cpu time    0.61: real time    0.67
    MIXING:  cpu time    0.11: real time    0.17
    --------------------------------------------
      LOOP:  cpu time    7.69: real time   10.68

 eigenvalue-minimisations  :    24
 total energy-change (2. order) :-0.1922249E-03  (-0.1988100E-03)
 number of electron      12.0000000 magnetization 
 augmentation part        1.1146846 magnetization 

 Broyden mixing:
  rms(total) = 0.86209E-02    rms(broyden)= 0.83794E-02
  rms(prec ) = 0.94060E-02
  weight for this iteration     100.00

 eigenvalues of (default mixing * dielectric matrix)
  average eigenvalue GAMMA=   1.1977
  1.8528  0.5426

 Free energy of the ion-electron system (eV)
  ---------------------------------------------------
  alpha Z        PSCENC =         0.57280012
  Ewald energy   TEWEN  =       128.51249270
  -1/2 Hartree   DENC   =      -861.08708249
  -exchange  EXHF       =         0.00000000
  -V(xc)+E(xc)   XCENC  =        55.00210245
  PAW double counting   =       580.62810050     -584.07945183
  entropy T*S    EENTRO =        -0.05641248
  eigenvalues    EBANDS =      -192.26021057
  atomic energy  EATOM  =       864.00122898
  ---------------------------------------------------
  free energy    TOTEN  =        -8.76643262 eV

  energy without entropy =       -8.71002014  energy(sigma->0) =       -8.73822638


--------------------------------------------------------------------------------------------------------




----------------------------------------- Iteration    2(   4)  ---------------------------------------


    POTLOK:  cpu time    5.03: real time    6.04
    SETDIJ:  cpu time    0.01: real time    0.01
     EDDAV:  cpu time    2.19: real time    3.04
       DOS:  cpu time    0.00: real time    0.00
    CHARGE:  cpu time    0.94: real time    1.07
    MIXING:  cpu time    0.11: real time    0.11
    --------------------------------------------
      LOOP:  cpu time    8.28: real time   10.29

 eigenvalue-minimisations  :    20
 total energy-change (2. order) : 0.1814034E-03  (-0.5016071E-04)
 number of electron      11.9999999 magnetization 
 augmentation part        1.1148796 magnetization 

 Broyden mixing:
  rms(total) = 0.15263E-01    rms(broyden)= 0.14444E-01
  rms(prec ) = 0.16053E-01
  weight for this iteration     100.00

 eigenvalues of (default mixing * dielectric matrix)
  average eigenvalue GAMMA=   1.0281
  1.7659  1.1341  0.1844

 Free energy of the ion-electron system (eV)
  ---------------------------------------------------
  alpha Z        PSCENC =         0.57280012
  Ewald energy   TEWEN  =       128.51249270
  -1/2 Hartree   DENC   =      -861.03786589
  -exchange  EXHF       =         0.00000000
  -V(xc)+E(xc)   XCENC  =        54.99940958
  PAW double counting   =       580.64627027     -584.09706565
  entropy T*S    EENTRO =        -0.05640069
  eigenvalues    EBANDS =      -192.30712064
  atomic energy  EATOM  =       864.00122898
  ---------------------------------------------------
  free energy    TOTEN  =        -8.76625122 eV

  energy without entropy =       -8.70985053  energy(sigma->0) =       -8.73805087


--------------------------------------------------------------------------------------------------------




----------------------------------------- Iteration    2(   5)  ---------------------------------------


    POTLOK:  cpu time    4.01: real time    4.99
    SETDIJ:  cpu time    0.01: real time    0.01
     EDDAV:  cpu time    2.21: real time    2.49
       DOS:  cpu time    0.00: real time    0.00
    CHARGE:  cpu time    0.81: real time    0.88
    MIXING:  cpu time    0.17: real time    0.27
    --------------------------------------------
      LOOP:  cpu time    7.21: real time    8.66

 eigenvalue-minimisations  :    20
 total energy-change (2. order) : 0.3816120E-03  (-0.2416983E-04)
 number of electron      11.9999999 magnetization 
 augmentation part        1.1150215 magnetization 

 Broyden mixing:
  rms(total) = 0.45085E-02    rms(broyden)= 0.32141E-02
  rms(prec ) = 0.35685E-02
  weight for this iteration     100.00
  WARNING: grid for Broyden might be to small

 eigenvalues of (default mixing * dielectric matrix)
  average eigenvalue GAMMA=   1.2822
  2.5428  1.4441  0.9690  0.1728

 Free energy of the ion-electron system (eV)
  ---------------------------------------------------
  alpha Z        PSCENC =         0.57280012
  Ewald energy   TEWEN  =       128.51249270
  -1/2 Hartree   DENC   =      -860.98025725
  -exchange  EXHF       =         0.00000000
  -V(xc)+E(xc)   XCENC  =        54.99634040
  PAW double counting   =       580.64290891     -584.09302593
  entropy T*S    EENTRO =        -0.05641787
  eigenvalues    EBANDS =      -192.36193968
  atomic energy  EATOM  =       864.00122898
  ---------------------------------------------------
  free energy    TOTEN  =        -8.76586961 eV

  energy without entropy =       -8.70945174  energy(sigma->0) =       -8.73766067


--------------------------------------------------------------------------------------------------------




----------------------------------------- Iteration    2(   6)  ---------------------------------------


    POTLOK:  cpu time    5.15: real time    7.21
    SETDIJ:  cpu time    0.01: real time    0.01
     EDDAV:  cpu time    1.95: real time    2.64
       DOS:  cpu time    0.00: real time    0.00
    CHARGE:  cpu time    0.77: real time    0.96
    MIXING:  cpu time    0.12: real time    0.12
    --------------------------------------------
      LOOP:  cpu time    8.00: real time   10.96

 eigenvalue-minimisations  :    20
 total energy-change (2. order) :-0.6187018E-03  (-0.8067197E-05)
 number of electron      11.9999999 magnetization 
 augmentation part        1.1150679 magnetization 

 Broyden mixing:
  rms(total) = 0.25293E-02    rms(broyden)= 0.24536E-02
  rms(prec ) = 0.27304E-02
  weight for this iteration     100.00

 eigenvalues of (default mixing * dielectric matrix)
  average eigenvalue GAMMA=   1.3003
  2.5502  1.4024  1.4024  0.9747  0.1717

 Free energy of the ion-electron system (eV)
  ---------------------------------------------------
  alpha Z        PSCENC =         0.57280012
  Ewald energy   TEWEN  =       128.51249270
  -1/2 Hartree   DENC   =      -860.95332786
  -exchange  EXHF       =         0.00000000
  -V(xc)+E(xc)   XCENC  =        54.99458008
  PAW double counting   =       580.97427902     -584.42516842
  entropy T*S    EENTRO =        -0.05641865
  eigenvalues    EBANDS =      -192.38695428
  atomic energy  EATOM  =       864.00122898
  ---------------------------------------------------
  free energy    TOTEN  =        -8.76648831 eV

  energy without entropy =       -8.71006966  energy(sigma->0) =       -8.73827899


--------------------------------------------------------------------------------------------------------




----------------------------------------- Iteration    2(   7)  ---------------------------------------


    POTLOK:  cpu time    4.27: real time    5.19
    SETDIJ:  cpu time    0.01: real time    0.01
     EDDAV:  cpu time    2.41: real time    2.92
       DOS:  cpu time    0.00: real time    0.00
    CHARGE:  cpu time    0.62: real time    0.78
    MIXING:  cpu time    0.12: real time    0.12
    --------------------------------------------
      LOOP:  cpu time    7.43: real time    9.03

 eigenvalue-minimisations  :    24
 total energy-change (2. order) : 0.4873141E-04  (-0.1275756E-05)
 number of electron      11.9999999 magnetization 
 augmentation part        1.1150620 magnetization 

 Broyden mixing:
  rms(total) = 0.84989E-03    rms(broyden)= 0.57938E-03
  rms(prec ) = 0.66679E-03
  weight for this iteration     100.00
  WARNING: grid for Broyden might be to small

 eigenvalues of (default mixing * dielectric matrix)
  average eigenvalue GAMMA=   1.4108
  2.5708  2.3636  1.4219  1.0112  0.9259  0.1716

 Free energy of the ion-electron system (eV)
  ---------------------------------------------------
  alpha Z        PSCENC =         0.57280012
  Ewald energy   TEWEN  =       128.51249270
  -1/2 Hartree   DENC   =      -860.95460741
  -exchange  EXHF       =         0.00000000
  -V(xc)+E(xc)   XCENC  =        54.99470923
  PAW double counting   =       580.98147197     -584.43235922
  entropy T*S    EENTRO =        -0.05641880
  eigenvalues    EBANDS =      -192.38575715
  atomic energy  EATOM  =       864.00122898
  ---------------------------------------------------
  free energy    TOTEN  =        -8.76643958 eV

  energy without entropy =       -8.71002078  energy(sigma->0) =       -8.73823018


--------------------------------------------------------------------------------------------------------




----------------------------------------- Iteration    2(   8)  ---------------------------------------


    POTLOK:  cpu time    4.39: real time    5.86
    SETDIJ:  cpu time    0.01: real time    0.01
     EDDAV:  cpu time    2.36: real time    2.69
       DOS:  cpu time    0.00: real time    0.00
    CHARGE:  cpu time    0.79: real time    0.99
    MIXING:  cpu time    0.14: real time    0.21
    --------------------------------------------
      LOOP:  cpu time    7.69: real time    9.83

 eigenvalue-minimisations  :    20
 total energy-change (2. order) :-0.5964026E-04  (-0.1764861E-06)
 number of electron      11.9999999 magnetization 
 augmentation part        1.1150582 magnetization 

 Broyden mixing:
[...]
       DOS:  cpu time    0.00: real time    0.00
    CHARGE:  cpu time    0.71: real time    0.83
    MIXING:  cpu time    0.14: real time    0.21
    --------------------------------------------
      LOOP:  cpu time    7.06: real time    8.80

 eigenvalue-minimisations  :    20
 total energy-change (2. order) :-0.7741581E-06  (-0.1536860E-08)
 number of electron      11.9999995 magnetization 
 augmentation part        1.1056835 magnetization 

 Broyden mixing:
  rms(total) = 0.33315E-04    rms(broyden)= 0.32093E-04
  rms(prec ) = 0.35842E-04
  weight for this iteration     100.00

 eigenvalues of (default mixing * dielectric matrix)
  average eigenvalue GAMMA=   1.7048
  4.5243  3.0047  2.5427  0.1636  1.7776  1.4032  1.4032  0.9003  0.9003  1.0667
  1.0667

 Free energy of the ion-electron system (eV)
  ---------------------------------------------------
  alpha Z        PSCENC =         0.57280012
  Ewald energy   TEWEN  =       123.39212239
  -1/2 Hartree   DENC   =      -856.53543060
  -exchange  EXHF       =         0.00000000
  -V(xc)+E(xc)   XCENC  =        54.88361452
  PAW double counting   =       576.04659727     -579.47732540
  entropy T*S    EENTRO =        -0.05641891
  eigenvalues    EBANDS =      -191.60197256
  atomic energy  EATOM  =       864.00122898
  ---------------------------------------------------
  free energy    TOTEN  =        -8.77478418 eV

  energy without entropy =       -8.71836527  energy(sigma->0) =       -8.74657473


--------------------------------------------------------------------------------------------------------




----------------------------------------- Iteration    7(  13)  ---------------------------------------


    POTLOK:  cpu time    4.21: real time    5.17
    SETDIJ:  cpu time    0.01: real time    0.01
     EDDAV:  cpu time    1.55: real time    1.69
       DOS:  cpu time    0.00: real time    0.00
    CHARGE:  cpu time    0.80: real time    0.95
    MIXING:  cpu time    0.16: real time    0.16
    --------------------------------------------
      LOOP:  cpu time    6.73: real time    7.99

 eigenvalue-minimisations  :    22
 total energy-change (2. order) : 0.4264757E-07  (-0.2753732E-09)
 number of electron      11.9999995 magnetization 
 augmentation part        1.1056836 magnetization 

 Broyden mixing:
  rms(total) = 0.62624E-05    rms(broyden)= 0.24870E-05
  rms(prec ) = 0.32512E-05
  weight for this iteration     100.00
  WARNING: grid for Broyden might be to small

 eigenvalues of (default mixing * dielectric matrix)
  average eigenvalue GAMMA=   1.7422
  5.1574  2.9896  2.5461  0.1636  1.8484  1.8484  1.2590  1.2590  1.0758  0.8761
  0.9418  0.9418

 Free energy of the ion-electron system (eV)
  ---------------------------------------------------
  alpha Z        PSCENC =         0.57280012
  Ewald energy   TEWEN  =       123.39212239
  -1/2 Hartree   DENC   =      -856.53536686
  -exchange  EXHF       =         0.00000000
  -V(xc)+E(xc)   XCENC  =        54.88361181
  PAW double counting   =       576.04650491     -579.47723222
  entropy T*S    EENTRO =        -0.05641892
  eigenvalues    EBANDS =      -191.60203435
  atomic energy  EATOM  =       864.00122898
  ---------------------------------------------------
  free energy    TOTEN  =        -8.77478414 eV

  energy without entropy =       -8.71836523  energy(sigma->0) =       -8.74657468


--------------------------------------------------------------------------------------------------------




----------------------------------------- Iteration    7(  14)  ---------------------------------------


    POTLOK:  cpu time    4.42: real time    5.51
    SETDIJ:  cpu time    0.01: real time    0.01
     EDDAV:  cpu time    2.02: real time    2.57
       DOS:  cpu time    0.00: real time    0.00
    CHARGE:  cpu time    0.60: real time    0.71
    MIXING:  cpu time    0.19: real time    0.28
    --------------------------------------------
      LOOP:  cpu time    7.25: real time    9.08

 eigenvalue-minimisations  :    24
 total energy-change (2. order) :-0.1002436E-06  (-0.6563515E-10)
 number of electron      11.9999995 magnetization 
 augmentation part        1.1056836 magnetization 

 Broyden mixing:
  rms(total) = 0.88951E-05    rms(broyden)= 0.81164E-05
  rms(prec ) = 0.90746E-05
  weight for this iteration     100.00

 eigenvalues of (default mixing * dielectric matrix)
  average eigenvalue GAMMA=   1.8194
  5.5414  2.9323  2.9323  2.5297  0.1636  1.7274  1.4595  1.4595  1.0674  1.0674
  0.9477  0.9477  0.8763

 Free energy of the ion-electron system (eV)
  ---------------------------------------------------
  alpha Z        PSCENC =         0.57280012
  Ewald energy   TEWEN  =       123.39212239
  -1/2 Hartree   DENC   =      -856.53533992
  -exchange  EXHF       =         0.00000000
  -V(xc)+E(xc)   XCENC  =        54.88361045
  PAW double counting   =       576.04645151     -579.47717820
  entropy T*S    EENTRO =        -0.05641892
  eigenvalues    EBANDS =      -191.60206066
  atomic energy  EATOM  =       864.00122898
  ---------------------------------------------------
  free energy    TOTEN  =        -8.77478424 eV

  energy without entropy =       -8.71836532  energy(sigma->0) =       -8.74657478


--------------------------------------------------------------------------------------------------------




----------------------------------------- Iteration    7(  15)  ---------------------------------------


    POTLOK:  cpu time    4.50: real time    5.08
    SETDIJ:  cpu time    0.01: real time    0.01
     EDDAV:  cpu time    2.00: real time    2.66
       DOS:  cpu time    0.00: real time    0.00
    --------------------------------------------
      LOOP:  cpu time    6.51: real time    7.77

 eigenvalue-minimisations  :    24
 total energy-change (2. order) :-0.4663093E-08  (-0.8407747E-11)
 number of electron      11.9999995 magnetization 
 augmentation part        1.1056836 magnetization 

 Free energy of the ion-electron system (eV)
  ---------------------------------------------------
  alpha Z        PSCENC =         0.57280012
  Ewald energy   TEWEN  =       123.39212239
  -1/2 Hartree   DENC   =      -856.53535121
  -exchange  EXHF       =         0.00000000
  -V(xc)+E(xc)   XCENC  =        54.88361127
  PAW double counting   =       576.04647130     -579.47719827
  entropy T*S    EENTRO =        -0.05641892
  eigenvalues    EBANDS =      -191.60204992
  atomic energy  EATOM  =       864.00122898
  ---------------------------------------------------
  free energy    TOTEN  =        -8.77478425 eV

  energy without entropy =       -8.71836533  energy(sigma->0) =       -8.74657479


--------------------------------------------------------------------------------------------------------




 average (electrostatic) potential at core
  the test charge radii are     0.7215
  (the norm of the test charge is              1.0000)
       1 -84.2393       2 -84.2393
 
 
 
 E-fermi :  -5.9725     XC(G=0):  -0.6575     alpha+bet : -0.1544


 k-point   1 :       0.0000    0.0000    0.0000
  band No.  band energies     occupation 
      1     -31.9813      2.00000
      2     -19.9456      2.00000
      3     -13.0248      2.00000
      4     -12.4385      2.00000
      5     -12.4383      2.00000
      6      -5.9725      1.00099
      7      -5.9724      0.99901
      8      -0.3140      0.00000
      9       0.9229      0.00000
     10       1.1258      0.00000


--------------------------------------------------------------------------------------------------------


 soft charge-density along one line, spin component           1
         0         1         2         3         4         5         6         7         8         9
 total charge-density along one line
 
 pseudopotential strength for first ion, spin component:           1
 14.348  -0.623   0.000  -0.002  -0.128   0.000   0.000   0.006
 -0.623   0.140   0.000   0.000   0.016   0.000   0.000  -0.003
  0.000   0.000 -11.221   0.000   0.000   0.484   0.000   0.000
 -0.002   0.000   0.000 -11.221  -0.002   0.000   0.484   0.000
 -0.128   0.016   0.000  -0.002 -11.397   0.000   0.000   0.512
  0.000   0.000   0.484   0.000   0.000   0.065   0.000   0.000
  0.000   0.000   0.000   0.484   0.000   0.000   0.065   0.000
  0.006  -0.003   0.000   0.000   0.512   0.000   0.000   0.057
 total augmentation occupancy for first ion, spin component:           1
  1.976   0.147   0.000  -0.002  -0.196   0.000   0.000   0.027
  0.147   0.062   0.000   0.002   0.176   0.000   0.001   0.068
  0.000   0.000   1.521   0.000   0.000   0.094   0.000   0.000
 -0.002   0.002   0.000   1.522  -0.002   0.000   0.093   0.002
 -0.196   0.176   0.000  -0.002   1.329   0.000   0.002   0.283
  0.000   0.000   0.094   0.000   0.000   0.017   0.000   0.000
  0.000   0.001   0.000   0.093   0.002   0.000   0.017   0.001
  0.027   0.068   0.000   0.002   0.283   0.000   0.001   0.087


------------------------ aborting loop because EDIFF is reached ----------------------------------------


    CHARGE:  cpu time    0.58: real time    0.73
    FORLOC:  cpu time    0.14: real time    0.30
    FORNL :  cpu time    0.06: real time    0.06
    STRESS:  cpu time    0.43: real time    0.54
    FORHAR:  cpu time    0.97: real time    1.20
    MIXING:  cpu time    0.16: real time    0.16

  FORCE on cell =-STRESS in cart. coord.  units (eV):
  Direction    XX          YY          ZZ          XY          YZ          ZX
  --------------------------------------------------------------------------------------
  Alpha Z     0.57280     0.57280     0.57280
  Ewald     326.02979   -99.85022  -102.78754     0.00000     0.00000     5.00872
  Hartree   420.90541   219.25281   216.37711     0.00000     0.00000     2.29404
  E(xc)     -57.25498   -58.48130   -58.48065     0.00000     0.00000     0.01485
  Local    -888.26047  -305.25423  -299.46852     0.00000     0.00000    -6.76285
  n-local   -48.50863   -45.09739   -45.10459     0.00000     0.00000    -0.04127
  augment    10.00162    12.70866    12.71693     0.00000     0.00000    -0.03283
  Kinetic   232.82852   271.71809   271.78081     0.00000     0.00000    -0.47191
  Fock        0.00000     0.00000     0.00000     0.00000     0.00000     0.00000
  -------------------------------------------------------------------------------------
  Total      -3.68593    -4.43078    -4.39366     0.00000     0.00000     0.00876
  in kB      -6.08690    -7.31694    -7.25564     0.00000     0.00000     0.01446
  external pressure =       -6.89 kB  Pullay stress =        0.00 kB


 VOLUME and BASIS-vectors are now :
 -----------------------------------------------------------------------------
  energy-cutoff  :      350.00
  volume of cell :      970.20
      direct lattice vectors                 reciprocal lattice vectors
     9.800000000  0.000000000  0.000000000     0.102040816  0.000000000  0.000000000
     0.000000000  9.900000000  0.000000000     0.000000000  0.101010101  0.000000000
     0.000000000  0.000000000 10.000000000     0.000000000  0.000000000  0.100000000

  length of vectors
     9.800000000  9.900000000 10.000000000     0.102040816  0.101010101  0.100000000


 FORCES acting on ions
    electron-ion (+dipol)            ewald-force                    non-local-force                 convergence-correction
 -----------------------------------------------------------------------------------------------
   0.283E+03 -.133E-12 0.344E+01   -.335E+03 0.627E-16 -.407E+01   0.519E+02 0.000E+00 0.630E+00   0.452E-05 -.514E-07 0.144E-04
   -.283E+03 0.934E-12 -.344E+01   0.335E+03 -.271E-17 0.407E+01   -.519E+02 0.000E+00 -.630E+00   -.457E-05 -.509E-07 0.291E-05
 -----------------------------------------------------------------------------------------------
   0.268E-04 0.801E-12 -.869E-04   0.000E+00 0.600E-16 0.000E+00   0.711E-14 0.000E+00 0.000E+00   -.570E-07 -.102E-06 0.173E-04
 
 
 POSITION                                       TOTAL-FORCE (eV/Angst)
 -----------------------------------------------------------------------------------
      4.28096      4.95000      4.98500        -0.012091      0.000000      0.000480
      5.51904      4.95000      5.00000         0.012091      0.000000     -0.000480
 -----------------------------------------------------------------------------------
    total drift:                                0.000027      0.000000     -0.000070


--------------------------------------------------------------------------------------------------------



  FREE ENERGIE OF THE ION-ELECTRON SYSTEM (eV)
  ---------------------------------------------------
  free  energy   TOTEN  =        -8.774784 eV

  energy  without entropy=       -8.718365  energy(sigma->0) =       -8.746575
 
 d Force = 0.2683215E-07[-0.144E-04, 0.145E-04]  d Energy =-0.4515528E-08 0.313E-07
 d Force = 0.0000000E+00[ 0.122E+00,-0.122E+00]  d Ewald  = 0.5684342E-13-0.568E-13


--------------------------------------------------------------------------------------------------------


    POTLOK:  cpu time    4.03: real time    5.54


--------------------------------------------------------------------------------------------------------


 Finite differences progress:
  Degree of freedom:   3/  3
  Displacement:        2/  2
  Total:               6/  6


--------------------------------------------------------------------------------------------------------


 INTERNAL STRAIN TENSORS FROM DISPLACED ATOMS
 ============================================

 INTERNAL STRAIN TENSOR FOR ION    1 for displacements in x,y,z  (eV/Angst):
          X           Y           Z          XY          YZ          ZX
  --------------------------------------------------------------------------------
  x    80.88650     0.22516     0.22331     0.00000     0.00000     0.00000
  y     0.00000     0.00000     0.00000    -0.58290     0.00000     0.00000
  z     0.00000     0.00000     0.00000     0.00000     0.00000    -0.58386

 INTERNAL STRAIN TENSOR FOR ION    2 for displacements in x,y,z  (eV/Angst):
          X           Y           Z          XY          YZ          ZX
  --------------------------------------------------------------------------------
  x   -80.88650    -0.22516    -0.22331     0.00000     0.00000     0.00000
  y     0.00000     0.00000     0.00000     0.58290     0.00000     0.00000
  z     0.00000     0.00000     0.00000     0.00000     0.00000     0.58386


--------------------------------------------------------------------------------------------------------


 
 SECOND DERIVATIVES (NOT SYMMETRIZED)
 ------------------------------------
               1X          1Y          1Z          2X          2Y          2Z 
  1X   -68.718291    0.000000    0.000000   68.718291    0.000000    0.000000
  1Y     0.000000    0.084332    0.000000    0.000000   -0.084332    0.000000
  1Z     0.000000    0.000000   -0.032076    0.000000    0.000000    0.032076
  2X    68.718291    0.000000    0.000000  -68.718291    0.000000    0.000000
  2Y     0.000000   -0.084332    0.000000    0.000000    0.084332    0.000000
  2Z     0.000000    0.000000    0.032076    0.000000    0.000000   -0.032076
 
 
 Eigenvectors and eigenvalues of the dynamical matrix
 ----------------------------------------------------
 
 
   1 f  =   45.818609 THz   287.886811 2PiTHz 1528.344238 cm-1   189.490603 meV
             X         Y         Z           dx          dy          dz
      4.280957  4.950000  5.000000    -0.707107    0.000000    0.000000  
      5.519043  4.950000  5.000000     0.707107    0.000000    0.000000  
 
   2 f  =    0.989907 THz     6.219770 2PiTHz   33.019748 cm-1     4.093929 meV
             X         Y         Z           dx          dy          dz
      4.280957  4.950000  5.000000     0.000000    0.000000   -0.707107  
      5.519043  4.950000  5.000000     0.000000    0.000000    0.707107  
 
   3 f  =    0.000000 THz     0.000002 2PiTHz    0.000010 cm-1     0.000001 meV
             X         Y         Z           dx          dy          dz
      4.280957  4.950000  5.000000     0.511988   -0.487717    0.000000  
      5.519043  4.950000  5.000000     0.511988   -0.487717    0.000000  
 
   4 f  =    0.000000 THz     0.000000 2PiTHz    0.000000 cm-1     0.000000 meV
             X         Y         Z           dx          dy          dz
      4.280957  4.950000  5.000000     0.000000    0.000000    0.707107  
      5.519043  4.950000  5.000000     0.000000    0.000000    0.707107  
 
   5 f/i=    0.000000 THz     0.000001 2PiTHz    0.000004 cm-1     0.000001 meV
             X         Y         Z           dx          dy          dz
      4.280957  4.950000  5.000000    -0.487717   -0.511988    0.000000  
      5.519043  4.950000  5.000000    -0.487717   -0.511988    0.000000  
 
   6 f/i=    1.605096 THz    10.085118 2PiTHz   53.540252 cm-1     6.638148 meV
             X         Y         Z           dx          dy          dz
      4.280957  4.950000  5.000000     0.000000   -0.707107    0.000000  
      5.519043  4.950000  5.000000     0.000000    0.707107    0.000000  
 


--------------------------------------------------------------------------------------------------------


  LATTYP: Found a simple orthorhombic cell.
 ALAT       =     9.8000000000
 B/A-ratio  =     1.0102040816
 C/A-ratio  =     1.0204081633
  
  Lattice vectors:
  
 A1 = (   9.8000000000,   0.0000000000,   0.0000000000)
 A2 = (   0.0000000000,   9.9000000000,   0.0000000000)
 A3 = (   0.0000000000,   0.0000000000,  10.0000000000)
 Subroutine PRICEL returns:
 Original cell was already a primitive cell.
 

Analysis of symmetry for initial positions (statically):

 Routine SETGRP: Setting up the symmetry group for a 
 simple orthorhombic supercell.


 Subroutine GETGRP returns: Found  8 space group operations
 (whereof  8 operations were pure point group operations)
 out of a pool of  8 trial point group operations.


The static configuration has the point symmetry D_2h.

Analysis of symmetry for dynamics (positions and initial velocities):

 Subroutine DYNSYM returns: Found  8 space group operations
 (whereof  8 operations were pure point group operations)
 out of a pool of  8 trial space group operations
 (whereof  8 operations were pure point group operations)
 and found also     1 'primitive' translations


The dynamic configuration has the point symmetry D_2h.
 
 KPOINTS: KPOINTS created by Atomic Simulation Env

Automatic generation of k-mesh.
 
 Subroutine IBZKPT returns following result:
 ===========================================
 
 Found      1 irreducible k-points:
 
 Following reciprocal coordinates:
            Coordinates               Weight
  0.000000  0.000000  0.000000      1.000000
 
 Following cartesian coordinates:
            Coordinates               Weight
  0.000000  0.000000  0.000000      1.000000
 
 writing wavefunctions
     LOOP+:  cpu time  115.46: real time  147.91
    4ORBIT:  cpu time    0.00: real time    0.00

 total amount of memory used by VASP on root node   196072. kBytes
========================================================================

   base      :      30000. kBytes
   nonl-proj :       1384. kBytes
   fftplans  :      63704. kBytes
   grid      :      98668. kBytes
   one-center:          6. kBytes
   wavefun   :       2310. kBytes
 
  
  
 General timing and accounting informations for this job:
 ========================================================
  
                  Total CPU time used (sec):      904.456
                            User time (sec):      895.285
                          System time (sec):        9.171
                         Elapsed time (sec):     1149.410
  
                   Maximum memory used (kb):           0.
                   Average memory used (kb):           0.
  
                          Minor page faults:      2689190
                          Major page faults:           25
                 Voluntary context switches:         3859
