<?xml version="1.0" encoding="ISO-8859-1"?>
<modeling>
 <generator>
  <i name="program" type="string">vasp </i>
  <i name="version" type="string">5.2.12  </i>
  <i name="subversion" type="string">11Nov11 complex                                                      parallel </i>
  <i name="platform" type="string">LinuxIFC </i>
  <i name="date" type="string">2012 10 09 </i>
  <i name="time" type="string">22:34:36 </i>
 </generator>
 <incar>
  <i type="string" name="PREC">accurate</i>
  <i type="int" name="IBRION">     6</i>
  <i type="int" name="NFREE">     2</i>
  <i name="EDIFF">      0.00000001</i>
  <i type="int" name="NSW">     1</i>
  <i name="ENCUT">    350.00000000</i>
  <i name="POTIM">      0.01500000</i>
  <i type="logical" name="LREAL"> F  </i>
  <i type="int" name="ISMEAR">     0</i>
  <i name="SIGMA">      0.05000000</i>
 </incar>
 <kpoints>
  <generation param="Monkhorst-Pack">
   <v type="int" name="divisions">       1        1        1 </v>
   <v name="usershift">      0.00000000       0.00000000       0.00000000 </v>
   <v name="genvec1">      1.00000000       0.00000000       0.00000000 </v>
   <v name="genvec2">      0.00000000       1.00000000       0.00000000 </v>
   <v name="genvec3">      0.00000000       0.00000000       1.00000000 </v>
   <v name="shift">      0.00000000       0.00000000       0.00000000 </v>
  </generation>
  <varray name="kpointlist" >
   <v>       0.00000000       0.00000000       0.00000000 </v>
  </varray>
  <varray name="weights" >
   <v>       1.00000000 </v>
  </varray>
 </kpoints>
 <parameters>
  <separator name="general" >
   <i type="string" name="SYSTEM">unknown system</i>
   <i type="logical" name="LCOMPAT"> F  </i>
  </separator>
  <separator name="electronic" >
   <i type="string" name="PREC">accura</i>
   <i name="ENMAX">    350.00000000</i>
   <i name="ENAUG">    605.39200000</i>
   <i name="EDIFF">      0.00000001</i>
   <i type="int" name="IALGO">    38</i>
   <i type="int" name="IWAVPR">    11</i>
   <i type="int" name="NBANDS">    10</i>
   <i name="NELECT">     12.00000000</i>
   <i type="int" name="TURBO">     0</i>
   <i type="int" name="IRESTART">     0</i>
   <i type="int" name="NREBOOT">     0</i>
   <i type="int" name="NMIN">     0</i>
   <i name="EREF">      0.00000000</i>
   <separator name="electronic smearing" >
    <i type="int" name="ISMEAR">     0</i>
    <i name="SIGMA">      0.05000000</i>
    <i name="KSPACING">      0.50000000</i>
    <i type="logical" name="KGAMMA"> T  </i>
   </separator>
   <separator name="electronic projectors" >
    <i type="logical" name="LREAL"> F  </i>
    <v name="ROPT">      0.00000000</v>
    <i type="int" name="LMAXPAW">  -100</i>
    <i type="int" name="LMAXMIX">     2</i>
    <i type="logical" name="NLSPLINE"> F  </i>
   </separator>
   <separator name="electronic startup" >
    <i type="int" name="ISTART">     0</i>
    <i type="int" name="ICHARG">     2</i>
    <i type="int" name="INIWAV">     1</i>
   </separator>
   <separator name="electronic spin" >
    <i type="int" name="ISPIN">     1</i>
    <i type="logical" name="LNONCOLLINEAR"> F  </i>
    <v name="MAGMOM">      1.00000000      1.00000000</v>
    <i name="NUPDOWN">     -1.00000000</i>
    <i type="logical" name="LSORBIT"> F  </i>
    <v name="SAXIS">      0.00000000      0.00000000      1.00000000</v>
    <i type="logical" name="LSPIRAL"> F  </i>
    <v name="QSPIRAL">      0.00000000      0.00000000      0.00000000</v>
    <i type="logical" name="LZEROZ"> F  </i>
   </separator>
   <separator name="electronic exchange-correlation" >
    <i type="logical" name="LASPH"> F  </i>
    <i type="logical" name="LMETAGGA"> F  </i>
   </separator>
   <separator name="electronic convergence" >
    <i type="int" name="NELM">    60</i>
    <i type="int" name="NELMDL">    -5</i>
    <i type="int" name="NELMIN">     2</i>
    <i name="ENINI">    350.00000000</i>
    <separator name="electronic convergence detail" >
     <i type="logical" name="LDIAG"> T  </i>
     <i type="logical" name="LSUBROT"> T  </i>
     <i name="WEIMIN">      0.00100000</i>
     <i name="EBREAK">      0.00000000</i>
     <i name="DEPER">      0.30000000</i>
     <i type="int" name="NRMM">     4</i>
     <i name="TIME">      0.40000000</i>
    </separator>
   </separator>
   <separator name="electronic mixer" >
    <i name="AMIX">      0.40000000</i>
    <i name="BMIX">      1.00000000</i>
    <i name="AMIN">      0.10000000</i>
    <i name="AMIX_MAG">      1.60000000</i>
    <i name="BMIX_MAG">      1.00000000</i>
    <separator name="electronic mixer details" >
     <i type="int" name="IMIX">     4</i>
     <i type="int" name="MAXMIX">   -45</i>
     <i name="WC">    100.00000000</i>
     <i type="int" name="INIMIX">     1</i>
     <i type="int" name="MIXPRE">     1</i>
     <i type="int" name="MREMOVE">     5</i>
    </separator>
   </separator>
   <separator name="electronic dipolcorrection" >
    <i type="logical" name="LDIPOL"> F  </i>
    <i type="logical" name="LMONO"> F  </i>
    <i type="int" name="IDIPOL">     0</i>
    <i name="EPSILON">      1.00000000</i>
    <v name="DIPOL">   -100.00000000   -100.00000000   -100.00000000</v>
    <i name="EFIELD">      0.00000000</i>
   </separator>
  </separator>
  <separator name="grids" >
   <i type="int" name="NGX">    60</i>
   <i type="int" name="NGY">    60</i>
   <i type="int" name="NGZ">    64</i>
   <i type="int" name="NGXF">   120</i>
   <i type="int" name="NGYF">   120</i>
   <i type="int" name="NGZF">   128</i>
   <i type="logical" name="ADDGRID"> F  </i>
  </separator>
  <separator name="ionic" >
   <i type="int" name="NSW">    61</i>
   <i type="int" name="IBRION">     6</i>
   <i type="int" name="ISIF">     2</i>
   <i name="PSTRESS">      0.00000000</i>
   <i name="EDIFFG">      0.00000010</i>
   <i type="int" name="NFREE">     2</i>
   <i name="POTIM">      0.01500000</i>
   <i name="SMASS">     -3.00000000</i>
   <i name="SCALEE">      1.00000000</i>
  </separator>
  <separator name="ionic md" >
   <i name="TEBEG">      0.00010000</i>
   <i name="TEEND">      0.00010000</i>
   <i type="int" name="NBLOCK">     1</i>
   <i type="int" name="KBLOCK">     1</i>
   <i type="int" name="NPACO">   256</i>
   <i name="APACO">     16.00000000</i>
  </separator>
  <separator name="symmetry" >
   <i type="int" name="ISYM">     2</i>
   <i name="SYMPREC">      0.00001000</i>
  </separator>
  <separator name="dos" >
   <i type="logical" name="LORBIT"> F  </i>
   <v name="RWIGS">     -1.00000000</v>
   <i type="int" name="NEDOS">   301</i>
   <i name="EMIN">     10.00000000</i>
   <i name="EMAX">    -10.00000000</i>
   <i name="EFERMI">      0.00000000</i>
  </separator>
  <separator name="writing" >
   <i type="int" name="NWRITE">     2</i>
   <i type="logical" name="LWAVE"> T  </i>
   <i type="logical" name="LCHARG"> T  </i>
   <i type="logical" name="LPARD"> F  </i>
   <i type="logical" name="LVTOT"> F  </i>
   <i type="logical" name="LVHAR"> F  </i>
   <i type="logical" name="LELF"> F  </i>
   <i type="logical" name="LOPTICS"> F  </i>
   <v name="STM">      0.00000000      0.00000000      0.00000000      0.00000000      0.00000000      0.00000000      0.00000000</v>
  </separator>
  <separator name="performance" >
   <i type="int" name="NPAR">     1</i>
   <i type="int" name="NSIM">     4</i>
   <i type="int" name="NBLK">    -1</i>
   <i type="logical" name="LPLANE"> T  </i>
   <i type="logical" name="LSCALAPACK"> F  </i>
   <i type="logical" name="LSCAAWARE"> F  </i>
   <i type="logical" name="LSCALU"> F  </i>
   <i type="logical" name="LASYNC"> F  </i>
   <i type="logical" name="LORBITALREAL"> F  </i>
  </separator>
  <separator name="miscellaneous" >
   <i type="int" name="IDIOT">     3</i>
   <i type="logical" name="LMUSIC"> F  </i>
   <v name="POMASS">     16.00000000</v>
   <v name="DARWINR">      0.00000000</v>
   <v name="DARWINV">      1.00000000</v>
   <i type="logical" name="LCORR"> T  </i>
  </separator>
  <i type="logical" name="GGA_COMPAT"> T  </i>
  <i type="logical" name="LBERRY"> F  </i>
  <i type="int" name="ICORELEVEL">     0</i>
  <i type="logical" name="LDAU"> F  </i>
  <i type="int" name="I_CONSTRAINED_M">     0</i>
  <separator name="electronic exchange-correlation" >
   <i type="string" name="GGA">--</i>
   <i type="int" name="VOSKOWN">     0</i>
   <i type="logical" name="LHFCALC"> F  </i>
   <i type="string" name="PRECFOCK"></i>
   <i type="logical" name="LHFONE"> F  </i>
   <i type="logical" name="LRHFCALC"> F  </i>
   <i type="logical" name="LTHOMAS"> F  </i>
   <i type="logical" name="LMODELHF"> F  </i>
   <i name="ENCUT4O">     -1.00000000</i>
   <i type="int" name="EXXOEP">     0</i>
   <i type="int" name="FOURORBIT">     0</i>
   <i name="AEXX">      0.00000000</i>
   <i name="HFALPHA">      0.00000000</i>
   <i name="ALDAX">      1.00000000</i>
   <i name="AGGAX">      1.00000000</i>
   <i name="ALDAC">      1.00000000</i>
   <i name="AGGAC">      1.00000000</i>
   <i type="int" name="NKREDX">     1</i>
   <i type="int" name="NKREDY">     1</i>
   <i type="int" name="NKREDZ">     1</i>
   <i type="logical" name="SHIFTRED"> F  </i>
   <i type="logical" name="ODDONLY"> F  </i>
   <i type="logical" name="EVENONLY"> F  </i>
   <i type="int" name="LMAXFOCK">     0</i>
   <i type="int" name="NMAXFOCKAE">     0</i>
   <i type="logical" name="LFOCKAEDFT"> F  </i>
   <i name="HFSCREEN">      0.00000000</i>
   <i name="HFSCREENC">      0.00000000</i>
  </separator>
  <separator name="vdW DFT" >
   <i type="logical" name="LUSE_VDW"> F  </i>
   <i name="Zab_VDW">     -0.84910000</i>
   <i name="PARAM1">      0.12340000</i>
   <i name="PARAM2">      1.00000000</i>
   <i name="PARAM3">      0.00000000</i>
  </separator>
  <separator name="model GW" >
   <i type="int" name="MODEL_GW">     0</i>
   <i name="MODEL_EPS0">    291.06000000</i>
   <i name="MODEL_ALPHA">      1.00000000</i>
  </separator>
  <separator name="linear response parameters" >
   <i type="logical" name="LEPSILON"> F  </i>
   <i type="logical" name="LRPA"> F  </i>
   <i type="logical" name="LNABLA"> F  </i>
   <i type="logical" name="LVEL"> F  </i>
   <i type="int" name="KINTER">     0</i>
   <i name="CSHIFT">      0.10000000</i>
   <i name="OMEGAMAX">     -1.00000000</i>
  </separator>
  <separator name="orbital magnetization" >
   <i type="logical" name="NUCIND"> F  </i>
   <v name="MAGPOS">      0.00000000      0.00000000      0.00000000</v>
   <i type="logical" name="LNICSALL"> T  </i>
   <i type="logical" name="ORBITALMAG"> F  </i>
   <i type="logical" name="LMAGBLOCH"> F  </i>
   <i type="logical" name="LCHIMAG"> F  </i>
   <i type="logical" name="LGAUGE"> T  </i>
   <i type="int" name="MAGATOM">     0</i>
   <v name="MAGDIPOL">      0.00000000      0.00000000      0.00000000</v>
   <v name="AVECCONST">      0.00000000      0.00000000      0.00000000</v>
  </separator>
  <separator name="response functions" >
   <i type="logical" name="LADDER"> F  </i>
   <i type="logical" name="LHARTREE"> T  </i>
   <i type="int" name="IBSE">     0</i>
   <i type="logical" name="LTCTE"> F  </i>
   <i type="logical" name="LTETE"> F  </i>
   <i type="logical" name="LFXCEPS"> F  </i>
   <i type="logical" name="L2ORDER"> F  </i>
   <i type="logical" name="LUSEW"> F  </i>
   <i name="ENCUTGW">     -2.00000000</i>
   <i name="ENCUTGWSOFT">     -2.00000000</i>
   <i name="ENCUTLF">     -1.00000000</i>
   <i type="int" name="LMAXMP2">    -1</i>
   <i name="SCISSOR">      0.00000000</i>
   <i type="int" name="NOMEGA">     0</i>
   <i type="int" name="NOMEGAR">     0</i>
   <i type="int" name="NBANDSGW">    -1</i>
   <i type="int" name="NBANDSO">    -1</i>
   <i type="int" name="NBANDSV">    -1</i>
   <i name="OPTEMAX">      0.00000000</i>
   <i type="int" name="NELM">     1</i>
   <i type="int" name="DIM">     3</i>
   <i type="int" name="ANTIRES">     0</i>
   <i name="OMEGAMAX">    -30.00000000</i>
   <i name="OMEGATL">   -200.00000000</i>
   <i type="int" name="OMEGAGRID">     0</i>
   <i name="CSHIFT">     -0.10000000</i>
   <i type="logical" name="SELFENERGY"> F  </i>
   <i type="logical" name="LSPECTRAL"> F  </i>
   <i type="logical" name="ODDONLYGW"> F  </i>
   <i type="logical" name="EVENONLYGW"> F  </i>
   <i type="int" name="NKREDLFX">     1</i>
   <i type="int" name="NKREDLFY">     1</i>
   <i type="int" name="NKREDLFZ">     1</i>
   <i type="int" name="MAXMEM">  1800</i>
   <i type="int" name="TELESCOPE">     0</i>
  </separator>
 </parameters>
 <atominfo>
  <atoms>       2 </atoms>
  <types>       1 </types>
  <array name="atoms" >
   <dimension dim="1">ion</dimension>
   <field type="string">element</field>
   <field type="int">atomtype</field>
   <set>
    <rc><c>O </c><c>   1</c></rc>
    <rc><c>O </c><c>   1</c></rc>
   </set>
  </array>
  <array name="atomtypes" >
   <dimension dim="1">type</dimension>
   <field type="int">atomspertype</field>
   <field type="string">element</field>
   <field>mass</field>
   <field>valence</field>
   <field type="string">pseudopotential</field>
   <set>
    <rc><c>   2</c><c>O </c><c>     16.00000000</c><c>      6.00000000</c><c> PAW_PBE O 08Apr2002                    </c></rc>
   </set>
  </array>
 </atominfo>
 <structure name="initialpos" >
  <crystal>
   <varray name="basis" >
    <v>       9.80000000       0.00000000       0.00000000 </v>
    <v>       0.00000000       9.90000000       0.00000000 </v>
    <v>       0.00000000       0.00000000      10.00000000 </v>
   </varray>
   <i name="volume">    970.20000000 </i>
   <varray name="rec_basis" >
    <v>       0.10204082       0.00000000       0.00000000 </v>
    <v>       0.00000000       0.10101010       0.00000000 </v>
    <v>       0.00000000       0.00000000       0.10000000 </v>
   </varray>
  </crystal>
  <varray name="positions" >
   <v>       0.43683238       0.50000000       0.50000000 </v>
   <v>       0.56316762       0.50000000       0.50000000 </v>
  </varray>
 </structure>
 <calculation>
  <scstep>
   <time name="dav">    2.87    3.38</time>
   <time name="total">    7.30    9.60</time>
   <energy>
    <i name="alphaZ">      0.57280012 </i>
    <i name="ewald">    123.42262555 </i>
    <i name="hartreedc">   -852.18570187 </i>
    <i name="XCdc">     54.42379720 </i>
    <i name="pawpsdc">    491.99680524 </i>
    <i name="pawaedc">   -495.69617649 </i>
    <i name="eentropy">      0.00000000 </i>
    <i name="bandstr">   -118.58247627 </i>
    <i name="atom">    864.00122898 </i>
    <i name="e_fr_energy">     67.95290247 </i>
    <i name="e_wo_entrp">     67.95290247 </i>
    <i name="e_0_energy">     67.95290247 </i>
   </energy>
  </scstep>
  <scstep>
   <time name="dav">    3.35    4.23</time>
   <time name="total">    3.35    4.25</time>
   <energy>
    <i name="e_fr_energy">      6.11393366 </i>
    <i name="e_wo_entrp">      6.11393647 </i>
    <i name="e_0_energy">      6.11393506 </i>
   </energy>
  </scstep>
  <scstep>
   <time name="dav">    3.76    4.11</time>
   <time name="total">    3.76    4.13</time>
   <energy>
    <i name="e_fr_energy">     -7.75618986 </i>
    <i name="e_wo_entrp">     -7.75615162 </i>
    <i name="e_0_energy">     -7.75617074 </i>
   </energy>
  </scstep>
  <scstep>
   <time name="dav">    2.56    3.27</time>
   <time name="total">    2.56    3.29</time>
   <energy>
    <i name="e_fr_energy">     -9.04307463 </i>
    <i name="e_wo_entrp">     -8.98671523 </i>
    <i name="e_0_energy">     -9.01489493 </i>
   </energy>
  </scstep>
  <scstep>
   <time name="dav">    2.10    2.57</time>
   <time name="total">    2.81    3.36</time>
   <energy>
    <i name="e_fr_energy">     -9.05158934 </i>
    <i name="e_wo_entrp">     -8.99517730 </i>
    <i name="e_0_energy">     -9.02338332 </i>
   </energy>
  </scstep>
  <scstep>
   <time name="dav">    2.45    3.34</time>
   <time name="total">    7.41   10.23</time>
   <energy>
    <i name="e_fr_energy">     -8.80269857 </i>
    <i name="e_wo_entrp">     -8.74639755 </i>
    <i name="e_0_energy">     -8.77454806 </i>
   </energy>
  </scstep>
  <scstep>
   <time name="dav">    2.24    2.87</time>
   <time name="total">    7.92   10.48</time>
   <energy>
    <i name="e_fr_energy">     -8.78131931 </i>
    <i name="e_wo_entrp">     -8.73506173 </i>
    <i name="e_0_energy">     -8.75819052 </i>
   </energy>
  </scstep>
  <scstep>
   <time name="dav">    2.48    2.81</time>
   <time name="total">    8.41    9.57</time>
   <energy>
    <i name="e_fr_energy">     -8.69817903 </i>
    <i name="e_wo_entrp">     -8.64229891 </i>
    <i name="e_0_energy">     -8.67023897 </i>
   </energy>
  </scstep>
  <scstep>
   <time name="dav">    2.13    2.77</time>
   <time name="total">    6.91    9.50</time>
   <energy>
    <i name="e_fr_energy">     -8.77478394 </i>
    <i name="e_wo_entrp">     -8.71937147 </i>
    <i name="e_0_energy">     -8.74707770 </i>
   </energy>
  </scstep>
  <scstep>
   <time name="dav">    2.38    3.35</time>
   <time name="total">    7.29    9.66</time>
   <energy>
    <i name="e_fr_energy">     -8.76146513 </i>
    <i name="e_wo_entrp">     -8.70510376 </i>
    <i name="e_0_energy">     -8.73328444 </i>
   </energy>
  </scstep>
  <scstep>
   <time name="dav">    2.05    2.63</time>
   <time name="total">    6.98    9.29</time>
   <energy>
    <i name="e_fr_energy">     -8.77418567 </i>
    <i name="e_wo_entrp">     -8.71777541 </i>
    <i name="e_0_energy">     -8.74598054 </i>
   </energy>
  </scstep>
  <scstep>
   <time name="dav">    2.12    2.87</time>
   <time name="total">    7.64    9.64</time>
   <energy>
    <i name="e_fr_energy">     -8.77421973 </i>
    <i name="e_wo_entrp">     -8.71780559 </i>
    <i name="e_0_energy">     -8.74601266 </i>
   </energy>
  </scstep>
  <scstep>
   <time name="dav">    2.45    2.97</time>
   <time name="total">    7.27    8.75</time>
   <energy>
    <i name="e_fr_energy">     -8.77441021 </i>
    <i name="e_wo_entrp">     -8.71799397 </i>
    <i name="e_0_energy">     -8.74620209 </i>
   </energy>
  </scstep>
  <scstep>
   <time name="dav">    2.22    2.87</time>
   <time name="total">    8.15   10.33</time>
   <energy>
    <i name="e_fr_energy">     -8.77457846 </i>
    <i name="e_wo_entrp">     -8.71815977 </i>
    <i name="e_0_energy">     -8.74636912 </i>
   </energy>
  </scstep>
  <scstep>
   <time name="dav">    2.04    2.54</time>
   <time name="total">    7.52    9.79</time>
   <energy>
    <i name="e_fr_energy">     -8.77471607 </i>
    <i name="e_wo_entrp">     -8.71829711 </i>
    <i name="e_0_energy">     -8.74650659 </i>
   </energy>
  </scstep>
  <scstep>
   <time name="dav">    2.47    3.06</time>
   <time name="total">    8.00    9.97</time>
   <energy>
    <i name="e_fr_energy">     -8.77475780 </i>
    <i name="e_wo_entrp">     -8.71833884 </i>
    <i name="e_0_energy">     -8.74654832 </i>
   </energy>
  </scstep>
  <scstep>
   <time name="dav">    2.19    2.64</time>
   <time name="total">    7.76    9.65</time>
   <energy>
    <i name="e_fr_energy">     -8.77477037 </i>
    <i name="e_wo_entrp">     -8.71835159 </i>
    <i name="e_0_energy">     -8.74656098 </i>
   </energy>
  </scstep>
  <scstep>
   <time name="dav">    1.94    2.37</time>
   <time name="total">    6.87    8.60</time>
   <energy>
    <i name="e_fr_energy">     -8.77478035 </i>
    <i name="e_wo_entrp">     -8.71836142 </i>
    <i name="e_0_energy">     -8.74657089 </i>
   </energy>
  </scstep>
  <scstep>
   <time name="dav">    1.99    2.30</time>
   <time name="total">    7.09    8.14</time>
   <energy>
    <i name="e_fr_energy">     -8.77478890 </i>
    <i name="e_wo_entrp">     -8.71836997 </i>
    <i name="e_0_energy">     -8.74657944 </i>
   </energy>
  </scstep>
  <scstep>
   <time name="dav">    2.15    2.69</time>
   <time name="total">    7.20    8.56</time>
   <energy>
    <i name="e_fr_energy">     -8.77478997 </i>
    <i name="e_wo_entrp">     -8.71837105 </i>
    <i name="e_0_energy">     -8.74658051 </i>
   </energy>
  </scstep>
  <scstep>
   <time name="dav">    2.09    2.69</time>
   <time name="total">    7.09    8.76</time>
   <energy>
    <i name="e_fr_energy">     -8.77479043 </i>
    <i name="e_wo_entrp">     -8.71837152 </i>
    <i name="e_0_energy">     -8.74658098 </i>
   </energy>
  </scstep>
  <scstep>
   <time name="dav">    2.05    2.20</time>
   <time name="total">    6.23    6.93</time>
   <energy>
    <i name="e_fr_energy">     -8.77479045 </i>
    <i name="e_wo_entrp">     -8.71837154 </i>
    <i name="e_0_energy">     -8.74658099 </i>
   </energy>
  </scstep>
  <scstep>
   <time name="dav">    2.40    2.74</time>
   <time name="total">    7.03    9.37</time>
   <energy>
    <i name="e_fr_energy">     -8.77479048 </i>
    <i name="e_wo_entrp">     -8.71837157 </i>
    <i name="e_0_energy">     -8.74658102 </i>
   </energy>
  </scstep>
  <scstep>
   <time name="dav">    2.13    2.33</time>
   <time name="total">    6.15    7.39</time>
   <energy>
    <i name="alphaZ">      0.57280012 </i>
    <i name="ewald">    123.42262555 </i>
    <i name="hartreedc">   -856.56180571 </i>
    <i name="XCdc">     54.88427018 </i>
    <i name="pawpsdc">    576.07533366 </i>
    <i name="pawaedc">   -579.50617757 </i>
    <i name="eentropy">     -0.05641892 </i>
    <i name="bandstr">   -191.60664680 </i>
    <i name="atom">    864.00122898 </i>
    <i name="e_fr_energy">     -8.77479048 </i>
    <i name="e_wo_entrp">     -8.71837157 </i>
    <i name="e_0_energy">     -8.74658103 </i>
   </energy>
  </scstep>
  <parameters_embedded>
   <separator name="dft+d2" >
    <i type="logical" name="LVDW"> F  </i>
   </separator>
  </parameters_embedded>
  <structure>
   <crystal>
    <varray name="basis" >
     <v>       9.80000000       0.00000000       0.00000000 </v>
     <v>       0.00000000       9.90000000       0.00000000 </v>
     <v>       0.00000000       0.00000000      10.00000000 </v>
    </varray>
    <i name="volume">    970.20000000 </i>
    <varray name="rec_basis" >
     <v>       0.10204082       0.00000000       0.00000000 </v>
     <v>       0.00000000       0.10101010       0.00000000 </v>
     <v>       0.00000000       0.00000000       0.10000000 </v>
    </varray>
   </crystal>
   <varray name="positions" >
    <v>       0.43683238       0.50000000       0.50000000 </v>
    <v>       0.56316762       0.50000000       0.50000000 </v>
   </varray>
  </structure>
  <varray name="forces" >
   <v>      -0.01840596       0.00000000       0.00000000 </v>
   <v>       0.01840596       0.00000000       0.00000000 </v>
  </varray>
  <varray name="stress" >
   <v>      -6.07480050       0.00000000       0.00000000 </v>
   <v>       0.00000000      -7.31699071       0.00000000 </v>
   <v>       0.00000000       0.00000000      -7.25583572 </v>
  </varray>
  <energy>
   <i name="e_fr_energy">     -8.77479048 </i>
   <i name="e_wo_entrp">     -8.74658103 </i>
   <i name="e_0_energy">     -0.05641892 </i>
  </energy>
  <kpoints>
   <generation param="Monkhorst-Pack">
    <v type="int" name="divisions">       1        1        1 </v>
    <v name="usershift">      0.00000000       0.00000000       0.00000000 </v>
    <v name="genvec1">      1.00000000       0.00000000       0.00000000 </v>
    <v name="genvec2">      0.00000000       1.00000000       0.00000000 </v>
    <v name="genvec3">      0.00000000       0.00000000       1.00000000 </v>
    <v name="shift">      0.00000000       0.00000000       0.00000000 </v>
   </generation>
   <varray name="kpointlist" >
    <v>       0.00000000       0.00000000       0.00000000 </v>
   </varray>
   <varray name="weights" >
    <v>       1.00000000 </v>
   </varray>
  </kpoints>
  <time name="totalsc">  170.38  213.96</time>
 </calculation>
 <calculation>
  <scstep>
   <time name="dav">    2.54    2.88</time>
   <time name="total">    7.86    9.45</time>
   <energy>
    <i name="alphaZ">      0.57280012 </i>
    <i name="ewald">    128.51249270 </i>
    <i name="hartreedc">   -860.28108690 </i>
    <i name="XCdc">     54.95083190 </i>
    <i name="pawpsdc">    576.07527327 </i>
    <i name="pawaedc">   -579.50611686 </i>
    <i name="eentropy">     -0.05641889 </i>
    <i name="bandstr">   -193.03536967 </i>
    <i name="atom">    864.00122898 </i>
    <i name="e_fr_energy">     -8.76636537 </i>
    <i name="e_wo_entrp">     -8.70994647 </i>
    <i name="e_0_energy">     -8.73815592 </i>
   </energy>
  </scstep>
  <scstep>
   <time name="dav">    2.39    2.93</time>
   <time name="total">    8.19    9.64</time>
   <energy>
    <i name="e_fr_energy">     -8.76624040 </i>
    <i name="e_wo_entrp">     -8.70982144 </i>
    <i name="e_0_energy">     -8.73803092 </i>
   </energy>
  </scstep>
  <scstep>
   <time name="dav">    1.91    3.13</time>
   <time name="total">    7.69   10.68</time>
   <energy>
    <i name="e_fr_energy">     -8.76643262 </i>
    <i name="e_wo_entrp">     -8.71002014 </i>
    <i name="e_0_energy">     -8.73822638 </i>
   </energy>
  </scstep>
  <scstep>
   <time name="dav">    2.19    3.04</time>
   <time name="total">    8.28   10.29</time>
   <energy>
    <i name="e_fr_energy">     -8.76625122 </i>
    <i name="e_wo_entrp">     -8.70985053 </i>
    <i name="e_0_energy">     -8.73805087 </i>
   </energy>
  </scstep>
  <scstep>
   <time name="dav">    2.21    2.49</time>
   <time name="total">    7.21    8.66</time>
   <energy>
    <i name="e_fr_energy">     -8.76586961 </i>
    <i name="e_wo_entrp">     -8.70945174 </i>
    <i name="e_0_energy">     -8.73766067 </i>
   </energy>
  </scstep>
  <scstep>
   <time name="dav">    1.95    2.64</time>
   <time name="total">    8.00   10.96</time>
   <energy>
    <i name="e_fr_energy">     -8.76648831 </i>
    <i name="e_wo_entrp">     -8.71006966 </i>
    <i name="e_0_energy">     -8.73827899 </i>
   </energy>
  </scstep>
  <scstep>
   <time name="dav">    2.41    2.92</time>
   <time name="total">    7.43    9.03</time>
   <energy>
    <i name="e_fr_energy">     -8.76643958 </i>
    <i name="e_wo_entrp">     -8.71002078 </i>
    <i name="e_0_energy">     -8.73823018 </i>
   </energy>
  </scstep>
  <scstep>
   <time name="dav">    2.36    2.69</time>
   <time name="total">    7.69    9.83</time>
   <energy>
    <i name="e_fr_energy">     -8.76649922 </i>
    <i name="e_wo_entrp">     -8.71008028 </i>
    <i name="e_0_energy">     -8.73828975 </i>
   </energy>
  </scstep>
  <scstep>
   <time name="dav">    1.99    2.70</time>
   <time name="total">    7.09    8.89</time>
   <energy>
    <i name="e_fr_energy">     -8.76650509 </i>
    <i name="e_wo_entrp">     -8.71008620 </i>
    <i name="e_0_energy">     -8.73829565 </i>
   </energy>
  </scstep>
  <scstep>
   <time name="dav">    1.92    2.92</time>
   <time name="total">    6.08    7.95</time>
   <energy>
    <i name="e_fr_energy">     -8.76651227 </i>
    <i name="e_wo_entrp">     -8.71009334 </i>
    <i name="e_0_energy">     -8.73830281 </i>
   </energy>
  </scstep>
  <scstep>
   <time name="dav">    2.11    2.81</time>
   <time name="total">    7.79    9.68</time>
   <energy>
    <i name="e_fr_energy">     -8.76651505 </i>
    <i name="e_wo_entrp">     -8.71009615 </i>
    <i name="e_0_energy">     -8.73830560 </i>
   </energy>
  </scstep>
  <scstep>
   <time name="dav">    2.42    2.43</time>
   <time name="total">    8.81    9.87</time>
   <energy>
    <i name="e_fr_energy">     -8.76651611 </i>
    <i name="e_wo_entrp">     -8.71009720 </i>
    <i name="e_0_energy">     -8.73830665 </i>
   </energy>
  </scstep>
  <scstep>
   <time name="dav">    2.15    2.65</time>
   <time name="total">    8.20    9.80</time>
   <energy>
    <i name="e_fr_energy">     -8.76651681 </i>
    <i name="e_wo_entrp">     -8.71009789 </i>
    <i name="e_0_energy">     -8.73830735 </i>
   </energy>
  </scstep>
  <scstep>
   <time name="dav">    1.88    2.70</time>
   <time name="total">    7.14   10.06</time>
   <energy>
    <i name="e_fr_energy">     -8.76651687 </i>
    <i name="e_wo_entrp">     -8.71009795 </i>
    <i name="e_0_energy">     -8.73830741 </i>
   </energy>
  </scstep>
  <scstep>
   <time name="dav">    1.98    2.20</time>
   <time name="total">    7.26    8.76</time>
   <energy>
    <i name="e_fr_energy">     -8.76651689 </i>
    <i name="e_wo_entrp">     -8.71009798 </i>
    <i name="e_0_energy">     -8.73830744 </i>
   </energy>
  </scstep>
  <scstep>
   <time name="dav">    2.13    2.62</time>
   <time name="total">    7.49    9.48</time>
   <energy>
    <i name="alphaZ">      0.57280012 </i>
    <i name="ewald">    128.51249270 </i>
    <i name="hartreedc">   -860.95232712 </i>
    <i name="XCdc">     54.99459225 </i>
    <i name="pawpsdc">    580.97787509 </i>
    <i name="pawaedc">   -584.42871790 </i>
    <i name="eentropy">     -0.05641891 </i>
    <i name="bandstr">   -192.38804211 </i>
    <i name="atom">    864.00122898 </i>
    <i name="e_fr_energy">     -8.76651689 </i>
    <i name="e_wo_entrp">     -8.71009797 </i>
    <i name="e_0_energy">     -8.73830743 </i>
   </energy>
  </scstep>
  <structure>
   <crystal>
    <varray name="basis" >
     <v>       9.80000000       0.00000000       0.00000000 </v>
     <v>       0.00000000       9.90000000       0.00000000 </v>
     <v>       0.00000000       0.00000000      10.00000000 </v>
    </varray>
    <i name="volume">    970.20000000 </i>
    <varray name="rec_basis" >
     <v>       0.10204082       0.00000000       0.00000000 </v>
     <v>       0.00000000       0.10101010       0.00000000 </v>
     <v>       0.00000000       0.00000000       0.10000000 </v>
    </varray>
   </crystal>
   <varray name="positions" >
    <v>       0.43836299       0.50000000       0.50000000 </v>
    <v>       0.56316762       0.50000000       0.50000000 </v>
   </varray>
  </structure>
  <varray name="forces" >
   <v>      -1.10379697       0.00000000       0.00000000 </v>
   <v>       1.10379697       0.00000000       0.00000000 </v>
  </varray>
  <varray name="stress" >
   <v>      -3.97924894       0.00000000       0.00000000 </v>
   <v>       0.00000000      -7.31057817       0.00000000 </v>
   <v>       0.00000000       0.00000000      -7.24969675 </v>
  </varray>
  <energy>
   <i name="e_fr_energy">     -8.76651689 </i>
   <i name="e_wo_entrp">     -8.73830743 </i>
   <i name="e_0_energy">     -0.05641891 </i>
  </energy>
  <kpoints>
   <generation param="Monkhorst-Pack">
    <v type="int" name="divisions">       1        1        1 </v>
    <v name="usershift">      0.00000000       0.00000000       0.00000000 </v>
    <v name="genvec1">      1.00000000       0.00000000       0.00000000 </v>
    <v name="genvec2">      0.00000000       1.00000000       0.00000000 </v>
    <v name="genvec3">      0.00000000       0.00000000       1.00000000 </v>
    <v name="shift">      0.00000000       0.00000000       0.00000000 </v>
   </generation>
   <varray name="kpointlist" >
    <v>       0.00000000       0.00000000       0.00000000 </v>
   </varray>
   <varray name="weights" >
    <v>       1.00000000 </v>
   </varray>
  </kpoints>
  <time name="totalsc">  129.72  162.64</time>
 </calculation>
 <calculation>
  <scstep>
   <time name="dav">    2.48    3.12</time>
   <time name="total">    7.65   10.21</time>
   <energy>
    <i name="alphaZ">      0.57280012 </i>
    <i name="ewald">    118.45629442 </i>
    <i name="hartreedc">   -853.56693069 </i>
    <i name="XCdc">     54.86383356 </i>
    <i name="pawpsdc">    580.97788388 </i>
    <i name="pawaedc">   -584.42872700 </i>
    <i name="eentropy">     -0.05641894 </i>
    <i name="bandstr">   -189.58776187 </i>
    <i name="atom">    864.00122898 </i>
    <i name="e_fr_energy">     -8.76779753 </i>
    <i name="e_wo_entrp">     -8.71137859 </i>
    <i name="e_0_energy">     -8.73958806 </i>
   </energy>
  </scstep>
  <scstep>
   <time name="dav">    2.15    2.87</time>
   <time name="total">    6.94    8.65</time>
   <energy>
    <i name="e_fr_energy">     -8.76710553 </i>
    <i name="e_wo_entrp">     -8.71068703 </i>
    <i name="e_0_energy">     -8.73889628 </i>
   </energy>
  </scstep>
  <scstep>
   <time name="dav">    2.36    3.07</time>
   <time name="total">    7.47    9.14</time>
   <energy>
    <i name="e_fr_energy">     -8.76731325 </i>
    <i name="e_wo_entrp">     -8.71090922 </i>
    <i name="e_0_energy">     -8.73911124 </i>
   </energy>
  </scstep>
  <scstep>
   <time name="dav">    1.99    2.47</time>
   <time name="total">    7.18    9.21</time>
   <energy>
    <i name="e_fr_energy">     -8.76703337 </i>
    <i name="e_wo_entrp">     -8.71067951 </i>
    <i name="e_0_energy">     -8.73885644 </i>
   </energy>
  </scstep>
  <scstep>
   <time name="dav">    1.62    2.12</time>
   <time name="total">    6.58    7.63</time>
   <energy>
    <i name="e_fr_energy">     -8.76625028 </i>
    <i name="e_wo_entrp">     -8.70983335 </i>
    <i name="e_0_energy">     -8.73804182 </i>
   </energy>
  </scstep>
  <scstep>
   <time name="dav">    2.53    2.76</time>
   <time name="total">    8.00    9.96</time>
   <energy>
    <i name="e_fr_energy">     -8.76752811 </i>
    <i name="e_wo_entrp">     -8.71111113 </i>
    <i name="e_0_energy">     -8.73931962 </i>
   </energy>
  </scstep>
  <scstep>
   <time name="dav">    1.92    2.79</time>
   <time name="total">    7.15    9.56</time>
   <energy>
    <i name="e_fr_energy">     -8.76745873 </i>
    <i name="e_wo_entrp">     -8.71103980 </i>
    <i name="e_0_energy">     -8.73924926 </i>
   </energy>
  </scstep>
  <scstep>
   <time name="dav">    1.60    1.99</time>
   <time name="total">    6.61    9.16</time>
   <energy>
    <i name="e_fr_energy">     -8.76755880 </i>
    <i name="e_wo_entrp">     -8.71113988 </i>
    <i name="e_0_energy">     -8.73934934 </i>
   </energy>
  </scstep>
  <scstep>
   <time name="dav">    2.07    2.63</time>
   <time name="total">    6.75    9.40</time>
   <energy>
    <i name="e_fr_energy">     -8.76757790 </i>
    <i name="e_wo_entrp">     -8.71115900 </i>
    <i name="e_0_energy">     -8.73936845 </i>
   </energy>
  </scstep>
  <scstep>
   <time name="dav">    2.11    3.07</time>
   <time name="total">    6.52    8.70</time>
   <energy>
    <i name="e_fr_energy">     -8.76759296 </i>
    <i name="e_wo_entrp">     -8.71117405 </i>
    <i name="e_0_energy">     -8.73938350 </i>
   </energy>
  </scstep>
  <scstep>
   <time name="dav">    1.90    2.40</time>
   <time name="total">    7.53   10.02</time>
   <energy>
    <i name="e_fr_energy">     -8.76760229 </i>
    <i name="e_wo_entrp">     -8.71118336 </i>
    <i name="e_0_energy">     -8.73939282 </i>
   </energy>
  </scstep>
  <scstep>
   <time name="dav">    2.19    3.08</time>
   <time name="total">    7.75   10.08</time>
   <energy>
    <i name="e_fr_energy">     -8.76760461 </i>
    <i name="e_wo_entrp">     -8.71118570 </i>
    <i name="e_0_energy">     -8.73939516 </i>
   </energy>
  </scstep>
  <scstep>
   <time name="dav">    1.95    2.55</time>
   <time name="total">    6.84    9.06</time>
   <energy>
    <i name="e_fr_energy">     -8.76760631 </i>
    <i name="e_wo_entrp">     -8.71118740 </i>
    <i name="e_0_energy">     -8.73939686 </i>
   </energy>
  </scstep>
  <scstep>
   <time name="dav">    2.21    2.92</time>
   <time name="total">    8.26   10.62</time>
   <energy>
    <i name="e_fr_energy">     -8.76760650 </i>
    <i name="e_wo_entrp">     -8.71118758 </i>
    <i name="e_0_energy">     -8.73939704 </i>
   </energy>
  </scstep>
  <scstep>
   <time name="dav">    2.05    2.64</time>
   <time name="total">    7.58    9.87</time>
   <energy>
    <i name="e_fr_energy">     -8.76760663 </i>
    <i name="e_wo_entrp">     -8.71118771 </i>
    <i name="e_0_energy">     -8.73939717 </i>
   </energy>
  </scstep>
  <scstep>
   <time name="dav">    2.27    2.76</time>
   <time name="total">    6.53    8.13</time>
   <energy>
    <i name="alphaZ">      0.57280012 </i>
    <i name="ewald">    118.45629442 </i>
    <i name="hartreedc">   -852.24916184 </i>
    <i name="XCdc">     54.77733397 </i>
    <i name="pawpsdc">    571.43897465 </i>
    <i name="pawaedc">   -574.85146489 </i>
    <i name="eentropy">     -0.05641892 </i>
    <i name="bandstr">   -190.85719314 </i>
    <i name="atom">    864.00122898 </i>
    <i name="e_fr_energy">     -8.76760663 </i>
    <i name="e_wo_entrp">     -8.71118772 </i>
    <i name="e_0_energy">     -8.73939718 </i>
   </energy>
  </scstep>
  <structure>
   <crystal>
    <varray name="basis" >
     <v>       9.80000000       0.00000000       0.00000000 </v>
     <v>       0.00000000       9.90000000       0.00000000 </v>
     <v>       0.00000000       0.00000000      10.00000000 </v>
    </varray>
    <i name="volume">    970.20000000 </i>
    <varray name="rec_basis" >
     <v>       0.10204082       0.00000000       0.00000000 </v>
     <v>       0.00000000       0.10101010       0.00000000 </v>
     <v>       0.00000000       0.00000000       0.10000000 </v>
    </varray>
   </crystal>
   <varray name="positions" >
    <v>       0.43530177       0.50000000       0.50000000 </v>
    <v>       0.56316762       0.50000000       0.50000000 </v>
   </varray>
  </structure>
  <varray name="forces" >
   <v>       0.95775177       0.00000000       0.00000000 </v>
   <v>      -0.95775177       0.00000000       0.00000000 </v>
  </varray>
  <varray name="stress" >
   <v>      -7.98650077       0.00000000       0.00000000 </v>
   <v>       0.00000000      -7.32173317       0.00000000 </v>
   <v>       0.00000000       0.00000000      -7.26075985 </v>
  </varray>
  <energy>
   <i name="e_fr_energy">     -8.76760663 </i>
   <i name="e_wo_entrp">     -8.73939718 </i>
   <i name="e_0_energy">     -0.05641892 </i>
  </energy>
  <kpoints>
   <generation param="Monkhorst-Pack">
    <v type="int" name="divisions">       1        1        1 </v>
    <v name="usershift">      0.00000000       0.00000000       0.00000000 </v>
    <v name="genvec1">      1.00000000       0.00000000       0.00000000 </v>
    <v name="genvec2">      0.00000000       1.00000000       0.00000000 </v>
    <v name="genvec3">      0.00000000       0.00000000       1.00000000 </v>
    <v name="shift">      0.00000000       0.00000000       0.00000000 </v>
   </generation>
   <varray name="kpointlist" >
    <v>       0.00000000       0.00000000       0.00000000 </v>
   </varray>
   <varray name="weights" >
    <v>       1.00000000 </v>
   </varray>
  </kpoints>
  <time name="totalsc">  124.49  160.84</time>
 </calculation>
 <calculation>
  <scstep>
   <time name="dav">    2.50    3.09</time>
   <time name="total">    7.92   10.40</time>
   <energy>
    <i name="alphaZ">      0.57280012 </i>
    <i name="ewald">    123.39213260 </i>
    <i name="hartreedc">   -855.89241916 </i>
    <i name="XCdc">     54.84122338 </i>
    <i name="pawpsdc">    571.43893177 </i>
    <i name="pawaedc">   -574.85142060 </i>
    <i name="eentropy">     -0.05641842 </i>
    <i name="bandstr">   -192.21924077 </i>
    <i name="atom">    864.00122898 </i>
    <i name="e_fr_energy">     -8.77318209 </i>
    <i name="e_wo_entrp">     -8.71676367 </i>
    <i name="e_0_energy">     -8.74497288 </i>
   </energy>
  </scstep>
  <scstep>
   <time name="dav">    2.44    2.72</time>
   <time name="total">    7.89   10.24</time>
   <energy>
    <i name="e_fr_energy">     -8.77436193 </i>
    <i name="e_wo_entrp">     -8.71795218 </i>
    <i name="e_0_energy">     -8.74615706 </i>
   </energy>
  </scstep>
  <scstep>
   <time name="dav">    2.16    2.29</time>
   <time name="total">    6.82    8.21</time>
   <energy>
    <i name="e_fr_energy">     -8.77456645 </i>
    <i name="e_wo_entrp">     -8.71838839 </i>
    <i name="e_0_energy">     -8.74647742 </i>
   </energy>
  </scstep>
  <scstep>
   <time name="dav">    1.79    2.04</time>
   <time name="total">    5.85    6.55</time>
   <energy>
    <i name="e_fr_energy">     -8.77055803 </i>
    <i name="e_wo_entrp">     -8.71414739 </i>
    <i name="e_0_energy">     -8.74235271 </i>
   </energy>
  </scstep>
  <scstep>
   <time name="dav">    2.09    2.50</time>
   <time name="total">    7.66    9.24</time>
   <energy>
    <i name="e_fr_energy">     -8.77472592 </i>
    <i name="e_wo_entrp">     -8.71831113 </i>
    <i name="e_0_energy">     -8.74651853 </i>
   </energy>
  </scstep>
  <scstep>
   <time name="dav">    2.23    2.73</time>
   <time name="total">    8.24    9.62</time>
   <energy>
    <i name="e_fr_energy">     -8.77463199 </i>
    <i name="e_wo_entrp">     -8.71821559 </i>
    <i name="e_0_energy">     -8.74642379 </i>
   </energy>
  </scstep>
  <scstep>
   <time name="dav">    1.94    2.25</time>
   <time name="total">    6.72    9.32</time>
   <energy>
    <i name="e_fr_energy">     -8.77465149 </i>
    <i name="e_wo_entrp">     -8.71823291 </i>
    <i name="e_0_energy">     -8.74644220 </i>
   </energy>
  </scstep>
  <scstep>
   <time name="dav">    1.72    2.22</time>
   <time name="total">    7.11    8.38</time>
   <energy>
    <i name="e_fr_energy">     -8.77478958 </i>
    <i name="e_wo_entrp">     -8.71837063 </i>
    <i name="e_0_energy">     -8.74658011 </i>
   </energy>
  </scstep>
  <scstep>
   <time name="dav">    2.12    2.31</time>
   <time name="total">    8.09   10.22</time>
   <energy>
    <i name="e_fr_energy">     -8.77479669 </i>
    <i name="e_wo_entrp">     -8.71837781 </i>
    <i name="e_0_energy">     -8.74658725 </i>
   </energy>
  </scstep>
  <scstep>
   <time name="dav">    1.89    2.05</time>
   <time name="total">    7.47    8.62</time>
   <energy>
    <i name="e_fr_energy">     -8.77480432 </i>
    <i name="e_wo_entrp">     -8.71838540 </i>
    <i name="e_0_energy">     -8.74659486 </i>
   </energy>
  </scstep>
  <scstep>
   <time name="dav">    2.40    2.73</time>
   <time name="total">    7.28    9.67</time>
   <energy>
    <i name="e_fr_energy">     -8.77480824 </i>
    <i name="e_wo_entrp">     -8.71838933 </i>
    <i name="e_0_energy">     -8.74659879 </i>
   </energy>
  </scstep>
  <scstep>
   <time name="dav">    1.97    2.86</time>
   <time name="total">    7.26    9.20</time>
   <energy>
    <i name="e_fr_energy">     -8.77481109 </i>
    <i name="e_wo_entrp">     -8.71839217 </i>
    <i name="e_0_energy">     -8.74660163 </i>
   </energy>
  </scstep>
  <scstep>
   <time name="dav">    2.25    3.08</time>
   <time name="total">    7.63   10.45</time>
   <energy>
    <i name="e_fr_energy">     -8.77481149 </i>
    <i name="e_wo_entrp">     -8.71839258 </i>
    <i name="e_0_energy">     -8.74660203 </i>
   </energy>
  </scstep>
  <scstep>
   <time name="dav">    2.18    2.87</time>
   <time name="total">    6.90    9.35</time>
   <energy>
    <i name="e_fr_energy">     -8.77481169 </i>
    <i name="e_wo_entrp">     -8.71839277 </i>
    <i name="e_0_energy">     -8.74660223 </i>
   </energy>
  </scstep>
  <scstep>
   <time name="dav">    2.32    2.57</time>
   <time name="total">    8.11   10.05</time>
   <energy>
    <i name="e_fr_energy">     -8.77481172 </i>
    <i name="e_wo_entrp">     -8.71839280 </i>
    <i name="e_0_energy">     -8.74660226 </i>
   </energy>
  </scstep>
  <scstep>
   <time name="dav">    2.60    3.14</time>
   <time name="total">    8.04   10.11</time>
   <energy>
    <i name="e_fr_energy">     -8.77481173 </i>
    <i name="e_wo_entrp">     -8.71839281 </i>
    <i name="e_0_energy">     -8.74660227 </i>
   </energy>
  </scstep>
  <scstep>
   <time name="dav">    1.93    2.21</time>
   <time name="total">    5.98    7.67</time>
   <energy>
    <i name="alphaZ">      0.57280012 </i>
    <i name="ewald">    123.39213260 </i>
    <i name="hartreedc">   -856.53549029 </i>
    <i name="XCdc">     54.88361679 </i>
    <i name="pawpsdc">    576.04647335 </i>
    <i name="pawaedc">   -579.47720385 </i>
    <i name="eentropy">     -0.05641892 </i>
    <i name="bandstr">   -191.60195052 </i>
    <i name="atom">    864.00122898 </i>
    <i name="e_fr_energy">     -8.77481173 </i>
    <i name="e_wo_entrp">     -8.71839281 </i>
    <i name="e_0_energy">     -8.74660227 </i>
   </energy>
  </scstep>
  <structure>
   <crystal>
    <varray name="basis" >
     <v>       9.80000000       0.00000000       0.00000000 </v>
     <v>       0.00000000       9.90000000       0.00000000 </v>
     <v>       0.00000000       0.00000000      10.00000000 </v>
    </varray>
    <i name="volume">    970.20000000 </i>
    <varray name="rec_basis" >
     <v>       0.10204082       0.00000000       0.00000000 </v>
     <v>       0.00000000       0.10101010       0.00000000 </v>
     <v>       0.00000000       0.00000000       0.10000000 </v>
    </varray>
   </crystal>
   <varray name="positions" >
    <v>       0.43683238       0.50151515       0.50000000 </v>
    <v>       0.56316762       0.50000000       0.50000000 </v>
   </varray>
  </structure>
  <varray name="forces" >
   <v>      -0.01206935       0.00126636       0.00000000 </v>
   <v>       0.01206935      -0.00126636       0.00000000 </v>
  </varray>
  <varray name="stress" >
   <v>      -6.08671797      -0.01443786       0.00000000 </v>
   <v>      -0.01443694      -7.31663096       0.00000000 </v>
   <v>       0.00000000       0.00000000      -7.25588904 </v>
  </varray>
  <energy>
   <i name="e_fr_energy">     -8.77481173 </i>
   <i name="e_wo_entrp">     -8.74660227 </i>
   <i name="e_0_energy">     -0.05641892 </i>
  </energy>
  <kpoints>
   <generation param="Monkhorst-Pack">
    <v type="int" name="divisions">       1        1        1 </v>
    <v name="usershift">      0.00000000       0.00000000       0.00000000 </v>
    <v name="genvec1">      1.00000000       0.00000000       0.00000000 </v>
    <v name="genvec2">      0.00000000       1.00000000       0.00000000 </v>
    <v name="genvec3">      0.00000000       0.00000000       1.00000000 </v>
    <v name="shift">      0.00000000       0.00000000       0.00000000 </v>
   </generation>
   <varray name="kpointlist" >
    <v>       0.00000000       0.00000000       0.00000000 </v>
   </varray>
   <varray name="weights" >
    <v>       1.00000000 </v>
   </varray>
  </kpoints>
  <time name="totalsc">  133.35  167.83</time>
 </calculation>
 <calculation>
  <scstep>
   <time name="dav">    2.07    2.60</time>
   <time name="total">    6.60    8.09</time>
   <energy>
    <i name="alphaZ">      0.57280012 </i>
    <i name="ewald">    123.39213260 </i>
    <i name="hartreedc">   -856.53059663 </i>
    <i name="XCdc">     54.88327770 </i>
    <i name="pawpsdc">    576.04646720 </i>
    <i name="pawaedc">   -579.47719779 </i>
    <i name="eentropy">     -0.05640899 </i>
    <i name="bandstr">   -191.59969870 </i>
    <i name="atom">    864.00122898 </i>
    <i name="e_fr_energy">     -8.76799550 </i>
    <i name="e_wo_entrp">     -8.71158651 </i>
    <i name="e_0_energy">     -8.73979101 </i>
   </energy>
  </scstep>
  <scstep>
   <time name="dav">    2.40    2.52</time>
   <time name="total">    7.33    9.23</time>
   <energy>
    <i name="e_fr_energy">     -8.77419948 </i>
    <i name="e_wo_entrp">     -8.71798597 </i>
    <i name="e_0_energy">     -8.74609272 </i>
   </energy>
  </scstep>
  <scstep>
   <time name="dav">    1.72    2.19</time>
   <time name="total">    6.98    7.92</time>
   <energy>
    <i name="e_fr_energy">     -8.77043772 </i>
    <i name="e_wo_entrp">     -8.71406021 </i>
    <i name="e_0_energy">     -8.74224896 </i>
   </energy>
  </scstep>
  <scstep>
   <time name="dav">    1.93    2.49</time>
   <time name="total">    6.85    8.76</time>
   <energy>
    <i name="e_fr_energy">     -8.77413803 </i>
    <i name="e_wo_entrp">     -8.71772336 </i>
    <i name="e_0_energy">     -8.74593069 </i>
   </energy>
  </scstep>
  <scstep>
   <time name="dav">    2.49    2.55</time>
   <time name="total">    7.29    9.16</time>
   <energy>
    <i name="e_fr_energy">     -8.77466712 </i>
    <i name="e_wo_entrp">     -8.71825173 </i>
    <i name="e_0_energy">     -8.74645943 </i>
   </energy>
  </scstep>
  <scstep>
   <time name="dav">    2.28    2.68</time>
   <time name="total">    8.14    9.61</time>
   <energy>
    <i name="e_fr_energy">     -8.77469957 </i>
    <i name="e_wo_entrp">     -8.71828091 </i>
    <i name="e_0_energy">     -8.74649024 </i>
   </energy>
  </scstep>
  <scstep>
   <time name="dav">    1.97    2.35</time>
   <time name="total">    7.40    8.83</time>
   <energy>
    <i name="e_fr_energy">     -8.77478029 </i>
    <i name="e_wo_entrp">     -8.71836134 </i>
    <i name="e_0_energy">     -8.74657081 </i>
   </energy>
  </scstep>
  <scstep>
   <time name="dav">    2.18    2.74</time>
   <time name="total">    7.94   10.08</time>
   <energy>
    <i name="e_fr_energy">     -8.77479615 </i>
    <i name="e_wo_entrp">     -8.71837720 </i>
    <i name="e_0_energy">     -8.74658667 </i>
   </energy>
  </scstep>
  <scstep>
   <time name="dav">    2.88    3.31</time>
   <time name="total">    8.55   11.13</time>
   <energy>
    <i name="e_fr_energy">     -8.77480500 </i>
    <i name="e_wo_entrp">     -8.71838606 </i>
    <i name="e_0_energy">     -8.74659553 </i>
   </energy>
  </scstep>
  <scstep>
   <time name="dav">    2.17    2.51</time>
   <time name="total">    7.81    9.16</time>
   <energy>
    <i name="e_fr_energy">     -8.77480892 </i>
    <i name="e_wo_entrp">     -8.71839003 </i>
    <i name="e_0_energy">     -8.74659948 </i>
   </energy>
  </scstep>
  <scstep>
   <time name="dav">    2.08    2.48</time>
   <time name="total">    7.69    9.74</time>
   <energy>
    <i name="e_fr_energy">     -8.77481110 </i>
    <i name="e_wo_entrp">     -8.71839219 </i>
    <i name="e_0_energy">     -8.74660164 </i>
   </energy>
  </scstep>
  <scstep>
   <time name="dav">    2.50    3.07</time>
   <time name="total">    7.92   10.38</time>
   <energy>
    <i name="e_fr_energy">     -8.77481165 </i>
    <i name="e_wo_entrp">     -8.71839273 </i>
    <i name="e_0_energy">     -8.74660219 </i>
   </energy>
  </scstep>
  <scstep>
   <time name="dav">    2.57    3.49</time>
   <time name="total">    7.65   10.37</time>
   <energy>
    <i name="e_fr_energy">     -8.77481160 </i>
    <i name="e_wo_entrp">     -8.71839268 </i>
    <i name="e_0_energy">     -8.74660214 </i>
   </energy>
  </scstep>
  <scstep>
   <time name="dav">    1.81    2.15</time>
   <time name="total">    6.77    8.63</time>
   <energy>
    <i name="e_fr_energy">     -8.77481172 </i>
    <i name="e_wo_entrp">     -8.71839281 </i>
    <i name="e_0_energy">     -8.74660226 </i>
   </energy>
  </scstep>
  <scstep>
   <time name="dav">    2.12    2.42</time>
   <time name="total">    5.94    7.77</time>
   <energy>
    <i name="alphaZ">      0.57280012 </i>
    <i name="ewald">    123.39213260 </i>
    <i name="hartreedc">   -856.53549494 </i>
    <i name="XCdc">     54.88361680 </i>
    <i name="pawpsdc">    576.04646315 </i>
    <i name="pawaedc">   -579.47719358 </i>
    <i name="eentropy">     -0.05641892 </i>
    <i name="bandstr">   -191.60194594 </i>
    <i name="atom">    864.00122898 </i>
    <i name="e_fr_energy">     -8.77481172 </i>
    <i name="e_wo_entrp">     -8.71839280 </i>
    <i name="e_0_energy">     -8.74660226 </i>
   </energy>
  </scstep>
  <structure>
   <crystal>
    <varray name="basis" >
     <v>       9.80000000       0.00000000       0.00000000 </v>
     <v>       0.00000000       9.90000000       0.00000000 </v>
     <v>       0.00000000       0.00000000      10.00000000 </v>
    </varray>
    <i name="volume">    970.20000000 </i>
    <varray name="rec_basis" >
     <v>       0.10204082       0.00000000       0.00000000 </v>
     <v>       0.00000000       0.10101010       0.00000000 </v>
     <v>       0.00000000       0.00000000       0.10000000 </v>
    </varray>
   </crystal>
   <varray name="positions" >
    <v>       0.43683238       0.49848485       0.50000000 </v>
    <v>       0.56316762       0.50000000       0.50000000 </v>
   </varray>
  </structure>
  <varray name="forces" >
   <v>      -0.01207055      -0.00126359       0.00000000 </v>
   <v>       0.01207055       0.00126359       0.00000000 </v>
  </varray>
  <varray name="stress" >
   <v>      -6.08672348       0.01444166       0.00000000 </v>
   <v>       0.01444091      -7.31673441       0.00000000 </v>
   <v>       0.00000000       0.00000000      -7.25579699 </v>
  </varray>
  <energy>
   <i name="e_fr_energy">     -8.77481172 </i>
   <i name="e_wo_entrp">     -8.74660226 </i>
   <i name="e_0_energy">     -0.05641892 </i>
  </energy>
  <kpoints>
   <generation param="Monkhorst-Pack">
    <v type="int" name="divisions">       1        1        1 </v>
    <v name="usershift">      0.00000000       0.00000000       0.00000000 </v>
    <v name="genvec1">      1.00000000       0.00000000       0.00000000 </v>
    <v name="genvec2">      0.00000000       1.00000000       0.00000000 </v>
    <v name="genvec3">      0.00000000       0.00000000       1.00000000 </v>
    <v name="shift">      0.00000000       0.00000000       0.00000000 </v>
   </generation>
   <varray name="kpointlist" >
    <v>       0.00000000       0.00000000       0.00000000 </v>
   </varray>
   <varray name="weights" >
    <v>       1.00000000 </v>
   </varray>
  </kpoints>
  <time name="totalsc">  119.68  150.77</time>
 </calculation>
 <calculation>
  <scstep>
   <time name="dav">    1.86    2.03</time>
   <time name="total">    7.37    9.34</time>
   <energy>
    <i name="alphaZ">      0.57280012 </i>
    <i name="ewald">    123.39212239 </i>
    <i name="hartreedc">   -856.53303534 </i>
    <i name="XCdc">     54.88344734 </i>
    <i name="pawpsdc">    576.04645160 </i>
    <i name="pawaedc">   -579.47718202 </i>
    <i name="eentropy">     -0.05641676 </i>
    <i name="bandstr">   -191.60084368 </i>
    <i name="atom">    864.00122898 </i>
    <i name="e_fr_energy">     -8.77142736 </i>
    <i name="e_wo_entrp">     -8.71501060 </i>
    <i name="e_0_energy">     -8.74321898 </i>
   </energy>
  </scstep>
  <scstep>
   <time name="dav">    1.69    2.23</time>
   <time name="total">    6.85    8.79</time>
   <energy>
    <i name="e_fr_energy">     -8.77427863 </i>
    <i name="e_wo_entrp">     -8.71785972 </i>
    <i name="e_0_energy">     -8.74606917 </i>
   </energy>
  </scstep>
  <scstep>
   <time name="dav">    2.06    2.12</time>
   <time name="total">    6.44    7.69</time>
   <energy>
    <i name="e_fr_energy">     -8.77461327 </i>
    <i name="e_wo_entrp">     -8.71819438 </i>
    <i name="e_0_energy">     -8.74640383 </i>
   </energy>
  </scstep>
  <scstep>
   <time name="dav">    1.93    2.87</time>
   <time name="total">    6.94    9.02</time>
   <energy>
    <i name="e_fr_energy">     -8.77478025 </i>
    <i name="e_wo_entrp">     -8.71836135 </i>
    <i name="e_0_energy">     -8.74657080 </i>
   </energy>
  </scstep>
  <scstep>
   <time name="dav">    2.47    3.44</time>
   <time name="total">    7.87   10.42</time>
   <energy>
    <i name="e_fr_energy">     -8.77476571 </i>
    <i name="e_wo_entrp">     -8.71834746 </i>
    <i name="e_0_energy">     -8.74655658 </i>
   </energy>
  </scstep>
  <scstep>
   <time name="dav">    1.79    2.41</time>
   <time name="total">    6.74    9.20</time>
   <energy>
    <i name="e_fr_energy">     -8.77475150 </i>
    <i name="e_wo_entrp">     -8.71833255 </i>
    <i name="e_0_energy">     -8.74654202 </i>
   </energy>
  </scstep>
  <scstep>
   <time name="dav">    1.83    2.32</time>
   <time name="total">    7.08    8.92</time>
   <energy>
    <i name="e_fr_energy">     -8.77478242 </i>
    <i name="e_wo_entrp">     -8.71836354 </i>
    <i name="e_0_energy">     -8.74657298 </i>
   </energy>
  </scstep>
  <scstep>
   <time name="dav">    1.77    2.20</time>
   <time name="total">    7.17    8.79</time>
   <energy>
    <i name="e_fr_energy">     -8.77478164 </i>
    <i name="e_wo_entrp">     -8.71836271 </i>
    <i name="e_0_energy">     -8.74657218 </i>
   </energy>
  </scstep>
  <scstep>
   <time name="dav">    2.33    3.06</time>
   <time name="total">    7.02    9.14</time>
   <energy>
    <i name="e_fr_energy">     -8.77478333 </i>
    <i name="e_wo_entrp">     -8.71836443 </i>
    <i name="e_0_energy">     -8.74657388 </i>
   </energy>
  </scstep>
  <scstep>
   <time name="dav">    2.06    2.46</time>
   <time name="total">    6.37    7.76</time>
   <energy>
    <i name="e_fr_energy">     -8.77478384 </i>
    <i name="e_wo_entrp">     -8.71836493 </i>
    <i name="e_0_energy">     -8.74657438 </i>
   </energy>
  </scstep>
  <scstep>
   <time name="dav">    2.15    2.68</time>
   <time name="total">    6.85    8.64</time>
   <energy>
    <i name="e_fr_energy">     -8.77478406 </i>
    <i name="e_wo_entrp">     -8.71836515 </i>
    <i name="e_0_energy">     -8.74657461 </i>
   </energy>
  </scstep>
  <scstep>
   <time name="dav">    2.17    2.97</time>
   <time name="total">    7.55   10.05</time>
   <energy>
    <i name="e_fr_energy">     -8.77478422 </i>
    <i name="e_wo_entrp">     -8.71836531 </i>
    <i name="e_0_energy">     -8.74657477 </i>
   </energy>
  </scstep>
  <scstep>
   <time name="dav">    1.97    2.95</time>
   <time name="total">    6.88    9.08</time>
   <energy>
    <i name="e_fr_energy">     -8.77478425 </i>
    <i name="e_wo_entrp">     -8.71836533 </i>
    <i name="e_0_energy">     -8.74657479 </i>
   </energy>
  </scstep>
  <scstep>
   <time name="dav">    2.36    3.52</time>
   <time name="total">    6.52    9.34</time>
   <energy>
    <i name="alphaZ">      0.57280012 </i>
    <i name="ewald">    123.39212239 </i>
    <i name="hartreedc">   -856.53534382 </i>
    <i name="XCdc">     54.88361111 </i>
    <i name="pawpsdc">    576.04646931 </i>
    <i name="pawaedc">   -579.47719623 </i>
    <i name="eentropy">     -0.05641892 </i>
    <i name="bandstr">   -191.60205719 </i>
    <i name="atom">    864.00122898 </i>
    <i name="e_fr_energy">     -8.77478425 </i>
    <i name="e_wo_entrp">     -8.71836533 </i>
    <i name="e_0_energy">     -8.74657479 </i>
   </energy>
  </scstep>
  <structure>
   <crystal>
    <varray name="basis" >
     <v>       9.80000000       0.00000000       0.00000000 </v>
     <v>       0.00000000       9.90000000       0.00000000 </v>
     <v>       0.00000000       0.00000000      10.00000000 </v>
    </varray>
    <i name="volume">    970.20000000 </i>
    <varray name="rec_basis" >
     <v>       0.10204082       0.00000000       0.00000000 </v>
     <v>       0.00000000       0.10101010       0.00000000 </v>
     <v>       0.00000000       0.00000000       0.10000000 </v>
    </varray>
   </crystal>
   <varray name="positions" >
    <v>       0.43683238       0.50000000       0.50150000 </v>
    <v>       0.56316762       0.50000000       0.50000000 </v>
   </varray>
  </structure>
  <varray name="forces" >
   <v>      -0.01209025       0.00000000      -0.00048203 </v>
   <v>       0.01209025       0.00000000       0.00048203 </v>
  </varray>
  <varray name="stress" >
   <v>      -6.08689546       0.00000000      -0.01446593 </v>
   <v>       0.00000000      -7.31702242       0.00000000 </v>
   <v>      -0.01446571       0.00000000      -7.25553034 </v>
  </varray>
  <energy>
   <i name="e_fr_energy">     -8.77478425 </i>
   <i name="e_wo_entrp">     -8.74657479 </i>
   <i name="e_0_energy">     -0.05641892 </i>
  </energy>
  <kpoints>
   <generation param="Monkhorst-Pack">
    <v type="int" name="divisions">       1        1        1 </v>
    <v name="usershift">      0.00000000       0.00000000       0.00000000 </v>
    <v name="genvec1">      1.00000000       0.00000000       0.00000000 </v>
    <v name="genvec2">      0.00000000       1.00000000       0.00000000 </v>
    <v name="genvec3">      0.00000000       0.00000000       1.00000000 </v>
    <v name="shift">      0.00000000       0.00000000       0.00000000 </v>
   </generation>
   <varray name="kpointlist" >
    <v>       0.00000000       0.00000000       0.00000000 </v>
   </varray>
   <varray name="weights" >
    <v>       1.00000000 </v>
   </varray>
  </kpoints>
  <time name="totalsc">  104.98  136.32</time>
 </calculation>
 <calculation>
  <scstep>
   <time name="dav">    1.90    2.17</time>
   <time name="total">    6.83    7.71</time>
   <energy>
    <i name="alphaZ">      0.57280012 </i>
    <i name="ewald">    123.39212239 </i>
    <i name="hartreedc">   -856.53048024 </i>
    <i name="XCdc">     54.88327395 </i>
    <i name="pawpsdc">    576.04646908 </i>
    <i name="pawaedc">   -579.47719609 </i>
    <i name="eentropy">     -0.05641148 </i>
    <i name="bandstr">   -191.60116729 </i>
    <i name="atom">    864.00122898 </i>
    <i name="e_fr_energy">     -8.76936057 </i>
    <i name="e_wo_entrp">     -8.71294909 </i>
    <i name="e_0_energy">     -8.74115483 </i>
   </energy>
  </scstep>
  <scstep>
   <time name="dav">    1.73    2.29</time>
   <time name="total">    6.67    9.43</time>
   <energy>
    <i name="e_fr_energy">     -8.77416019 </i>
    <i name="e_wo_entrp">     -8.71795789 </i>
    <i name="e_0_energy">     -8.74605904 </i>
   </energy>
  </scstep>
  <scstep>
   <time name="dav">    1.80    2.18</time>
   <time name="total">    6.63    8.08</time>
   <energy>
    <i name="e_fr_energy">     -8.77040743 </i>
    <i name="e_wo_entrp">     -8.71401472 </i>
    <i name="e_0_energy">     -8.74221107 </i>
   </energy>
  </scstep>
  <scstep>
   <time name="dav">    2.21    2.45</time>
   <time name="total">    7.54   10.08</time>
   <energy>
    <i name="e_fr_energy">     -8.77428639 </i>
    <i name="e_wo_entrp">     -8.71787191 </i>
    <i name="e_0_energy">     -8.74607915 </i>
   </energy>
  </scstep>
  <scstep>
   <time name="dav">    1.80    2.27</time>
   <time name="total">    7.44    9.43</time>
   <energy>
    <i name="e_fr_energy">     -8.77466969 </i>
    <i name="e_wo_entrp">     -8.71825180 </i>
    <i name="e_0_energy">     -8.74646075 </i>
   </energy>
  </scstep>
  <scstep>
   <time name="dav">    1.83    2.49</time>
   <time name="total">    7.58    9.26</time>
   <energy>
    <i name="e_fr_energy">     -8.77471099 </i>
    <i name="e_wo_entrp">     -8.71829305 </i>
    <i name="e_0_energy">     -8.74650202 </i>
   </energy>
  </scstep>
  <scstep>
   <time name="dav">    1.86    2.06</time>
   <time name="total">    6.82    8.39</time>
   <energy>
    <i name="e_fr_energy">     -8.77474302 </i>
    <i name="e_wo_entrp">     -8.71832422 </i>
    <i name="e_0_energy">     -8.74653362 </i>
   </energy>
  </scstep>
  <scstep>
   <time name="dav">    2.00    2.42</time>
   <time name="total">    7.46   10.32</time>
   <energy>
    <i name="e_fr_energy">     -8.77476787 </i>
    <i name="e_wo_entrp">     -8.71834896 </i>
    <i name="e_0_energy">     -8.74655841 </i>
   </energy>
  </scstep>
  <scstep>
   <time name="dav">    2.51    3.02</time>
   <time name="total">    8.59   10.54</time>
   <energy>
    <i name="e_fr_energy">     -8.77478040 </i>
    <i name="e_wo_entrp">     -8.71836150 </i>
    <i name="e_0_energy">     -8.74657095 </i>
   </energy>
  </scstep>
  <scstep>
   <time name="dav">    1.91    2.54</time>
   <time name="total">    7.85   11.26</time>
   <energy>
    <i name="e_fr_energy">     -8.77478295 </i>
    <i name="e_wo_entrp">     -8.71836402 </i>
    <i name="e_0_energy">     -8.74657348 </i>
   </energy>
  </scstep>
  <scstep>
   <time name="dav">    2.14    2.83</time>
   <time name="total">    7.98   10.60</time>
   <energy>
    <i name="e_fr_energy">     -8.77478341 </i>
    <i name="e_wo_entrp">     -8.71836450 </i>
    <i name="e_0_energy">     -8.74657395 </i>
   </energy>
  </scstep>
  <scstep>
   <time name="dav">    2.01    2.35</time>
   <time name="total">    7.06    8.80</time>
   <energy>
    <i name="e_fr_energy">     -8.77478418 </i>
    <i name="e_wo_entrp">     -8.71836527 </i>
    <i name="e_0_energy">     -8.74657473 </i>
   </energy>
  </scstep>
  <scstep>
   <time name="dav">    1.55    1.69</time>
   <time name="total">    6.73    7.99</time>
   <energy>
    <i name="e_fr_energy">     -8.77478414 </i>
    <i name="e_wo_entrp">     -8.71836523 </i>
    <i name="e_0_energy">     -8.74657468 </i>
   </energy>
  </scstep>
  <scstep>
   <time name="dav">    2.02    2.57</time>
   <time name="total">    7.25    9.08</time>
   <energy>
    <i name="e_fr_energy">     -8.77478424 </i>
    <i name="e_wo_entrp">     -8.71836532 </i>
    <i name="e_0_energy">     -8.74657478 </i>
   </energy>
  </scstep>
  <scstep>
   <time name="dav">    2.00    2.66</time>
   <time name="total">    6.51    7.77</time>
   <energy>
    <i name="alphaZ">      0.57280012 </i>
    <i name="ewald">    123.39212239 </i>
    <i name="hartreedc">   -856.53535121 </i>
    <i name="XCdc">     54.88361127 </i>
    <i name="pawpsdc">    576.04647130 </i>
    <i name="pawaedc">   -579.47719827 </i>
    <i name="eentropy">     -0.05641892 </i>
    <i name="bandstr">   -191.60204992 </i>
    <i name="atom">    864.00122898 </i>
    <i name="e_fr_energy">     -8.77478425 </i>
    <i name="e_wo_entrp">     -8.71836533 </i>
    <i name="e_0_energy">     -8.74657479 </i>
   </energy>
  </scstep>
  <structure>
   <crystal>
    <varray name="basis" >
     <v>       9.80000000       0.00000000       0.00000000 </v>
     <v>       0.00000000       9.90000000       0.00000000 </v>
     <v>       0.00000000       0.00000000      10.00000000 </v>
    </varray>
    <i name="volume">    970.20000000 </i>
    <varray name="rec_basis" >
     <v>       0.10204082       0.00000000       0.00000000 </v>
     <v>       0.00000000       0.10101010       0.00000000 </v>
     <v>       0.00000000       0.00000000       0.10000000 </v>
    </varray>
   </crystal>
   <varray name="positions" >
    <v>       0.43683238       0.50000000       0.49850000 </v>
    <v>       0.56316762       0.50000000       0.50000000 </v>
   </varray>
  </structure>
  <varray name="forces" >
   <v>      -0.01209119       0.00000000       0.00048024 </v>
   <v>       0.01209119       0.00000000      -0.00048024 </v>
  </varray>
  <varray name="stress" >
   <v>      -6.08690293       0.00000000       0.01445962 </v>
   <v>       0.00000000      -7.31693835       0.00000000 </v>
   <v>       0.01446001       0.00000000      -7.25564116 </v>
  </varray>
  <energy>
   <i name="e_fr_energy">     -8.77478425 </i>
   <i name="e_wo_entrp">     -8.74657479 </i>
   <i name="e_0_energy">     -0.05641892 </i>
  </energy>
  <dynmat>
   <varray name="hessian" >
    <v>      -4.29489322       0.00000000       0.00000000       4.29489322       0.00000000       0.00000000 </v>
    <v>       0.00000000       0.00527073       0.00000000       0.00000000      -0.00527073       0.00000000 </v>
    <v>       0.00000000       0.00000000      -0.00200474       0.00000000       0.00000000       0.00200474 </v>
    <v>       4.29489322       0.00000000       0.00000000      -4.29489322       0.00000000       0.00000000 </v>
    <v>       0.00000000      -0.00527073       0.00000000       0.00000000       0.00527073       0.00000000 </v>
    <v>       0.00000000       0.00000000       0.00200474       0.00000000       0.00000000      -0.00200474 </v>
   </varray>
   <v name="eigenvalues"> -8.58978643E+00 -4.00947509E-03 -3.78811575E-16  0.00000000E+00  6.58014854E-17  1.05414613E-02</v>
   <varray name="eigenvectors" >
    <v>  -7.07106781E-01  2.24041604E-20  0.00000000E+00  7.07106781E-01  3.65347902E-17  0.00000000E+00</v>
    <v>   0.00000000E+00  0.00000000E+00 -7.07106781E-01  0.00000000E+00  0.00000000E+00  7.07106781E-01</v>
    <v>   5.11988481E-01 -4.87716922E-01  0.00000000E+00  5.11988481E-01 -4.87716922E-01  0.00000000E+00</v>
    <v>   0.00000000E+00  0.00000000E+00  7.07106781E-01  0.00000000E+00  0.00000000E+00  7.07106781E-01</v>
    <v>  -4.87716922E-01 -5.11988481E-01  0.00000000E+00 -4.87716922E-01 -5.11988481E-01  0.00000000E+00</v>
    <v>   1.49127040E-14 -7.07106781E-01  0.00000000E+00  1.48761916E-14  7.07106781E-01  0.00000000E+00</v>
   </varray>
  </dynmat>
  <kpoints>
   <generation param="Monkhorst-Pack">
    <v type="int" name="divisions">       1        1        1 </v>
    <v name="usershift">      0.00000000       0.00000000       0.00000000 </v>
    <v name="genvec1">      1.00000000       0.00000000       0.00000000 </v>
    <v name="genvec2">      0.00000000       1.00000000       0.00000000 </v>
    <v name="genvec3">      0.00000000       0.00000000       1.00000000 </v>
    <v name="shift">      0.00000000       0.00000000       0.00000000 </v>
   </generation>
   <varray name="kpointlist" >
    <v>       0.00000000       0.00000000       0.00000000 </v>
   </varray>
   <varray name="weights" >
    <v>       1.00000000 </v>
   </varray>
  </kpoints>
  <time name="totalsc">  115.46  147.91</time>
  <eigenvalues>
   <array>
    <dimension dim="1">band</dimension>
    <dimension dim="2">kpoint</dimension>
    <dimension dim="3">spin</dimension>
    <field>eigene</field>
    <field>occ</field>
    <set>
     <set comment="spin 1">
      <set comment="kpoint 1">
       <r>  -31.9813    1.0000 </r>
       <r>  -19.9456    1.0000 </r>
       <r>  -13.0248    1.0000 </r>
       <r>  -12.4385    1.0000 </r>
       <r>  -12.4383    1.0000 </r>
       <r>   -5.9725    0.5005 </r>
       <r>   -5.9724    0.4995 </r>
       <r>   -0.3140    0.0000 </r>
       <r>    0.9229    0.0000 </r>
       <r>    1.1258    0.0000 </r>
      </set>
     </set>
    </set>
   </array>
  </eigenvalues>
  <separator name="orbital magnetization" >
   <v name="MAGDIPOLOUT">      0.00000000      0.00000000      0.00000000</v>
  </separator>
  <dos>
   <i name="efermi">     -5.97245283 </i>
   <total>
    <array>
     <dimension dim="1">gridpoints</dimension>
     <dimension dim="2">spin</dimension>
     <field>energy</field>
     <field>total</field>
     <field>integrated</field>
     <set>
      <set comment="spin 1">
       <r>   -33.6367     0.0000     0.0000 </r>
       <r>   -33.5153     0.0000     0.0000 </r>
       <r>   -33.3939     0.0000     0.0000 </r>
       <r>   -33.2725     0.0000     0.0000 </r>
       <r>   -33.1511     0.0000     0.0000 </r>
       <r>   -33.0297     0.0000     0.0000 </r>
       <r>   -32.9083     0.0000     0.0000 </r>
       <r>   -32.7869     0.0000     0.0000 </r>
       <r>   -32.6655     0.0000     0.0000 </r>
       <r>   -32.5441     0.0000     0.0000 </r>
       <r>   -32.4227     0.0000     0.0000 </r>
       <r>   -32.3013     0.0000     0.0000 </r>
       <r>   -32.1799     0.0000     0.0000 </r>
       <r>   -32.0586     0.2380     0.0289 </r>
       <r>   -31.9372    14.4924     1.7882 </r>
       <r>   -31.8158     1.7450     2.0000 </r>
       <r>   -31.6944     0.0000     2.0000 </r>
       <r>   -31.5730     0.0000     2.0000 </r>
       <r>   -31.4516     0.0000     2.0000 </r>
       <r>   -31.3302     0.0000     2.0000 </r>
       <r>   -31.2088     0.0000     2.0000 </r>
       <r>   -31.0874     0.0000     2.0000 </r>
       <r>   -30.9660     0.0000     2.0000 </r>
       <r>   -30.8446     0.0000     2.0000 </r>
       <r>   -30.7232     0.0000     2.0000 </r>
       <r>   -30.6018     0.0000     2.0000 </r>
       <r>   -30.4804     0.0000     2.0000 </r>
       <r>   -30.3591     0.0000     2.0000 </r>
       <r>   -30.2377     0.0000     2.0000 </r>
       <r>   -30.1163     0.0000     2.0000 </r>
       <r>   -29.9949     0.0000     2.0000 </r>
       <r>   -29.8735     0.0000     2.0000 </r>
       <r>   -29.7521     0.0000     2.0000 </r>
       <r>   -29.6307     0.0000     2.0000 </r>
       <r>   -29.5093     0.0000     2.0000 </r>
       <r>   -29.3879     0.0000     2.0000 </r>
       <r>   -29.2665     0.0000     2.0000 </r>
       <r>   -29.1451     0.0000     2.0000 </r>
       <r>   -29.0237     0.0000     2.0000 </r>
       <r>   -28.9023     0.0000     2.0000 </r>
       <r>   -28.7809     0.0000     2.0000 </r>
       <r>   -28.6596     0.0000     2.0000 </r>
       <r>   -28.5382     0.0000     2.0000 </r>
       <r>   -28.4168     0.0000     2.0000 </r>
       <r>   -28.2954     0.0000     2.0000 </r>
       <r>   -28.1740     0.0000     2.0000 </r>
       <r>   -28.0526     0.0000     2.0000 </r>
       <r>   -27.9312     0.0000     2.0000 </r>
       <r>   -27.8098     0.0000     2.0000 </r>
       <r>   -27.6884     0.0000     2.0000 </r>
       <r>   -27.5670     0.0000     2.0000 </r>
       <r>   -27.4456     0.0000     2.0000 </r>
       <r>   -27.3242     0.0000     2.0000 </r>
       <r>   -27.2028     0.0000     2.0000 </r>
       <r>   -27.0814     0.0000     2.0000 </r>
       <r>   -26.9601     0.0000     2.0000 </r>
       <r>   -26.8387     0.0000     2.0000 </r>
       <r>   -26.7173     0.0000     2.0000 </r>
       <r>   -26.5959     0.0000     2.0000 </r>
       <r>   -26.4745     0.0000     2.0000 </r>
       <r>   -26.3531     0.0000     2.0000 </r>
       <r>   -26.2317     0.0000     2.0000 </r>
       <r>   -26.1103     0.0000     2.0000 </r>
       <r>   -25.9889     0.0000     2.0000 </r>
       <r>   -25.8675     0.0000     2.0000 </r>
       <r>   -25.7461     0.0000     2.0000 </r>
       <r>   -25.6247     0.0000     2.0000 </r>
       <r>   -25.5033     0.0000     2.0000 </r>
       <r>   -25.3820     0.0000     2.0000 </r>
       <r>   -25.2606     0.0000     2.0000 </r>
       <r>   -25.1392     0.0000     2.0000 </r>
       <r>   -25.0178     0.0000     2.0000 </r>
       <r>   -24.8964     0.0000     2.0000 </r>
       <r>   -24.7750     0.0000     2.0000 </r>
       <r>   -24.6536     0.0000     2.0000 </r>
       <r>   -24.5322     0.0000     2.0000 </r>
       <r>   -24.4108     0.0000     2.0000 </r>
       <r>   -24.2894     0.0000     2.0000 </r>
       <r>   -24.1680     0.0000     2.0000 </r>
       <r>   -24.0466     0.0000     2.0000 </r>
       <r>   -23.9252     0.0000     2.0000 </r>
       <r>   -23.8038     0.0000     2.0000 </r>
       <r>   -23.6825     0.0000     2.0000 </r>
       <r>   -23.5611     0.0000     2.0000 </r>
       <r>   -23.4397     0.0000     2.0000 </r>
       <r>   -23.3183     0.0000     2.0000 </r>
       <r>   -23.1969     0.0000     2.0000 </r>
       <r>   -23.0755     0.0000     2.0000 </r>
       <r>   -22.9541     0.0000     2.0000 </r>
       <r>   -22.8327     0.0000     2.0000 </r>
       <r>   -22.7113     0.0000     2.0000 </r>
       <r>   -22.5899     0.0000     2.0000 </r>
       <r>   -22.4685     0.0000     2.0000 </r>
       <r>   -22.3471     0.0000     2.0000 </r>
       <r>   -22.2257     0.0000     2.0000 </r>
       <r>   -22.1043     0.0000     2.0000 </r>
       <r>   -21.9830     0.0000     2.0000 </r>
       <r>   -21.8616     0.0000     2.0000 </r>
       <r>   -21.7402     0.0000     2.0000 </r>
       <r>   -21.6188     0.0000     2.0000 </r>
       <r>   -21.4974     0.0000     2.0000 </r>
       <r>   -21.3760     0.0000     2.0000 </r>
       <r>   -21.2546     0.0000     2.0000 </r>
       <r>   -21.1332     0.0000     2.0000 </r>
       <r>   -21.0118     0.0000     2.0000 </r>
       <r>   -20.8904     0.0000     2.0000 </r>
       <r>   -20.7690     0.0000     2.0000 </r>
       <r>   -20.6476     0.0000     2.0000 </r>
       <r>   -20.5262     0.0000     2.0000 </r>
       <r>   -20.4048     0.0000     2.0000 </r>
       <r>   -20.2835     0.0000     2.0000 </r>
       <r>   -20.1621     0.0000     2.0000 </r>
       <r>   -20.0407     0.0593     2.0072 </r>
       <r>   -19.9193    12.6619     3.5443 </r>
       <r>   -19.7979     3.7540     4.0000 </r>
       <r>   -19.6765     0.0002     4.0000 </r>
       <r>   -19.5551     0.0000     4.0000 </r>
       <r>   -19.4337     0.0000     4.0000 </r>
       <r>   -19.3123     0.0000     4.0000 </r>
       <r>   -19.1909     0.0000     4.0000 </r>
       <r>   -19.0695     0.0000     4.0000 </r>
       <r>   -18.9481     0.0000     4.0000 </r>
       <r>   -18.8267     0.0000     4.0000 </r>
       <r>   -18.7054     0.0000     4.0000 </r>
       <r>   -18.5840     0.0000     4.0000 </r>
       <r>   -18.4626     0.0000     4.0000 </r>
       <r>   -18.3412     0.0000     4.0000 </r>
       <r>   -18.2198     0.0000     4.0000 </r>
       <r>   -18.0984     0.0000     4.0000 </r>
       <r>   -17.9770     0.0000     4.0000 </r>
       <r>   -17.8556     0.0000     4.0000 </r>
       <r>   -17.7342     0.0000     4.0000 </r>
       <r>   -17.6128     0.0000     4.0000 </r>
       <r>   -17.4914     0.0000     4.0000 </r>
       <r>   -17.3700     0.0000     4.0000 </r>
       <r>   -17.2486     0.0000     4.0000 </r>
       <r>   -17.1272     0.0000     4.0000 </r>
       <r>   -17.0059     0.0000     4.0000 </r>
       <r>   -16.8845     0.0000     4.0000 </r>
       <r>   -16.7631     0.0000     4.0000 </r>
       <r>   -16.6417     0.0000     4.0000 </r>
       <r>   -16.5203     0.0000     4.0000 </r>
       <r>   -16.3989     0.0000     4.0000 </r>
       <r>   -16.2775     0.0000     4.0000 </r>
       <r>   -16.1561     0.0000     4.0000 </r>
       <r>   -16.0347     0.0000     4.0000 </r>
       <r>   -15.9133     0.0000     4.0000 </r>
       <r>   -15.7919     0.0000     4.0000 </r>
       <r>   -15.6705     0.0000     4.0000 </r>
       <r>   -15.5491     0.0000     4.0000 </r>
       <r>   -15.4277     0.0000     4.0000 </r>
       <r>   -15.3064     0.0000     4.0000 </r>
       <r>   -15.1850     0.0000     4.0000 </r>
       <r>   -15.0636     0.0000     4.0000 </r>
       <r>   -14.9422     0.0000     4.0000 </r>
       <r>   -14.8208     0.0000     4.0000 </r>
       <r>   -14.6994     0.0000     4.0000 </r>
       <r>   -14.5780     0.0000     4.0000 </r>
       <r>   -14.4566     0.0000     4.0000 </r>
       <r>   -14.3352     0.0000     4.0000 </r>
       <r>   -14.2138     0.0000     4.0000 </r>
       <r>   -14.0924     0.0000     4.0000 </r>
       <r>   -13.9710     0.0000     4.0000 </r>
       <r>   -13.8496     0.0000     4.0000 </r>
       <r>   -13.7283     0.0000     4.0000 </r>
       <r>   -13.6069     0.0000     4.0000 </r>
       <r>   -13.4855     0.0000     4.0000 </r>
       <r>   -13.3641     0.0000     4.0000 </r>
       <r>   -13.2427     0.0000     4.0000 </r>
       <r>   -13.1213     0.0523     4.0064 </r>
       <r>   -12.9999    12.4600     5.5189 </r>
       <r>   -12.8785     3.9628     6.0000 </r>
       <r>   -12.7571     0.0003     6.0000 </r>
       <r>   -12.6357     0.0000     6.0000 </r>
       <r>   -12.5143     0.5236     6.0636 </r>
       <r>   -12.3929    29.1598     9.6034 </r>
       <r>   -12.2715     3.2675    10.0000 </r>
       <r>   -12.1501     0.0000    10.0000 </r>
       <r>   -12.0288     0.0000    10.0000 </r>
       <r>   -11.9074     0.0000    10.0000 </r>
       <r>   -11.7860     0.0000    10.0000 </r>
       <r>   -11.6646     0.0000    10.0000 </r>
       <r>   -11.5432     0.0000    10.0000 </r>
       <r>   -11.4218     0.0000    10.0000 </r>
       <r>   -11.3004     0.0000    10.0000 </r>
       <r>   -11.1790     0.0000    10.0000 </r>
       <r>   -11.0576     0.0000    10.0000 </r>
       <r>   -10.9362     0.0000    10.0000 </r>
       <r>   -10.8148     0.0000    10.0000 </r>
       <r>   -10.6934     0.0000    10.0000 </r>
       <r>   -10.5720     0.0000    10.0000 </r>
       <r>   -10.4506     0.0000    10.0000 </r>
       <r>   -10.3293     0.0000    10.0000 </r>
       <r>   -10.2079     0.0000    10.0000 </r>
       <r>   -10.0865     0.0000    10.0000 </r>
       <r>    -9.9651     0.0000    10.0000 </r>
       <r>    -9.8437     0.0000    10.0000 </r>
       <r>    -9.7223     0.0000    10.0000 </r>
       <r>    -9.6009     0.0000    10.0000 </r>
       <r>    -9.4795     0.0000    10.0000 </r>
       <r>    -9.3581     0.0000    10.0000 </r>
       <r>    -9.2367     0.0000    10.0000 </r>
       <r>    -9.1153     0.0000    10.0000 </r>
       <r>    -8.9939     0.0000    10.0000 </r>
       <r>    -8.8725     0.0000    10.0000 </r>
       <r>    -8.7511     0.0000    10.0000 </r>
       <r>    -8.6298     0.0000    10.0000 </r>
       <r>    -8.5084     0.0000    10.0000 </r>
       <r>    -8.3870     0.0000    10.0000 </r>
       <r>    -8.2656     0.0000    10.0000 </r>
       <r>    -8.1442     0.0000    10.0000 </r>
       <r>    -8.0228     0.0000    10.0000 </r>
       <r>    -7.9014     0.0000    10.0000 </r>
       <r>    -7.7800     0.0000    10.0000 </r>
       <r>    -7.6586     0.0000    10.0000 </r>
       <r>    -7.5372     0.0000    10.0000 </r>
       <r>    -7.4158     0.0000    10.0000 </r>
       <r>    -7.2944     0.0000    10.0000 </r>
       <r>    -7.1730     0.0000    10.0000 </r>
       <r>    -7.0517     0.0000    10.0000 </r>
       <r>    -6.9303     0.0000    10.0000 </r>
       <r>    -6.8089     0.0000    10.0000 </r>
       <r>    -6.6875     0.0000    10.0000 </r>
       <r>    -6.5661     0.0000    10.0000 </r>
       <r>    -6.4447     0.0000    10.0000 </r>
       <r>    -6.3233     0.0000    10.0000 </r>
       <r>    -6.2019     0.0000    10.0000 </r>
       <r>    -6.0805     0.0369    10.0045 </r>
       <r>    -5.9591    21.2822    12.5880 </r>
       <r>    -5.8377    11.6295    13.9997 </r>
       <r>    -5.7163     0.0023    14.0000 </r>
       <r>    -5.5949     0.0000    14.0000 </r>
       <r>    -5.4735     0.0000    14.0000 </r>
       <r>    -5.3522     0.0000    14.0000 </r>
       <r>    -5.2308     0.0000    14.0000 </r>
       <r>    -5.1094     0.0000    14.0000 </r>
       <r>    -4.9880     0.0000    14.0000 </r>
       <r>    -4.8666     0.0000    14.0000 </r>
       <r>    -4.7452     0.0000    14.0000 </r>
       <r>    -4.6238     0.0000    14.0000 </r>
       <r>    -4.5024     0.0000    14.0000 </r>
       <r>    -4.3810     0.0000    14.0000 </r>
       <r>    -4.2596     0.0000    14.0000 </r>
       <r>    -4.1382     0.0000    14.0000 </r>
       <r>    -4.0168     0.0000    14.0000 </r>
       <r>    -3.8954     0.0000    14.0000 </r>
       <r>    -3.7740     0.0000    14.0000 </r>
       <r>    -3.6527     0.0000    14.0000 </r>
       <r>    -3.5313     0.0000    14.0000 </r>
       <r>    -3.4099     0.0000    14.0000 </r>
       <r>    -3.2885     0.0000    14.0000 </r>
       <r>    -3.1671     0.0000    14.0000 </r>
       <r>    -3.0457     0.0000    14.0000 </r>
       <r>    -2.9243     0.0000    14.0000 </r>
       <r>    -2.8029     0.0000    14.0000 </r>
       <r>    -2.6815     0.0000    14.0000 </r>
       <r>    -2.5601     0.0000    14.0000 </r>
       <r>    -2.4387     0.0000    14.0000 </r>
       <r>    -2.3173     0.0000    14.0000 </r>
       <r>    -2.1959     0.0000    14.0000 </r>
       <r>    -2.0745     0.0000    14.0000 </r>
       <r>    -1.9532     0.0000    14.0000 </r>
       <r>    -1.8318     0.0000    14.0000 </r>
       <r>    -1.7104     0.0000    14.0000 </r>
       <r>    -1.5890     0.0000    14.0000 </r>
       <r>    -1.4676     0.0000    14.0000 </r>
       <r>    -1.3462     0.0000    14.0000 </r>
       <r>    -1.2248     0.0000    14.0000 </r>
       <r>    -1.1034     0.0000    14.0000 </r>
       <r>    -0.9820     0.0000    14.0000 </r>
       <r>    -0.8606     0.0000    14.0000 </r>
       <r>    -0.7392     0.0000    14.0000 </r>
       <r>    -0.6178     0.0000    14.0000 </r>
       <r>    -0.4964     0.0000    14.0000 </r>
       <r>    -0.3751     0.6934    14.0842 </r>
       <r>    -0.2537    15.0579    15.9121 </r>
       <r>    -0.1323     0.7242    16.0000 </r>
       <r>    -0.0109     0.0000    16.0000 </r>
       <r>     0.1105     0.0000    16.0000 </r>
       <r>     0.2319     0.0000    16.0000 </r>
       <r>     0.3533     0.0000    16.0000 </r>
       <r>     0.4747     0.0000    16.0000 </r>
       <r>     0.5961     0.0000    16.0000 </r>
       <r>     0.7175     0.0000    16.0000 </r>
       <r>     0.8389     0.1445    16.0175 </r>
       <r>     0.9603    13.9428    17.7101 </r>
       <r>     1.0817     4.1331    18.2118 </r>
       <r>     1.2031    14.4925    19.9711 </r>
       <r>     1.3244     0.2380    20.0000 </r>
       <r>     1.4458     0.0000    20.0000 </r>
       <r>     1.5672     0.0000    20.0000 </r>
       <r>     1.6886     0.0000    20.0000 </r>
       <r>     1.8100     0.0000    20.0000 </r>
       <r>     1.9314     0.0000    20.0000 </r>
       <r>     2.0528     0.0000    20.0000 </r>
       <r>     2.1742     0.0000    20.0000 </r>
       <r>     2.2956     0.0000    20.0000 </r>
       <r>     2.4170     0.0000    20.0000 </r>
       <r>     2.5384     0.0000    20.0000 </r>
       <r>     2.6598     0.0000    20.0000 </r>
       <r>     2.7812     0.0000    20.0000 </r>
      </set>
     </set>
    </array>
   </total>
  </dos>
 </calculation>
 <structure name="finalpos" >
  <crystal>
   <varray name="basis" >
    <v>       9.80000000       0.00000000       0.00000000 </v>
    <v>       0.00000000       9.90000000       0.00000000 </v>
    <v>       0.00000000       0.00000000      10.00000000 </v>
   </varray>
   <i name="volume">    970.20000000 </i>
   <varray name="rec_basis" >
    <v>       0.10204082       0.00000000       0.00000000 </v>
    <v>       0.00000000       0.10101010       0.00000000 </v>
    <v>       0.00000000       0.00000000       0.10000000 </v>
   </varray>
  </crystal>
  <varray name="positions" >
   <v>       0.43683238       0.50000000       0.49850000 </v>
   <v>       0.56316762       0.50000000       0.50000000 </v>
  </varray>
 </structure>
</modeling>
