unknown system                          
           1
     9.800000    0.000000    0.000000
     0.000000    9.900000    0.000000
     0.000000    0.000000   10.000000
   O 
   2
Direct configuration=     1
   0.43683238  0.50000000  0.50000000
   0.56316762  0.50000000  0.50000000
Direct configuration=     2
   0.43836299  0.50000000  0.50000000
   0.56316762  0.50000000  0.50000000
Direct configuration=     3
   0.43530177  0.50000000  0.50000000
   0.56316762  0.50000000  0.50000000
Direct configuration=     4
   0.43683238  0.50151515  0.50000000
   0.56316762  0.50000000  0.50000000
Direct configuration=     5
   0.43683238  0.49848485  0.50000000
   0.56316762  0.50000000  0.50000000
Direct configuration=     6
   0.43683238  0.50000000  0.50150000
   0.56316762  0.50000000  0.50000000
Direct configuration=     7
   0.43683238  0.50000000  0.49850000
   0.56316762  0.50000000  0.50000000
