   2   2   1   0
  0.1120935E+02  0.3165010E-09  0.3165010E-09  0.3165010E-09  0.5000000E-15
  1.000000000000000E-004
  CAR 
 unknown system                          
     23.64324465     -7.52191057  301      8.32467595      1.00000000
     -7.522  0.0000E+00  0.0000E+00  0.0000E+00  0.0000E+00
     -7.418  0.0000E+00  0.0000E+00  0.0000E+00  0.0000E+00
     -7.314  0.0000E+00  0.0000E+00  0.0000E+00  0.0000E+00
     -7.210  0.0000E+00  0.0000E+00  0.0000E+00  0.0000E+00
     -7.106  0.0000E+00  0.0000E+00  0.0000E+00  0.0000E+00
     -7.002  0.0000E+00  0.0000E+00  0.0000E+00  0.0000E+00
     -6.899  0.0000E+00  0.0000E+00  0.0000E+00  0.0000E+00
     -6.795  0.0000E+00  0.0000E+00  0.0000E+00  0.0000E+00
     -6.691  0.0000E+00  0.0000E+00  0.0000E+00  0.0000E+00
     -6.587 -0.5132E-41 -0.4586E-41 -0.5331E-42 -0.4764E-42
     -6.483 -0.1300E-25 -0.1191E-25 -0.1350E-26 -0.1237E-26
     -6.379 -0.5242E-14 -0.4921E-14 -0.5446E-15 -0.5112E-15
     -6.275 -0.3158E-06 -0.3040E-06 -0.3281E-07 -0.3159E-07
     -6.171 -0.1285E-02 -0.1279E-02 -0.1335E-03 -0.1330E-03
     -6.068  0.3805E-01  0.3798E-01  0.3819E-02  0.3813E-02
     -5.964  0.6959E-03  0.7661E-03  0.3892E-02  0.3892E-02
     -5.860  0.2201E-01  0.2155E-01  0.6178E-02  0.6131E-02
     -5.756  0.9311E-01  0.9359E-01  0.1585E-01  0.1585E-01
     -5.652 -0.5461E-02 -0.5460E-02  0.1528E-01  0.1529E-01
     -5.548  0.1077E+00  0.1073E+00  0.2647E-01  0.2644E-01
     -5.444  0.6482E-02  0.6842E-02  0.2714E-01  0.2715E-01
     -5.340  0.9668E-01  0.9593E-01  0.3719E-01  0.3711E-01
     -5.236  0.5641E-01  0.5714E-01  0.4305E-01  0.4305E-01
     -5.133  0.1673E-01  0.1599E-01  0.4479E-01  0.4471E-01
     -5.029  0.2146E+00  0.2154E+00  0.6708E-01  0.6709E-01
     -4.925 -0.9861E-02 -0.9895E-02  0.6606E-01  0.6606E-01
     -4.821  0.1051E+00  0.1046E+00  0.7697E-01  0.7693E-01
     -4.717  0.1246E+00  0.1250E+00  0.8992E-01  0.8992E-01
     -4.613  0.9279E-01  0.9237E-01  0.9956E-01  0.9951E-01
     -4.509  0.1744E+00  0.1734E+00  0.1177E+00  0.1175E+00
     -4.405  0.1064E+00  0.1071E+00  0.1287E+00  0.1287E+00
     -4.302  0.9601E-01  0.9590E-01  0.1387E+00  0.1386E+00
     -4.198  0.2129E+00  0.2137E+00  0.1608E+00  0.1608E+00
     -4.094  0.1236E-01  0.1116E-01  0.1621E+00  0.1620E+00
     -3.990  0.7118E+00  0.7107E+00  0.2360E+00  0.2358E+00
     -3.886  0.9651E-01  0.9806E-01  0.2461E+00  0.2460E+00
     -3.782  0.8148E+00  0.8110E+00  0.3307E+00  0.3302E+00
     -3.678  0.2182E+00  0.2223E+00  0.3534E+00  0.3533E+00
     -3.574  0.4076E+00  0.4041E+00  0.3957E+00  0.3953E+00
     -3.470  0.5204E+00  0.5231E+00  0.4498E+00  0.4497E+00
     -3.367  0.6674E+00  0.6640E+00  0.5191E+00  0.5186E+00
     -3.263  0.6514E+00  0.6521E+00  0.5868E+00  0.5864E+00
     -3.159  0.4958E+00  0.4958E+00  0.6383E+00  0.6379E+00
     -3.055  0.7239E+00  0.7260E+00  0.7135E+00  0.7133E+00
     -2.951  0.5057E+00  0.5039E+00  0.7660E+00  0.7657E+00
     -2.847  0.7825E+00  0.7814E+00  0.8473E+00  0.8468E+00
     -2.743  0.4478E+00  0.4513E+00  0.8938E+00  0.8937E+00
     -2.639  0.2196E+00  0.2198E+00  0.9166E+00  0.9166E+00
     -2.535  0.8577E-01  0.8557E-01  0.9256E+00  0.9255E+00
     -2.432  0.4681E+00  0.4689E+00  0.9742E+00  0.9742E+00
     -2.328  0.2316E-01  0.2296E-01  0.9766E+00  0.9766E+00
     -2.224  0.1164E+00  0.1167E+00  0.9887E+00  0.9887E+00
     -2.120  0.1715E-01  0.1613E-01  0.9905E+00  0.9904E+00
     -2.016  0.9403E-01  0.9513E-01  0.1000E+01  0.1000E+01
     -1.912 -0.2230E-02 -0.2303E-02  0.1000E+01  0.1000E+01
     -1.808 -0.8684E-07 -0.9627E-07  0.1000E+01  0.1000E+01
     -1.704 -0.3256E-15 -0.3757E-15  0.1000E+01  0.1000E+01
     -1.601  0.0000E+00  0.0000E+00  0.1000E+01  0.1000E+01
     -1.497  0.0000E+00  0.0000E+00  0.1000E+01  0.1000E+01
     -1.393  0.0000E+00  0.0000E+00  0.1000E+01  0.1000E+01
     -1.289  0.0000E+00  0.0000E+00  0.1000E+01  0.1000E+01
     -1.185  0.0000E+00  0.0000E+00  0.1000E+01  0.1000E+01
     -1.081  0.0000E+00  0.0000E+00  0.1000E+01  0.1000E+01
     -0.977  0.0000E+00  0.0000E+00  0.1000E+01  0.1000E+01
     -0.873  0.0000E+00  0.0000E+00  0.1000E+01  0.1000E+01
     -0.769  0.0000E+00  0.0000E+00  0.1000E+01  0.1000E+01
     -0.666  0.0000E+00  0.0000E+00  0.1000E+01  0.1000E+01
     -0.562  0.0000E+00  0.0000E+00  0.1000E+01  0.1000E+01
     -0.458 -0.5926E-42 -0.6353E-42  0.1000E+01  0.1000E+01
     -0.354 -0.3038E-26 -0.3208E-26  0.1000E+01  0.1000E+01
     -0.250 -0.2491E-14 -0.2595E-14  0.1000E+01  0.1000E+01
     -0.146 -0.3098E-06 -0.3174E-06  0.1000E+01  0.1000E+01
     -0.042 -0.3166E-02 -0.3183E-02  0.9997E+00  0.9997E+00
      0.062  0.1063E+00  0.1065E+00  0.1011E+01  0.1011E+01
      0.165  0.9741E-02  0.9555E-02  0.1012E+01  0.1012E+01
      0.269 -0.3843E-02 -0.3813E-02  0.1011E+01  0.1011E+01
      0.373  0.1579E+00  0.1579E+00  0.1028E+01  0.1028E+01
      0.477  0.2358E-02  0.2475E-02  0.1028E+01  0.1028E+01
      0.581  0.2231E+00  0.2229E+00  0.1051E+01  0.1051E+01
      0.685  0.1749E+00  0.1754E+00  0.1069E+01  0.1069E+01
      0.789  0.4284E-01  0.4235E-01  0.1074E+01  0.1074E+01
      0.893  0.1747E+00  0.1748E+00  0.1092E+01  0.1092E+01
      0.997  0.4715E-01  0.4704E-01  0.1097E+01  0.1097E+01
      1.100  0.3793E+00  0.3797E+00  0.1136E+01  0.1136E+01
      1.204  0.3990E+00  0.3991E+00  0.1178E+01  0.1178E+01
      1.308  0.2504E+00  0.2498E+00  0.1204E+01  0.1204E+01
      1.412  0.3310E-01  0.3326E-01  0.1207E+01  0.1207E+01
      1.516  0.3919E+00  0.3920E+00  0.1248E+01  0.1248E+01
      1.620  0.7262E+00  0.7263E+00  0.1323E+01  0.1323E+01
      1.724  0.3506E+00  0.3504E+00  0.1360E+01  0.1360E+01
      1.828  0.2677E+00  0.2674E+00  0.1387E+01  0.1387E+01
      1.932  0.2638E+00  0.2640E+00  0.1415E+01  0.1415E+01
      2.035  0.4425E+00  0.4424E+00  0.1461E+01  0.1461E+01
      2.139  0.3828E+00  0.3830E+00  0.1501E+01  0.1501E+01
      2.243  0.6496E+00  0.6495E+00  0.1568E+01  0.1568E+01
      2.347  0.3150E+00  0.3145E+00  0.1601E+01  0.1601E+01
      2.451  0.5046E+00  0.5048E+00  0.1653E+01  0.1653E+01
      2.555  0.1809E+00  0.1808E+00  0.1672E+01  0.1672E+01
      2.659  0.4915E+00  0.4920E+00  0.1723E+01  0.1723E+01
      2.763  0.2005E+00  0.1999E+00  0.1744E+01  0.1744E+01
      2.866  0.2113E+00  0.2116E+00  0.1766E+01  0.1766E+01
      2.970  0.4285E+00  0.4281E+00  0.1810E+01  0.1810E+01
      3.074  0.1652E+00  0.1656E+00  0.1828E+01  0.1828E+01
      3.178  0.3554E+00  0.3555E+00  0.1864E+01  0.1864E+01
      3.282  0.6257E+00  0.6255E+00  0.1929E+01  0.1929E+01
      3.386  0.8354E+00  0.8352E+00  0.2016E+01  0.2016E+01
      3.490  0.1588E+01  0.1588E+01  0.2181E+01  0.2181E+01
      3.594  0.2984E+01  0.2984E+01  0.2491E+01  0.2491E+01
      3.698  0.1426E+01  0.1427E+01  0.2639E+01  0.2639E+01
      3.801  0.1912E+01  0.1912E+01  0.2838E+01  0.2838E+01
      3.905  0.1596E+01  0.1598E+01  0.3004E+01  0.3004E+01
      4.009  0.1010E+01  0.1007E+01  0.3109E+01  0.3109E+01
      4.113  0.8692E+00  0.8712E+00  0.3199E+01  0.3199E+01
      4.217  0.9292E+00  0.9270E+00  0.3296E+01  0.3296E+01
      4.321  0.8888E+00  0.8896E+00  0.3388E+01  0.3388E+01
      4.425  0.7976E+00  0.7972E+00  0.3471E+01  0.3471E+01
      4.529  0.4947E+00  0.4941E+00  0.3522E+01  0.3522E+01
      4.632  0.4131E+00  0.4148E+00  0.3565E+01  0.3565E+01
      4.736  0.4193E-01  0.4090E-01  0.3569E+01  0.3569E+01
      4.840  0.3463E+00  0.3465E+00  0.3605E+01  0.3605E+01
      4.944  0.1896E+00  0.1892E+00  0.3625E+01  0.3625E+01
      5.048  0.3810E+00  0.3808E+00  0.3665E+01  0.3665E+01
      5.152  0.5318E+00  0.5318E+00  0.3720E+01  0.3720E+01
      5.256  0.5934E+00  0.5928E+00  0.3782E+01  0.3781E+01
      5.360  0.2004E+00  0.2008E+00  0.3802E+01  0.3802E+01
      5.464  0.4093E+00  0.4088E+00  0.3845E+01  0.3845E+01
      5.567  0.2200E+00  0.2208E+00  0.3868E+01  0.3868E+01
      5.671  0.2188E+00  0.2196E+00  0.3891E+01  0.3891E+01
      5.775  0.3826E-01  0.3770E-01  0.3894E+01  0.3894E+01
      5.879  0.6370E-01  0.6334E-01  0.3901E+01  0.3901E+01
      5.983  0.1685E+00  0.1688E+00  0.3919E+01  0.3919E+01
      6.087  0.1618E+00  0.1612E+00  0.3935E+01  0.3935E+01
      6.191  0.1745E+00  0.1751E+00  0.3954E+01  0.3954E+01
      6.295  0.2001E-01  0.1920E-01  0.3956E+01  0.3956E+01
      6.399  0.2769E+00  0.2778E+00  0.3984E+01  0.3984E+01
      6.502  0.3372E+00  0.3370E+00  0.4019E+01  0.4019E+01
      6.606  0.9827E-01  0.9785E-01  0.4030E+01  0.4030E+01
      6.710  0.1062E+00  0.1061E+00  0.4041E+01  0.4041E+01
      6.814  0.1611E+00  0.1627E+00  0.4057E+01  0.4057E+01
      6.918  0.8329E-01  0.8255E-01  0.4066E+01  0.4066E+01
      7.022  0.4147E-01  0.4115E-01  0.4070E+01  0.4070E+01
      7.126  0.3066E-01  0.3116E-01  0.4074E+01  0.4074E+01
      7.230  0.6721E+00  0.6717E+00  0.4143E+01  0.4143E+01
      7.333  0.5710E+00  0.5728E+00  0.4203E+01  0.4203E+01
      7.437  0.3081E+00  0.3062E+00  0.4235E+01  0.4235E+01
      7.541  0.9498E-01  0.9578E-01  0.4245E+01  0.4245E+01
      7.645  0.3383E+00  0.3393E+00  0.4280E+01  0.4280E+01
      7.749  0.1232E+00  0.1225E+00  0.4292E+01  0.4293E+01
      7.853  0.8148E-01  0.8048E-01  0.4301E+01  0.4301E+01
      7.957 -0.1731E-02 -0.1689E-02  0.4301E+01  0.4301E+01
      8.061  0.1521E-01  0.1608E-01  0.4302E+01  0.4302E+01
      8.165  0.2533E+00  0.2541E+00  0.4329E+01  0.4329E+01
      8.268  0.1152E+01  0.1155E+01  0.4448E+01  0.4449E+01
      8.372  0.6665E+00  0.6629E+00  0.4518E+01  0.4518E+01
      8.476  0.3238E+00  0.3237E+00  0.4551E+01  0.4551E+01
      8.580  0.1760E+00  0.1751E+00  0.4569E+01  0.4570E+01
      8.684  0.1504E+00  0.1525E+00  0.4585E+01  0.4585E+01
      8.788  0.2656E+00  0.2653E+00  0.4613E+01  0.4613E+01
      8.892  0.1595E+00  0.1579E+00  0.4629E+01  0.4629E+01
      8.996  0.1218E+00  0.1214E+00  0.4642E+01  0.4642E+01
      9.100  0.1878E+00  0.1908E+00  0.4661E+01  0.4662E+01
      9.203  0.3403E+00  0.3385E+00  0.4697E+01  0.4697E+01
      9.307  0.3336E+00  0.3367E+00  0.4731E+01  0.4732E+01
      9.411  0.1301E+01  0.1303E+01  0.4867E+01  0.4867E+01
      9.515  0.5760E+00  0.5707E+00  0.4926E+01  0.4927E+01
      9.619  0.3819E+00  0.3827E+00  0.4966E+01  0.4966E+01
      9.723  0.5517E-01  0.5483E-01  0.4972E+01  0.4972E+01
      9.827  0.2109E+00  0.2112E+00  0.4994E+01  0.4994E+01
      9.931  0.7926E+00  0.7958E+00  0.5076E+01  0.5077E+01
     10.034  0.3916E+00  0.3874E+00  0.5117E+01  0.5117E+01
     10.138  0.6684E+00  0.6742E+00  0.5186E+01  0.5187E+01
     10.242  0.6707E+00  0.6685E+00  0.5256E+01  0.5256E+01
     10.346  0.2074E+00  0.2037E+00  0.5277E+01  0.5277E+01
     10.450  0.3534E+00  0.3587E+00  0.5314E+01  0.5315E+01
     10.554  0.7311E+00  0.7315E+00  0.5390E+01  0.5391E+01
     10.658  0.1162E+01  0.1157E+01  0.5511E+01  0.5511E+01
     10.762  0.3839E+00  0.3875E+00  0.5551E+01  0.5551E+01
     10.866  0.4997E+00  0.4982E+00  0.5603E+01  0.5603E+01
     10.969  0.1018E+01  0.1032E+01  0.5708E+01  0.5710E+01
     11.073  0.1279E+01  0.1269E+01  0.5841E+01  0.5842E+01
     11.177  0.6843E+00  0.6805E+00  0.5912E+01  0.5913E+01
     11.281  0.5159E+00  0.5168E+00  0.5966E+01  0.5966E+01
     11.385  0.3772E+00  0.3781E+00  0.6005E+01  0.6006E+01
     11.489  0.1023E+01  0.1025E+01  0.6111E+01  0.6112E+01
     11.593  0.1367E+01  0.1369E+01  0.6253E+01  0.6254E+01
     11.697  0.8346E+00  0.8300E+00  0.6340E+01  0.6340E+01
     11.800  0.9178E+00  0.9231E+00  0.6435E+01  0.6436E+01
     11.904  0.9905E+00  0.9916E+00  0.6538E+01  0.6539E+01
     12.008  0.7611E+00  0.7539E+00  0.6617E+01  0.6618E+01
     12.112  0.1266E+01  0.1272E+01  0.6749E+01  0.6750E+01
     12.216  0.8182E+00  0.8186E+00  0.6834E+01  0.6835E+01
     12.320  0.5929E+00  0.5917E+00  0.6896E+01  0.6896E+01
     12.424  0.1640E+01  0.1647E+01  0.7066E+01  0.7067E+01
     12.528  0.1446E+01  0.1437E+01  0.7216E+01  0.7217E+01
     12.632  0.6011E+00  0.5965E+00  0.7279E+01  0.7279E+01
     12.735  0.2846E+00  0.2832E+00  0.7308E+01  0.7308E+01
     12.839 -0.8471E-02 -0.8189E-02  0.7307E+01  0.7307E+01
     12.943  0.4245E+00  0.4242E+00  0.7351E+01  0.7351E+01
     13.047  0.3195E+00  0.3203E+00  0.7385E+01  0.7385E+01
     13.151  0.5205E+00  0.5201E+00  0.7439E+01  0.7439E+01
     13.255  0.1030E+00  0.1025E+00  0.7449E+01  0.7449E+01
     13.359  0.2679E+00  0.2682E+00  0.7477E+01  0.7477E+01
     13.463  0.2932E+00  0.2932E+00  0.7508E+01  0.7508E+01
     13.567  0.4751E+00  0.4754E+00  0.7557E+01  0.7557E+01
     13.670  0.1207E+00  0.1204E+00  0.7570E+01  0.7570E+01
     13.774  0.4258E+00  0.4256E+00  0.7614E+01  0.7614E+01
     13.878  0.2293E+00  0.2285E+00  0.7638E+01  0.7638E+01
     13.982  0.9676E-01  0.9799E-01  0.7648E+01  0.7648E+01
     14.086  0.3433E+00  0.3422E+00  0.7683E+01  0.7683E+01
     14.190  0.1134E+00  0.1145E+00  0.7695E+01  0.7695E+01
     14.294  0.5512E+00  0.5515E+00  0.7752E+01  0.7752E+01
     14.398  0.7199E+00  0.7187E+00  0.7827E+01  0.7827E+01
     14.501  0.2205E+00  0.2208E+00  0.7850E+01  0.7850E+01
     14.605  0.2316E+00  0.2325E+00  0.7874E+01  0.7874E+01
     14.709  0.1040E+00  0.1027E+00  0.7885E+01  0.7885E+01
     14.813  0.4093E+00  0.4093E+00  0.7927E+01  0.7927E+01
     14.917  0.3533E+00  0.3531E+00  0.7964E+01  0.7964E+01
     15.021  0.2598E+00  0.2609E+00  0.7991E+01  0.7991E+01
     15.125  0.7378E+00  0.7395E+00  0.8068E+01  0.8068E+01
     15.229  0.4647E+00  0.4624E+00  0.8116E+01  0.8116E+01
     15.333  0.9785E+00  0.9786E+00  0.8218E+01  0.8218E+01
     15.436  0.2893E+00  0.2902E+00  0.8248E+01  0.8248E+01
     15.540  0.5051E+00  0.5045E+00  0.8300E+01  0.8300E+01
     15.644  0.5370E+00  0.5369E+00  0.8356E+01  0.8356E+01
     15.748  0.7840E+00  0.7816E+00  0.8437E+01  0.8437E+01
     15.852  0.5438E+00  0.5462E+00  0.8494E+01  0.8494E+01
     15.956  0.5969E+00  0.5953E+00  0.8556E+01  0.8556E+01
     16.060  0.5023E+00  0.5037E+00  0.8608E+01  0.8608E+01
     16.164  0.5707E+00  0.5698E+00  0.8667E+01  0.8667E+01
     16.267  0.6104E+00  0.6119E+00  0.8731E+01  0.8731E+01
     16.371  0.3236E+00  0.3247E+00  0.8764E+01  0.8765E+01
     16.475  0.4271E+00  0.4248E+00  0.8809E+01  0.8809E+01
     16.579  0.2906E+00  0.2920E+00  0.8839E+01  0.8839E+01
     16.683  0.4355E+00  0.4345E+00  0.8884E+01  0.8884E+01
     16.787  0.6480E+00  0.6458E+00  0.8952E+01  0.8951E+01
     16.891  0.1960E+00  0.1992E+00  0.8972E+01  0.8972E+01
     16.995  0.3576E+00  0.3577E+00  0.9009E+01  0.9009E+01
     17.099  0.5359E+00  0.5365E+00  0.9065E+01  0.9065E+01
     17.202  0.2084E+00  0.2069E+00  0.9086E+01  0.9086E+01
     17.306  0.6980E+00  0.6989E+00  0.9159E+01  0.9159E+01
     17.410  0.1160E-01  0.1145E-01  0.9160E+01  0.9160E+01
     17.514  0.1240E-01  0.1232E-01  0.9161E+01  0.9161E+01
     17.618  0.2130E+00  0.2132E+00  0.9184E+01  0.9184E+01
     17.722  0.3444E+00  0.3419E+00  0.9219E+01  0.9219E+01
     17.826  0.5181E+00  0.5168E+00  0.9273E+01  0.9273E+01
     17.930  0.6984E+00  0.7005E+00  0.9346E+01  0.9346E+01
     18.034  0.2955E+00  0.2981E+00  0.9376E+01  0.9377E+01
     18.137  0.1341E+00  0.1330E+00  0.9390E+01  0.9390E+01
     18.241  0.3513E+00  0.3485E+00  0.9427E+01  0.9427E+01
     18.345  0.7694E+00  0.7709E+00  0.9507E+01  0.9507E+01
     18.449  0.4765E+00  0.4748E+00  0.9556E+01  0.9556E+01
     18.553  0.4603E+00  0.4637E+00  0.9604E+01  0.9604E+01
     18.657  0.3187E+00  0.3183E+00  0.9637E+01  0.9637E+01
     18.761  0.7768E-01  0.7675E-01  0.9645E+01  0.9645E+01
     18.865  0.7578E+00  0.7585E+00  0.9724E+01  0.9724E+01
     18.968  0.5352E+00  0.5352E+00  0.9780E+01  0.9780E+01
     19.072  0.6375E+00  0.6392E+00  0.9846E+01  0.9846E+01
     19.176  0.3565E+00  0.3549E+00  0.9883E+01  0.9883E+01
     19.280  0.1520E+00  0.1522E+00  0.9899E+01  0.9899E+01
     19.384  0.6976E-01  0.6893E-01  0.9906E+01  0.9906E+01
     19.488  0.2011E+00  0.2057E+00  0.9927E+01  0.9927E+01
     19.592  0.6928E-01  0.6547E-01  0.9934E+01  0.9934E+01
     19.696  0.1515E+00  0.1509E+00  0.9950E+01  0.9950E+01
     19.800  0.1037E+00  0.1042E+00  0.9961E+01  0.9960E+01
     19.903  0.4406E+00  0.4409E+00  0.1001E+02  0.1001E+02
     20.007  0.1991E+00  0.1987E+00  0.1003E+02  0.1003E+02
     20.111  0.4171E+00  0.4217E+00  0.1007E+02  0.1007E+02
     20.215  0.5851E+00  0.5802E+00  0.1013E+02  0.1013E+02
     20.319  0.1048E+00  0.1053E+00  0.1014E+02  0.1014E+02
     20.423  0.7748E+00  0.7775E+00  0.1022E+02  0.1022E+02
     20.527  0.7032E+00  0.7013E+00  0.1030E+02  0.1030E+02
     20.631  0.2327E+00  0.2334E+00  0.1032E+02  0.1032E+02
     20.734  0.1902E+01  0.1905E+01  0.1052E+02  0.1052E+02
     20.838  0.8101E+01  0.8105E+01  0.1136E+02  0.1136E+02
     20.942  0.1024E+01  0.1019E+01  0.1147E+02  0.1147E+02
     21.046  0.9782E+00  0.9770E+00  0.1157E+02  0.1157E+02
     21.150  0.1040E+01  0.1042E+01  0.1167E+02  0.1168E+02
     21.254  0.5717E+00  0.5675E+00  0.1173E+02  0.1173E+02
     21.358  0.3215E+00  0.3204E+00  0.1177E+02  0.1177E+02
     21.462  0.4863E-01  0.4861E-01  0.1177E+02  0.1177E+02
     21.566  0.4013E+00  0.4305E+00  0.1181E+02  0.1182E+02
     21.669  0.4129E+00  0.3865E+00  0.1186E+02  0.1186E+02
     21.773  0.3800E+00  0.3799E+00  0.1190E+02  0.1190E+02
     21.877  0.3567E+00  0.3555E+00  0.1193E+02  0.1193E+02
     21.981  0.3040E+00  0.3033E+00  0.1197E+02  0.1197E+02
     22.085  0.2907E-01  0.3272E-01  0.1197E+02  0.1197E+02
     22.189  0.1989E+00  0.1958E+00  0.1199E+02  0.1199E+02
     22.293  0.1091E+00  0.1080E+00  0.1200E+02  0.1200E+02
     22.397 -0.3855E-02 -0.3738E-02  0.1200E+02  0.1200E+02
     22.501 -0.9474E-06 -0.7425E-06  0.1200E+02  0.1200E+02
     22.604 -0.1573E-13 -0.1050E-13  0.1200E+02  0.1200E+02
     22.708  0.0000E+00  0.0000E+00  0.1200E+02  0.1200E+02
     22.812  0.0000E+00  0.0000E+00  0.1200E+02  0.1200E+02
     22.916  0.0000E+00  0.0000E+00  0.1200E+02  0.1200E+02
     23.020  0.0000E+00  0.0000E+00  0.1200E+02  0.1200E+02
     23.124  0.0000E+00  0.0000E+00  0.1200E+02  0.1200E+02
     23.228  0.0000E+00  0.0000E+00  0.1200E+02  0.1200E+02
     23.332  0.0000E+00  0.0000E+00  0.1200E+02  0.1200E+02
     23.435  0.0000E+00  0.0000E+00  0.1200E+02  0.1200E+02
     23.539  0.0000E+00  0.0000E+00  0.1200E+02  0.1200E+02
     23.643  0.0000E+00  0.0000E+00  0.1200E+02  0.1200E+02
     23.64324465     -7.52191057  301      8.32467595      1.00000000
     -7.522  0.0000E+00  0.0000E+00  0.0000E+00  0.0000E+00  0.0000E+00  0.0000E+00  0.0000E+00  0.0000E+00  0.0000E+00  0.0000E+00  0.0000E+00  0.0000E+00  0.0000E+00  0.0000E+00  0.0000E+00  0.0000E+00  0.0000E+00  0.0000E+00
     -7.418  0.0000E+00  0.0000E+00  0.0000E+00  0.0000E+00  0.0000E+00  0.0000E+00  0.0000E+00  0.0000E+00  0.0000E+00  0.0000E+00  0.0000E+00  0.0000E+00  0.0000E+00  0.0000E+00  0.0000E+00  0.0000E+00  0.0000E+00  0.0000E+00
     -7.314  0.0000E+00  0.0000E+00  0.0000E+00  0.0000E+00  0.0000E+00  0.0000E+00  0.0000E+00  0.0000E+00  0.0000E+00  0.0000E+00  0.0000E+00  0.0000E+00  0.0000E+00  0.0000E+00  0.0000E+00  0.0000E+00  0.0000E+00  0.0000E+00
     -7.210  0.0000E+00  0.0000E+00  0.0000E+00  0.0000E+00  0.0000E+00  0.0000E+00  0.0000E+00  0.0000E+00  0.0000E+00  0.0000E+00  0.0000E+00  0.0000E+00  0.0000E+00  0.0000E+00  0.0000E+00  0.0000E+00  0.0000E+00  0.0000E+00
     -7.106  0.0000E+00  0.0000E+00  0.0000E+00  0.0000E+00  0.0000E+00  0.0000E+00  0.0000E+00  0.0000E+00  0.0000E+00  0.0000E+00  0.0000E+00  0.0000E+00  0.0000E+00  0.0000E+00  0.0000E+00  0.0000E+00  0.0000E+00  0.0000E+00
     -7.002  0.0000E+00  0.0000E+00  0.0000E+00  0.0000E+00  0.0000E+00  0.0000E+00  0.0000E+00  0.0000E+00  0.0000E+00  0.0000E+00  0.0000E+00  0.0000E+00  0.0000E+00  0.0000E+00  0.0000E+00  0.0000E+00  0.0000E+00  0.0000E+00
     -6.899  0.0000E+00  0.0000E+00  0.0000E+00  0.0000E+00  0.0000E+00  0.0000E+00  0.0000E+00  0.0000E+00  0.0000E+00  0.0000E+00  0.0000E+00  0.0000E+00  0.0000E+00  0.0000E+00  0.0000E+00  0.0000E+00  0.0000E+00  0.0000E+00
     -6.795  0.0000E+00  0.0000E+00  0.0000E+00  0.0000E+00  0.0000E+00  0.0000E+00  0.0000E+00  0.0000E+00  0.0000E+00  0.0000E+00  0.0000E+00  0.0000E+00  0.0000E+00  0.0000E+00  0.0000E+00  0.0000E+00  0.0000E+00  0.0000E+00
     -6.691  0.0000E+00  0.0000E+00  0.0000E+00  0.0000E+00  0.0000E+00  0.0000E+00  0.0000E+00  0.0000E+00  0.0000E+00  0.0000E+00  0.0000E+00  0.0000E+00  0.0000E+00  0.0000E+00  0.0000E+00  0.0000E+00  0.0000E+00  0.0000E+00
     -6.587 -0.1617E-41 -0.1445E-41 -0.1197E-44 -0.1069E-44 -0.1197E-44 -0.1069E-44 -0.1197E-44 -0.1069E-44  0.0000E+00  0.0000E+00  0.0000E+00  0.0000E+00  0.0000E+00  0.0000E+00  0.0000E+00  0.0000E+00  0.0000E+00  0.0000E+00
     -6.483 -0.4096E-26 -0.3751E-26 -0.3031E-29 -0.2777E-29 -0.3031E-29 -0.2777E-29 -0.3031E-29 -0.2777E-29  0.0000E+00  0.0000E+00  0.0000E+00  0.0000E+00  0.0000E+00  0.0000E+00  0.0000E+00  0.0000E+00  0.0000E+00  0.0000E+00
     -6.379 -0.1652E-14 -0.1550E-14 -0.1222E-17 -0.1148E-17 -0.1222E-17 -0.1148E-17 -0.1222E-17 -0.1148E-17  0.0000E+00  0.0000E+00  0.0000E+00  0.0000E+00  0.0000E+00  0.0000E+00  0.0000E+00  0.0000E+00  0.0000E+00  0.0000E+00
     -6.275 -0.9949E-07 -0.9578E-07 -0.7363E-10 -0.7090E-10 -0.7363E-10 -0.7090E-10 -0.7363E-10 -0.7090E-10  0.0000E+00  0.0000E+00  0.0000E+00  0.0000E+00  0.0000E+00  0.0000E+00  0.0000E+00  0.0000E+00  0.0000E+00  0.0000E+00
     -6.171 -0.4048E-03 -0.4031E-03 -0.2996E-06 -0.2984E-06 -0.2996E-06 -0.2984E-06 -0.2996E-06 -0.2984E-06  0.0000E+00  0.0000E+00  0.0000E+00  0.0000E+00  0.0000E+00  0.0000E+00  0.0000E+00  0.0000E+00  0.0000E+00  0.0000E+00
     -6.068  0.1199E-01  0.1196E-01  0.8872E-05  0.8857E-05  0.8872E-05  0.8857E-05  0.8872E-05  0.8857E-05  0.0000E+00  0.0000E+00  0.0000E+00  0.0000E+00  0.0000E+00  0.0000E+00  0.0000E+00  0.0000E+00  0.0000E+00  0.0000E+00
     -5.964  0.2187E-03  0.2408E-03  0.1602E-06  0.1766E-06  0.1602E-06  0.1766E-06 -0.7703E-07 -0.5421E-07  0.0000E+00  0.0000E+00  0.0000E+00  0.0000E+00  0.0000E+00  0.0000E+00  0.0000E+00  0.0000E+00  0.0000E+00  0.0000E+00
     -5.860  0.7018E-02  0.6871E-02  0.5442E-05  0.5330E-05  0.5442E-05  0.5330E-05  0.4062E-04  0.3978E-04  0.0000E+00  0.0000E+00  0.0000E+00  0.0000E+00  0.0000E+00  0.0000E+00  0.0000E+00  0.0000E+00  0.0000E+00  0.0000E+00
     -5.756  0.2969E-01  0.2984E-01  0.2302E-04  0.2314E-04  0.2302E-04  0.2314E-04  0.1718E-03  0.1727E-03  0.0000E+00  0.0000E+00  0.0000E+00  0.0000E+00  0.0000E+00  0.0000E+00  0.0000E+00  0.0000E+00  0.0000E+00  0.0000E+00
     -5.652 -0.1752E-02 -0.1752E-02 -0.6981E-05 -0.6928E-05 -0.6981E-05 -0.6928E-05 -0.4870E-05 -0.4920E-05  0.0000E+00  0.0000E+00  0.0000E+00  0.0000E+00  0.0000E+00  0.0000E+00  0.0000E+00  0.0000E+00  0.0000E+00  0.0000E+00
     -5.548  0.3471E-01  0.3459E-01  0.2109E-03  0.2103E-03  0.2109E-03  0.2103E-03  0.2834E-04  0.2825E-04  0.0000E+00  0.0000E+00  0.0000E+00  0.0000E+00  0.0000E+00  0.0000E+00  0.0000E+00  0.0000E+00  0.0000E+00  0.0000E+00
     -5.444  0.2076E-02  0.2192E-02  0.1592E-04  0.1657E-04  0.9213E-05  0.9979E-05  0.1590E-05  0.1688E-05  0.0000E+00  0.0000E+00  0.0000E+00  0.0000E+00  0.0000E+00  0.0000E+00  0.0000E+00  0.0000E+00  0.0000E+00  0.0000E+00
     -5.340  0.3176E-01  0.3151E-01  0.4046E-04  0.3995E-04  0.3515E-03  0.3490E-03  0.4055E-04  0.4004E-04  0.0000E+00  0.0000E+00  0.0000E+00  0.0000E+00  0.0000E+00  0.0000E+00  0.0000E+00  0.0000E+00  0.0000E+00  0.0000E+00
     -5.236  0.1844E-01  0.1867E-01  0.7048E-04  0.7103E-04  0.1618E-03  0.1642E-03  0.7028E-04  0.7084E-04  0.0000E+00  0.0000E+00  0.0000E+00  0.0000E+00  0.0000E+00  0.0000E+00  0.0000E+00  0.0000E+00  0.0000E+00  0.0000E+00
     -5.133  0.5554E-02  0.5309E-02  0.3646E-04  0.3489E-04  0.2988E-05  0.2734E-05  0.6909E-04  0.6619E-04  0.0000E+00  0.0000E+00  0.0000E+00  0.0000E+00  0.0000E+00  0.0000E+00  0.0000E+00  0.0000E+00  0.0000E+00  0.0000E+00
     -5.029  0.7119E-01  0.7144E-01  0.4627E-03  0.4644E-03  0.6253E-04  0.6277E-04  0.8605E-03  0.8638E-03  0.0000E+00  0.0000E+00  0.0000E+00  0.0000E+00  0.0000E+00  0.0000E+00  0.0000E+00  0.0000E+00  0.0000E+00  0.0000E+00
     -4.925 -0.3278E-02 -0.3289E-02 -0.2177E-04 -0.2184E-04 -0.9649E-05 -0.9587E-05 -0.4042E-04 -0.4056E-04  0.0000E+00  0.0000E+00  0.0000E+00  0.0000E+00  0.0000E+00  0.0000E+00  0.0000E+00  0.0000E+00  0.0000E+00  0.0000E+00
     -4.821  0.3503E-01  0.3487E-01  0.2494E-03  0.2485E-03  0.2377E-03  0.2365E-03  0.4625E-03  0.4609E-03  0.0000E+00  0.0000E+00  0.0000E+00  0.0000E+00  0.0000E+00  0.0000E+00  0.0000E+00  0.0000E+00  0.0000E+00  0.0000E+00
     -4.717  0.4329E-01  0.4343E-01  0.4213E-04  0.4316E-04  0.4794E-03  0.4805E-03  0.6819E-04  0.6978E-04  0.0000E+00  0.0000E+00  0.0000E+00  0.0000E+00  0.0000E+00  0.0000E+00  0.0000E+00  0.0000E+00  0.0000E+00  0.0000E+00
     -4.613  0.3153E-01  0.3139E-01  0.4278E-03  0.4256E-03  0.4105E-03  0.4087E-03  0.3019E-04  0.3004E-04  0.0000E+00  0.0000E+00  0.0000E+00  0.0000E+00  0.0000E+00  0.0000E+00  0.0000E+00  0.0000E+00  0.0000E+00  0.0000E+00
     -4.509  0.6103E-01  0.6067E-01  0.4384E-03  0.4373E-03  0.7349E-03  0.7310E-03  0.5489E-04  0.5461E-04  0.0000E+00  0.0000E+00  0.0000E+00  0.0000E+00  0.0000E+00  0.0000E+00  0.0000E+00  0.0000E+00  0.0000E+00  0.0000E+00
     -4.405  0.3699E-01  0.3725E-01  0.3330E-03  0.3330E-03  0.4657E-03  0.4685E-03  0.1148E-03  0.1134E-03  0.0000E+00  0.0000E+00  0.0000E+00  0.0000E+00  0.0000E+00  0.0000E+00  0.0000E+00  0.0000E+00  0.0000E+00  0.0000E+00
     -4.302  0.3302E-01  0.3296E-01  0.4122E-03  0.4143E-03  0.4451E-03  0.4456E-03  0.2442E-03  0.2447E-03  0.0000E+00  0.0000E+00  0.0000E+00  0.0000E+00  0.0000E+00  0.0000E+00  0.0000E+00  0.0000E+00  0.0000E+00  0.0000E+00
     -4.198  0.7766E-01  0.7797E-01  0.2761E-03  0.2776E-03  0.6495E-03  0.6527E-03  0.2791E-03  0.2807E-03  0.0000E+00  0.0000E+00  0.0000E+00  0.0000E+00  0.0000E+00  0.0000E+00  0.0000E+00  0.0000E+00  0.0000E+00  0.0000E+00
     -4.094  0.4071E-02  0.3636E-02  0.1202E-03  0.1150E-03 -0.2141E-04 -0.2189E-04  0.1296E-03  0.1245E-03  0.0000E+00  0.0000E+00  0.0000E+00  0.0000E+00  0.0000E+00  0.0000E+00  0.0000E+00  0.0000E+00  0.0000E+00  0.0000E+00
     -3.990  0.2727E+00  0.2722E+00  0.1475E-02  0.1479E-02  0.5042E-03  0.5025E-03  0.1030E-02  0.1035E-02  0.0000E+00  0.0000E+00  0.0000E+00  0.0000E+00  0.0000E+00  0.0000E+00  0.0000E+00  0.0000E+00  0.0000E+00  0.0000E+00
     -3.886  0.3695E-01  0.3755E-01  0.1886E-03  0.1895E-03  0.2099E-03  0.2116E-03  0.1636E-03  0.1634E-03  0.0000E+00  0.0000E+00  0.0000E+00  0.0000E+00  0.0000E+00  0.0000E+00  0.0000E+00  0.0000E+00  0.0000E+00  0.0000E+00
     -3.782  0.3192E+00  0.3177E+00  0.2050E-02  0.2044E-02  0.8579E-03  0.8553E-03  0.1387E-02  0.1385E-02  0.0000E+00  0.0000E+00  0.0000E+00  0.0000E+00  0.0000E+00  0.0000E+00  0.0000E+00  0.0000E+00  0.0000E+00  0.0000E+00
     -3.678  0.8776E-01  0.8937E-01  0.3420E-03  0.3505E-03  0.1043E-03  0.1076E-03  0.1211E-03  0.1240E-03  0.0000E+00  0.0000E+00  0.0000E+00  0.0000E+00  0.0000E+00  0.0000E+00  0.0000E+00  0.0000E+00  0.0000E+00  0.0000E+00
     -3.574  0.1641E+00  0.1627E+00  0.1080E-02  0.1070E-02  0.3485E-03  0.3447E-03  0.3632E-03  0.3603E-03  0.0000E+00  0.0000E+00  0.0000E+00  0.0000E+00  0.0000E+00  0.0000E+00  0.0000E+00  0.0000E+00  0.0000E+00  0.0000E+00
     -3.470  0.2122E+00  0.2132E+00  0.1232E-02  0.1241E-02  0.5929E-03  0.5969E-03  0.2610E-03  0.2647E-03  0.0000E+00  0.0000E+00  0.0000E+00  0.0000E+00  0.0000E+00  0.0000E+00  0.0000E+00  0.0000E+00  0.0000E+00  0.0000E+00
     -3.367  0.2708E+00  0.2694E+00  0.2145E-02  0.2132E-02  0.8830E-03  0.8769E-03  0.9754E-03  0.9663E-03  0.0000E+00  0.0000E+00  0.0000E+00  0.0000E+00  0.0000E+00  0.0000E+00  0.0000E+00  0.0000E+00  0.0000E+00  0.0000E+00
     -3.263  0.2693E+00  0.2694E+00  0.1559E-02  0.1570E-02  0.8413E-03  0.8456E-03  0.1012E-02  0.1018E-02  0.0000E+00  0.0000E+00  0.0000E+00  0.0000E+00  0.0000E+00  0.0000E+00  0.0000E+00  0.0000E+00  0.0000E+00  0.0000E+00
     -3.159  0.2106E+00  0.2106E+00  0.9745E-03  0.9740E-03  0.5750E-04  0.5901E-04  0.6540E-03  0.6542E-03  0.0000E+00  0.0000E+00  0.0000E+00  0.0000E+00  0.0000E+00  0.0000E+00  0.0000E+00  0.0000E+00  0.0000E+00  0.0000E+00
     -3.055  0.3107E+00  0.3115E+00  0.1028E-02  0.1032E-02  0.3772E-03  0.3770E-03  0.4117E-03  0.4153E-03  0.0000E+00  0.0000E+00  0.0000E+00  0.0000E+00  0.0000E+00  0.0000E+00  0.0000E+00  0.0000E+00  0.0000E+00  0.0000E+00
     -2.951  0.2196E+00  0.2188E+00  0.7068E-03  0.7021E-03  0.3040E-03  0.3015E-03  0.4475E-03  0.4405E-03  0.0000E+00  0.0000E+00  0.0000E+00  0.0000E+00  0.0000E+00  0.0000E+00  0.0000E+00  0.0000E+00  0.0000E+00  0.0000E+00
     -2.847  0.3328E+00  0.3323E+00  0.1822E-02  0.1821E-02  0.1457E-02  0.1454E-02  0.1498E-02  0.1499E-02  0.0000E+00  0.0000E+00  0.0000E+00  0.0000E+00  0.0000E+00  0.0000E+00  0.0000E+00  0.0000E+00  0.0000E+00  0.0000E+00
     -2.743  0.1962E+00  0.1977E+00  0.6629E-03  0.6720E-03  0.4121E-03  0.4184E-03  0.4715E-03  0.4775E-03  0.0000E+00  0.0000E+00  0.0000E+00  0.0000E+00  0.0000E+00  0.0000E+00  0.0000E+00  0.0000E+00  0.0000E+00  0.0000E+00
     -2.639  0.9901E-01  0.9913E-01  0.5716E-05  0.5340E-05  0.1884E-03  0.1893E-03  0.1826E-03  0.1819E-03  0.0000E+00  0.0000E+00  0.0000E+00  0.0000E+00  0.0000E+00  0.0000E+00  0.0000E+00  0.0000E+00  0.0000E+00  0.0000E+00
     -2.535  0.3842E-01  0.3833E-01  0.1044E-04  0.8499E-05  0.4882E-05  0.2303E-05  0.1733E-03  0.1736E-03  0.0000E+00  0.0000E+00  0.0000E+00  0.0000E+00  0.0000E+00  0.0000E+00  0.0000E+00  0.0000E+00  0.0000E+00  0.0000E+00
     -2.432  0.2079E+00  0.2082E+00  0.9299E-03  0.9322E-03  0.1145E-02  0.1148E-02  0.6716E-03  0.6729E-03  0.0000E+00  0.0000E+00  0.0000E+00  0.0000E+00  0.0000E+00  0.0000E+00  0.0000E+00  0.0000E+00  0.0000E+00  0.0000E+00
     -2.328  0.9268E-02  0.9171E-02  0.1592E-03  0.1594E-03  0.1518E-03  0.1520E-03  0.1665E-03  0.1662E-03  0.0000E+00  0.0000E+00  0.0000E+00  0.0000E+00  0.0000E+00  0.0000E+00  0.0000E+00  0.0000E+00  0.0000E+00  0.0000E+00