    2    2    1    2
  0.1120935E+02  0.3165010E-09  0.3165010E-09  0.3165010E-09  0.5000000E-15
  1.000000000000000E-004
  CAR 
 unknown system                          
    9   60   12
 
  0.6250000E-01  0.6250000E-01  0.6250000E-01  0.3906250E-02
   1       -6.105313     -6.105019
   2        6.580773      6.580433
   3        6.921213      6.920957
   4        6.921213      6.920957
   5        7.660844      7.660661
   6        7.660844      7.660661
   7        8.387669      8.387813
   8        9.948462      9.948518
   9        9.948462      9.948518
  10       15.138011     15.137979
  11       18.806197     18.804178
  12       20.788216     20.787914
 
  0.1875000E+00  0.6250000E-01  0.6250000E-01  0.1171875E-01
   1       -5.578743     -5.578416
   2        5.034962      5.034970
   3        5.496898      5.497039
   4        5.660266      5.660075
   5        7.636839      7.636084
   6        8.547356      8.546811
   7        9.191788      9.191661
   8       11.044826     11.044910
   9       12.576014     12.576289
  10       16.134011     16.134027
  11       20.093679     20.091711
  12       20.788293     20.787994
 
  0.3125000E+00  0.6250000E-01  0.6250000E-01  0.1171875E-01
   1       -4.394069     -4.393663
   2        2.849076      2.849082
   3        4.074945      4.075024
   4        4.375902      4.375888
   5        8.771960      8.771153
   6        9.346082      9.345501
   7       10.114679     10.113991
   8       13.741080     13.741350
   9       15.457428     15.457893
  10       17.097879     17.097703
  11       20.780509     20.780250
  12       21.523923     21.522590
 
  0.4375000E+00  0.6250000E-01  0.6250000E-01  0.1171875E-01
   1       -2.876147     -2.875605
   2        0.892617      0.892583
   3        3.292581      3.292637
   4        3.457377      3.457421
   5       10.257726     10.256795
   6       10.455480     10.454667
   7       11.386231     11.385337
   8       15.449029     15.448473
   9       16.482726     16.483149
  10       17.794916     17.795611
  11       20.777870     20.777635
  12       21.843297     21.843599
 
 -0.4375000E+00  0.6250000E-01  0.6250000E-01  0.1171875E-01
   1       -2.099680     -2.098962
   2        0.032260      0.032081
   3        3.136717      3.136775
   4        3.185416      3.185468
   5       10.766460     10.765500
   6       11.164872     11.163838
   7       11.996594     11.995710
   8       14.295740     14.295060
   9       17.829860     17.830524
  10       18.184676     18.185401
  11       20.768166     20.767749
  12       20.903023     20.902977
 
 -0.3125000E+00  0.6250000E-01  0.6250000E-01  0.1171875E-01
   1       -3.400074     -3.399591
   2        1.505912      1.505901
   3        3.484230      3.484276
   4        3.747297      3.747356
   5        9.384749      9.383974
   6       10.514383     10.513482
   7       10.867654     10.866863
   8       15.696428     15.696857
   9       16.040103     16.039769
  10       17.264623     17.265021
  11       20.775644     20.775418
  12       21.768758     21.768364
 
 -0.1875000E+00  0.6250000E-01  0.6250000E-01  0.1171875E-01
   1       -4.852106     -4.851731
   2        3.496860      3.496874
   3        4.529015      4.528995
   4        4.916842      4.916902
   5        8.082605      8.081935
   6        9.185760      9.185055
   7        9.742860      9.742350
   8       12.959892     12.960126
   9       14.251637     14.251978
  10       17.083089     17.083075
  11       20.784368     20.784087
  12       21.286918     21.285185
 
 -0.6250000E-01  0.6250000E-01  0.6250000E-01  0.1171875E-01
   1       -5.840095     -5.839785
   2        5.553304      5.553426
   3        6.137909      6.137678
   4        6.370235      6.370136
   5        7.189880      7.189233
   6        8.481299      8.480942
   7        9.025208      9.025135
   8       10.178967     10.179019
   9       11.588094     11.588269
  10       15.736120     15.736134
  11       19.494080     19.492086
  12       20.788290     20.787991
 
  0.1875000E+00  0.1875000E+00  0.6250000E-01  0.1171875E-01
   1       -5.357411     -5.357065
   2        4.065682      4.065802
   3        5.634506      5.634193
   4        6.021087      6.021094
   5        6.811562      6.811038
   6        9.248997      9.248575
   7       10.017386     10.017124
   8       10.689763     10.689728
   9       12.894710     12.894881
  10       16.989999     16.990124
  11       20.716173     20.714220
  12       20.788429     20.788126
 
  0.3125000E+00  0.1875000E+00  0.6250000E-01  0.2343750E-01
   1       -4.520733     -4.520320
   2        2.767858      2.767918
   3        4.609837      4.609571
   4        5.070066      5.070150
   5        7.341345      7.340853
   6       10.124740     10.124143
   7       10.930718     10.930232
   8       12.040756     12.040676
   9       14.711597     14.711844
  10       18.352666     18.352824
  11       20.784736     20.784463
  12       22.108066     22.106530
 
  0.4375000E+00  0.1875000E+00  0.6250000E-01  0.2343750E-01
   1       -3.364429     -3.363913
   2        1.560778      1.560732
   3        3.591250      3.591228
   4        4.134237      4.134307
   5        8.436301      8.435701
   6       11.089170     11.088291
   7       11.756544     11.755652
   8       14.279320     14.279530
   9       16.043332     16.043273
  10       18.442577     18.442860
  11       20.729742     20.729788
  12       21.032310     21.032018
 
 -0.4375000E+00  0.1875000E+00  0.6250000E-01  0.2343750E-01
   1       -2.489517     -2.488870
   2        0.666397      0.666238
   3        3.338431      3.338489
   4        3.536133      3.536230
   5        9.933059      9.932269
   6       11.004142     11.003165
   7       11.913247     11.912311
   8       15.564544     15.564211
   9       16.761334     16.761757
  10       17.711875     17.712108
  11       20.733406     20.733492
  12       20.980513     20.980456
 
 -0.3125000E+00  0.1875000E+00  0.6250000E-01  0.2343750E-01
   1       -2.889310     -2.888732
   2        1.065153      1.065069
   3        3.417834      3.417901
   4        3.667488      3.667487
   5        9.571301      9.570533
   6       10.958080     10.957238
   7       11.666280     11.665398
   8       14.765407     14.765628
   9       16.369712     16.369344
  10       18.307419     18.308042
  11       20.770319     20.770128
  12       21.508242     21.508305
 
 -0.1875000E+00  0.1875000E+00  0.6250000E-01  0.2343750E-01
   1       -4.069392     -4.068946
   2        2.394573      2.394614
   3        4.002310      4.002369
   4        4.267495      4.267319
   5        8.347430      8.346725
   6       10.486712     10.486217
   7       11.021141     11.020513
   8       12.537022     12.536982
   9       16.179053     16.179385
  10       17.864825     17.864899
  11       20.780584     20.780333
  12       21.933225     21.932223
 
 -0.6250000E-01  0.1875000E+00  0.6250000E-01  0.2343750E-01
   1       -5.102309     -5.101947
   2        3.843873      3.843961
   3        4.967475      4.967367
   4        5.240364      5.240322
   5        7.590543      7.589883
   6        9.296840      9.296252
   7        9.929210      9.928918
   8       11.526331     11.526369
   9       13.876791     13.877099
  10       17.064556     17.064620
  11       20.787228     20.786936
  12       21.103555     21.101651
 
  0.3125000E+00  0.3125000E+00  0.6250000E-01  0.1171875E-01
   1       -4.263054     -4.262607
   2        2.389702      2.389760
   3        4.795984      4.795323
   4        5.916057      5.916272
   5        6.377073      6.377067
   6       10.353300     10.352979
   7       11.926334     11.925652
   8       12.123682     12.123132
   9       14.562548     14.562732
  10       19.704915     19.705277
  11       20.779353     20.779111
  12       21.758323     21.757808
 
  0.4375000E+00  0.3125000E+00  0.6250000E-01  0.2343750E-01
   1       -3.788828     -3.788342
   2        2.358834      2.358884
   3        4.070015      4.069535
   4        5.236565      5.236827
   5        7.147314      7.147231
   6       11.409371     11.408828
   7       12.328064     12.327128
   8       12.670437     12.669942
   9       15.759224     15.759504
  10       18.889931     18.889960
  11       20.132689     20.132564
  12       20.800373     20.800005
 
 -0.4375000E+00  0.3125000E+00  0.6250000E-01  0.2343750E-01
   1       -3.253908     -3.253378
   2        2.157537      2.157436
   3        3.561324      3.561300
   4        4.422216      4.422402
   5        8.213211      8.212808
   6       11.507163     11.506139
   7       12.230201     12.229161
   8       14.393180     14.393370
   9       15.755023     15.755229
  10       18.549115     18.548923
  11       20.071995     20.071981
  12       20.801831     20.801459
 
 -0.3125000E+00  0.3125000E+00  0.6250000E-01  0.2343750E-01
   1       -2.884292     -2.883704
   2        1.549489      1.549390
   3        3.512604      3.512544
   4        3.835783      3.835945
   5        9.861181      9.860447
   6       10.421229     10.420338
   7       12.052413     12.051700
   8       14.054567     14.054640
   9       16.776740     16.777153
  10       19.091616     19.091182
  11       20.755211     20.755112
  12       21.040195     21.039697
 
 -0.1875000E+00  0.3125000E+00  0.6250000E-01  0.2343750E-01
   1       -3.114897     -3.114338
   2        1.434277      1.434231
   3        3.592096      3.592164
   4        3.722680      3.722572
   5        9.334113      9.333330
   6       11.265200     11.264482
   7       11.614136     11.613427
   8       13.272752     13.272803
   9       16.975325     16.975203
  10       18.451418     18.451930
  11       20.771383     20.771187
  12       21.584900     21.576346
 
 -0.6250000E-01  0.3125000E+00  0.6250000E-01  0.2343750E-01
   1       -3.833112     -3.832655
   2        2.054359      2.054360
   3        3.735440      3.735465
   4        4.151298      4.151308
   5        8.674811      8.674111
   6       10.201265     10.200548
   7       10.980034     10.979235
   8       14.082481     14.082722
   9       16.191900     16.192088
  10       17.547041     17.547084
  11       20.776256     20.776027
  12       21.671734     21.671100
 
  0.4375000E+00  0.4375000E+00  0.6250000E-01  0.1171875E-01
   1       -3.998487     -3.998030
   2        3.151754      3.151935
   3        4.128666      4.127833
   4        6.309521      6.309971
   5        6.623037      6.623430
   6       11.133327     11.133088
   7       12.510715     12.509578
   8       12.525606     12.524522
   9       15.953276     15.953732
  10       16.747637     16.747320
  11       20.625344     20.625010
  12       20.797180     20.796826
 
 -0.4375000E+00  0.4375000E+00  0.6250000E-01  0.2343750E-01
   1       -3.851733     -3.851271
   2        3.598269      3.598269
   3        3.780262      3.779877
   4        5.441550      5.441906
   5        7.296899      7.297112
   6       12.092814     12.091916
   7       12.297183     12.296813
   8       12.479039     12.477877
   9       15.298558     15.298537
  10       17.247077     17.247334
  11       20.434788     20.434220
  12       20.795138     20.794799
 
 -0.3125000E+00  0.4375000E+00  0.6250000E-01  0.2343750E-01
   1       -3.351145     -3.350629
   2        2.624416      2.624263
   3        3.582617      3.582672
   4        4.515259      4.515460
   5        8.149340      8.148959
   6       11.426302     11.425284
   7       12.366931     12.365938
   8       14.343431     14.343507
   9       14.908287     14.908475
  10       18.951125     18.951303
  11       20.473420     20.472849
  12       20.799708     20.799346
 
 -0.1875000E+00  0.4375000E+00  0.6250000E-01  0.2343750E-01
   1       -2.713706     -2.713094
   2        1.152121      1.151983
   3        3.458241      3.458256
   4        3.719059      3.719196
   5        9.889564      9.888827
   6       10.614587     10.613683
   7       11.858815     11.857923
   8       15.291337     15.291520
   9       16.631311     16.631629
  10       18.005853     18.005429
  11       20.743050     20.743077
  12       21.042329     21.042363
 
 -0.6250000E-01  0.4375000E+00  0.6250000E-01  0.2343750E-01
   1       -2.492036     -2.491410
   2        0.514190      0.514073
   3        3.240014      3.240075
   4        3.418236      3.418295
   5       10.090700     10.089852
   6       11.086467     11.085471
   7       11.806092     11.805197
   8       15.144033     15.143462
   9       16.651291     16.651738
  10       18.233406     18.234101
  11       20.770122     20.769947
  12       21.261179     21.261360
 
 -0.4375000E+00 -0.4375000E+00  0.6250000E-01  0.1171875E-01
   1       -4.048469     -4.048024
   2        3.733777      3.734033
   3        3.974619      3.973773
   4        6.467746      6.468278
   5        6.735546      6.736035
   6       11.338480     11.338291
   7       12.419800     12.418544
   8       12.470394     12.469149
   9       15.379435     15.379192
  10       16.502989     16.503386
  11       20.441589     20.441059
  12       20.794852     20.794518
 
 -0.3125000E+00 -0.4375000E+00  0.6250000E-01  0.2343750E-01
   1       -3.791113     -3.790638
   2        2.983474      2.983574
   3        3.886169      3.885635
   4        5.389790      5.390127
   5        7.225303      7.225407
   6       11.829799     11.829192
   7       12.388056     12.387157
   8       12.585507     12.584729
   9       16.051062     16.051419
  10       17.278766     17.278603
  11       20.413198     20.412904
  12       20.797032     20.796684
 
 -0.1875000E+00 -0.4375000E+00  0.6250000E-01  0.2343750E-01
   1       -3.187207     -3.186664
   2        1.646825      1.646742
   3        3.553651      3.553608
   4        4.257055      4.257192
   5        8.290456      8.289966
   6       11.544372     11.543350
   7       12.110458     12.109490
   8       14.347177     14.347378
   9       16.105415     16.105457
  10       18.837200     18.837322
  11       19.820511     19.820599
  12       20.804682     20.804294
 
 -0.3125000E+00 -0.3125000E+00  0.6250000E-01  0.1171875E-01
   1       -4.013919     -4.013452
   2        2.530706      2.530799
   3        4.414760      4.413982
   4        6.088014      6.088347
   5        6.459862      6.460086
   6       10.786889     10.786609
   7       12.410846     12.409914
   8       12.498622     12.497786
   9       15.289345     15.289614
  10       18.794445     18.794462
  11       20.655990     20.655782
  12       20.806533     20.806116
 
 -0.1875000E+00 -0.3125000E+00  0.6250000E-01  0.2343750E-01
   1       -4.022893     -4.022428
   2        2.225419      2.225451
   3        4.314718      4.314336
   4        5.093004      5.093182
   5        7.169331      7.169036
   6       10.840595     10.840033
   7       11.823173     11.822470
   8       12.501893     12.501603
   9       15.248494     15.248708
  10       19.394882     19.395100
  11       20.753752     20.753655
  12       21.176045     21.175666
 
 -0.1875000E+00 -0.1875000E+00  0.6250000E-01  0.1171875E-01
   1       -4.769152     -4.768755
   2        2.935507      2.935583
   3        5.211877      5.211402
   4        5.877138      5.877245
   5        6.489870      6.489587
   6        9.854928      9.854551
   7       11.060119     11.059664
   8       11.431266     11.431002
   9       13.807758     13.807919
  10       18.543236     18.543475
  11       20.787180     20.786892
  12       22.226647     22.224770
 
  0.1875000E+00  0.1875000E+00  0.1875000E+00  0.3906250E-02
   1       -5.321696     -5.321353
   2        4.436319      4.436246
   3        5.197362      5.197436
   4        5.197362      5.197436
   5        8.276826      8.276126
   6        8.276826      8.276126
   7        9.127993      9.127645
   8       12.712453     12.712718
   9       12.712453     12.712719
  10       16.414040     16.414039
  11       20.565759     20.563861
  12       20.789881     20.789565
 
  0.3125000E+00  0.1875000E+00  0.1875000E+00  0.1171875E-01
   1       -4.636769     -4.636375
   2        3.267131      3.267205
   3        4.257361      4.257471
   4        4.608664      4.608430
   5        8.241536      8.240719
   6        9.753241      9.752831
   7       10.248254     10.247771
   8       12.064459     12.064474
   9       15.378090     15.378557
  10       17.239405     17.239354
  11       20.785134     20.784858
  12       21.640906     21.639186
 
  0.4375000E+00  0.1875000E+00  0.1875000E+00  0.1171875E-01
   1       -3.529664     -3.529162
   2        1.811496      1.811508
   3        3.613303      3.613408
   4        3.897417      3.897219
   5        9.106855      9.105963
   6       10.739696     10.739358
   7       11.454402     11.453600
   8       12.949331     12.949320
   9       17.085800     17.085545
  10       17.689710     17.690399
  11       20.778403     20.778167
  12       21.838533     21.837509
 
 -0.4375000E+00  0.1875000E+00  0.1875000E+00  0.1171875E-01
   1       -2.617357     -2.616727
   2        0.848434      0.848302
   3        3.469280      3.469385
   4        3.483772      3.483766
   5       10.464246     10.463247
   6       10.610111     10.609292
   7       11.418856     11.418154
   8       15.070383     15.070571
   9       16.942706     16.942164
  10       17.905220     17.905872
  11       20.772677     20.772478
  12       21.360821     21.360933
 
 -0.3125000E+00  0.1875000E+00  0.1875000E+00  0.1171875E-01
   1       -2.820851     -2.820264
   2        1.106821      1.106695
   3        3.395026      3.395076
   4        3.884123      3.884241
   5        8.933825      8.933172
   6       11.451430     11.450356
   7       12.054213     12.053261
   8       15.744214     15.744599
   9       15.749378     15.749176
  10       18.288581     18.288781
  11       20.197789     20.198033
  12       20.811799     20.811386
 
 -0.1875000E+00  0.1875000E+00  0.1875000E+00  0.1171875E-01
   1       -3.786746     -3.786265
   2        1.990875      1.990864
   3        3.926431      3.926267
   4        4.800997      4.801133
   5        7.510546      7.510096
   6       10.978393     10.977586
   7       11.732988     11.732169
   8       13.454448     13.454504
   9       15.556853     15.557017
  10       18.943396     18.943469
  11       20.696413     20.696544
  12       20.945938     20.945438
 
  0.3125000E+00  0.3125000E+00  0.1875000E+00  0.1171875E-01
   1       -4.277245     -4.276819
   2        2.523786      2.523813
   3        4.148123      4.148013
   4        4.780081      4.780168
   5        7.762683      7.762106
   6       10.136793     10.136046
   7       10.772354     10.771703
   8       13.249921     13.250083
   9       15.139798     15.140052
  10       18.082488     18.082525
  11       20.780182     20.779930
  12       21.742537     21.741537
 
  0.4375000E+00  0.3125000E+00  0.1875000E+00  0.2343750E-01
   1       -3.595033     -3.594531
   2        1.886066      1.886066
   3        3.882810      3.882650
   4        4.185315      4.185373
   5        8.247550      8.247025
   6       11.245510     11.244804
   7       11.747861     11.747126
   8       12.897288     12.897202
   9       16.221964     16.222113
  10       18.802072     18.802324
  11       20.746194     20.746161
  12       21.125442     21.125274
 
 -0.4375000E+00  0.3125000E+00  0.1875000E+00  0.2343750E-01
   1       -3.019668     -3.019096
   2        1.623924      1.623861
   3        3.570903      3.570768
   4        3.834266      3.834409
   5        9.360685      9.360089
   6       10.972651     10.971778
   7       12.078254     12.077452
   8       13.554489     13.554541
   9       16.782402     16.782622
  10       19.000245     19.000107
  11       20.698169     20.698423
  12       20.942681     20.942405
 
 -0.3125000E+00  0.3125000E+00  0.1875000E+00  0.2343750E-01
   1       -2.971536     -2.970966
   2        1.746668      1.746562
   3        3.499246      3.499237
   4        3.953527      3.953670
   5        9.404976      9.404393
   6       10.595267     10.594476
   7       12.191963     12.190891
   8       15.071840     15.072017
   9       15.516476     15.516716
  10       19.017139     19.016614
  11       20.653423     20.653828
  12       20.883689     20.883321
 
 -0.1875000E+00  0.3125000E+00  0.1875000E+00  0.2343750E-01
   1       -3.403346     -3.402822
   2        2.016608      2.016594
   3        3.750269      3.750010
   4        4.315638      4.315824
   5        8.201986      8.201645
   6       11.623449     11.622528
   7       12.183427     12.182566
   8       13.035569     13.035506
   9       16.336785     16.336992
  10       19.162256     19.162371
  11       19.935470     19.935524
  12       20.804784     20.804396
 
  0.4375000E+00  0.4375000E+00  0.1875000E+00  0.1171875E-01
   1       -3.567041     -3.566537
   2        2.095219      2.095197
   3        3.788440      3.788229
   4        4.944139      4.944339
   5        7.384772      7.384473
   6       11.592401     11.591483
   7       12.249841     12.248851
   8       13.469275     13.469272
   9       15.905496     15.905705
  10       18.980275     18.980345
  11       19.628545     19.628446
  12       20.799953     20.799588
 
 -0.4375000E+00  0.4375000E+00  0.1875000E+00  0.2343750E-01
   1       -3.450325     -3.449815
   2        2.639008      2.639021
   3        3.656805      3.656521
   4        4.426615      4.426846
   5        8.236347      8.236176
   6       11.562637     11.561688
   7       12.391765     12.390715
   8       13.101034     13.100969
   9       15.925593     15.925845
  10       18.571964     18.571946
  11       20.362659     20.362473
  12       20.801610     20.801238
 
 -0.3125000E+00  0.4375000E+00  0.1875000E+00  0.2343750E-01
   1       -3.275351     -3.274822
   2        2.932775      2.932769
   3        3.531446      3.531353
   4        3.831114      3.831183
   5        9.436641      9.436320
   6       10.586531     10.585948
   7       12.456569     12.455329
   8       13.538779     13.538609
   9       14.830529     14.830821
  10       20.407904     20.408331
  11       20.819330     20.818893
  12       21.152657     21.152043
 
 -0.1875000E+00  0.4375000E+00  0.1875000E+00  0.2343750E-01
   1       -3.149742     -3.149194
   2        2.254195      2.254153
   3        3.536831      3.536684
   4        3.966045      3.966216
   5        9.396497      9.396066
   6       10.587523     10.586782
   7       12.376068     12.374988
   8       13.724182     13.724176
   9       15.685207     15.685480
  10       19.856215     19.855827
  11       20.670970     20.671260
  12       20.877205     20.876827
 
 -0.4375000E+00 -0.4375000E+00  0.1875000E+00  0.1171875E-01
   1       -3.658629     -3.658149
   2        3.169759      3.169504
   3        3.678980      3.679049
   4        5.272565      5.272880
   5        7.260804      7.260643
   6       11.934929     11.933725
   7       12.418445     12.417412
   8       13.370884     13.370981
   9       15.123021     15.123041
  10       17.794086     17.794307
  11       20.368719     20.368127
  12       20.795784     20.795443
 
 -0.3125000E+00 -0.4375000E+00  0.1875000E+00  0.2343750E-01
   1       -3.535776     -3.535280
   2        3.297675      3.297566
   3        3.622055      3.621960
   4        4.344444      4.344632
   5        8.283206      8.283144
   6       11.537988     11.537112
   7       12.454573     12.453348
   8       13.077891     13.077803
   9       15.070272     15.070426
  10       18.768686     18.768947
  11       20.636171     20.635564
  12       20.799322     20.798957
 
 -0.3125000E+00 -0.3125000E+00  0.1875000E+00  0.1171875E-01
   1       -3.587206     -3.586712
   2        2.657411      2.657361
   3        3.703966      3.703788
   4        5.135111      5.135379
   5        7.327278      7.327098
   6       11.892642     11.891550
   7       12.342653     12.341590
   8       13.390637     13.390685
   9       15.940716     15.940983
  10       17.721537     17.721438
  11       20.123540     20.123302
  12       20.797170     20.796822
 
  0.3125000E+00  0.3125000E+00  0.3125000E+00  0.3906250E-02
   1       -3.948186     -3.947753
   2        2.215478      2.215482
   3        3.865541      3.865598
   4        3.865541      3.865598
   5        9.615457      9.614625
   6        9.615457      9.614625
   7       10.005799     10.005159
   8       15.585336     15.585790
   9       15.585336     15.585790
  10       16.756152     16.755770
  11       20.776397     20.776160
  12       21.584405     21.583485
 
  0.4375000E+00  0.3125000E+00  0.3125000E+00  0.1171875E-01
   1       -3.298428     -3.297916
   2        1.449015      1.448997
   3        3.470901      3.470982
   4        3.772455      3.772404
   5        9.555986      9.555089
   6       10.221286     10.220699
   7       11.493432     11.492531
   8       14.502315     14.502550
   9       16.533565     16.533152
  10       17.731208     17.731901
  11       20.776861     20.776630
  12       21.878652     21.878273
 
 -0.4375000E+00  0.3125000E+00  0.3125000E+00  0.1171875E-01
   1       -2.826286     -2.825682
   2        1.227821      1.227733
   3        3.556654      3.556545
   4        3.597892      3.598023
   5       10.120202     10.119210
   6       10.723281     10.722436
   7       11.627769     11.627320
   8       13.678860     13.678943
   9       17.889114     17.888666
  10       17.944752     17.945407
  11       20.773475     20.773265
  12       21.199909     21.199050
 
 -0.3125000E+00  0.3125000E+00  0.3125000E+00  0.1171875E-01
   1       -3.066906     -3.066352
   2        1.957672      1.957555
   3        3.527920      3.527938
   4        4.186207      4.186400
   5        8.761516      8.760915
   6       11.127913     11.126807
   7       12.173671     12.172958
   8       14.485574     14.485651
   9       15.904633     15.904994
  10       19.196962     19.196801
  11       20.508857     20.508555
  12       20.804702     20.804302
 
  0.4375000E+00  0.4375000E+00  0.3125000E+00  0.1171875E-01
   1       -2.951008     -2.950455
   2        1.040921      1.040851
   3        3.357153      3.357190
   4        3.759353      3.759434
   5        9.107284      9.106560
   6       11.199836     11.198837
   7       11.779186     11.778282
   8       15.581868     15.581471
   9       15.729718     15.730118
  10       18.225510     18.226032
  11       20.745423     20.745391
  12       21.092917     21.092752
 
 -0.4375000E+00  0.4375000E+00  0.3125000E+00  0.2343750E-01
   1       -2.815451     -2.814855
   2        1.216173      1.216060
   3        3.457306      3.457319
   4        3.777293      3.777389
   5        9.460200      9.459539
   6       10.962560     10.961647
   7       11.932080     11.931140
   8       14.940812     14.941034
   9       16.442213     16.442196
  10       18.340063     18.340044
  11       20.697866     20.698115
  12       20.938115     20.937849
 
 -0.3125000E+00  0.4375000E+00  0.3125000E+00  0.2343750E-01
   1       -3.110940     -3.110389
   2        2.223354      2.223279
   3        3.521015      3.520976
   4        4.014471      4.014611
   5        9.363268      9.362714
   6       10.529068     10.528362
   7       12.357142     12.356097
   8       14.227563     14.227542
   9       15.289485     15.289801
  10       20.134697     20.134464
  11       20.732761     20.732731
  12       20.931515     20.931179
 
 -0.4375000E+00 -0.4375000E+00  0.3125000E+00  0.1171875E-01
   1       -2.941099     -2.940528
   2        1.558043      1.557918
   3        3.481382      3.481419
   4        4.058296      4.058458
   5        8.838952      8.838350
   6       11.321109     11.320009
   7       11.976541     11.975683
   8       15.528037     15.528202
   9       15.823958     15.824328
  10       18.264251     18.263796
  11       20.293328     20.293621
  12       20.811258     20.810851
 
  0.4375000E+00  0.4375000E+00  0.4375000E+00  0.3906250E-02
   1       -2.379025     -2.378407
   2        0.311756      0.311683
   3        3.181264      3.181310
   4        3.181264      3.181310
   5       10.904488     10.903495
   6       10.904488     10.903495
   7       11.524565     11.523747
   8       14.587503     14.586804
   9       17.835565     17.836251
  10       17.835565     17.836251
  11       20.784843     20.783081
  12       21.269607     21.269871
 
 -0.4375000E+00  0.4375000E+00  0.4375000E+00  0.1171875E-01
   1       -2.283913     -2.283225
   2        0.324987      0.324815
   3        3.295472      3.295525
   4        3.299814      3.299888
   5       10.591030     10.590126
   6       10.931338     10.930316
   7       11.718768     11.717948
   8       15.162987     15.162398
   9       17.184652     17.185041
  10       17.850262     17.850913
  11       20.769037     20.768876
  12       21.111078     21.111312
