       N       E                     dE             d eps       ncg     rms          rms(c)
DAV:   1     0.111764862940E+02    0.11176E+02   -0.40027E+03  2920   0.598E+02
DAV:   2    -0.182048963412E+02   -0.29381E+02   -0.28013E+02  3680   0.119E+02
DAV:   3    -0.190909925263E+02   -0.88610E+00   -0.88060E+00  3632   0.188E+01
DAV:   4    -0.190936850435E+02   -0.26925E-02   -0.26923E-02  3188   0.120E+00
DAV:   5    -0.190936946970E+02   -0.96535E-05   -0.96536E-05  3660   0.617E-02    0.188E+01
DAV:   6    -0.221101248275E+02   -0.30164E+01   -0.16578E+01  3220   0.198E+01    0.438E+00
DAV:   7    -0.223206518165E+02   -0.21053E+00   -0.63117E-01  3456   0.564E+00    0.155E+00
DAV:   8    -0.222606724602E+02    0.59979E-01   -0.81552E-02  3292   0.189E+00    0.859E-01
DAV:   9    -0.222533962500E+02    0.72762E-02   -0.25115E-02  3364   0.115E+00    0.244E-01
DAV:  10    -0.222512556170E+02    0.21406E-02   -0.12127E-03  3196   0.280E-01    0.567E-02
DAV:  11    -0.222510934018E+02    0.16222E-03   -0.14220E-04  2888   0.847E-02    0.327E-02
DAV:  12    -0.222510585199E+02    0.34882E-04   -0.35609E-05  1696   0.443E-02
   1 F= -.22251059E+02 E0= -.22251138E+02  d E =0.239178E-03  mag=    -0.0003
