   1   1   1   0
  0.1839001E+02  0.2962777E-09  0.2962777E-09  0.2962777E-09  0.5000000E-15
  1.000000000000000E-004
  CAR 
 unknown system                          
     24.33368141     -3.22078919  301      5.87464661      1.00000000
     -3.221  0.0000E+00  0.0000E+00  0.0000E+00  0.0000E+00
     -3.129  0.0000E+00  0.0000E+00  0.0000E+00  0.0000E+00
     -3.037  0.0000E+00  0.0000E+00  0.0000E+00  0.0000E+00
     -2.945  0.0000E+00  0.0000E+00  0.0000E+00  0.0000E+00
     -2.853  0.0000E+00  0.0000E+00  0.0000E+00  0.0000E+00
     -2.762  0.0000E+00  0.0000E+00  0.0000E+00  0.0000E+00
     -2.670  0.0000E+00  0.0000E+00  0.0000E+00  0.0000E+00
     -2.578  0.0000E+00  0.0000E+00  0.0000E+00  0.0000E+00
     -2.486  0.0000E+00  0.0000E+00  0.0000E+00  0.0000E+00
     -2.394 -0.8377E-33 -0.7620E-32 -0.7694E-34 -0.6999E-33
     -2.302 -0.1412E-20 -0.7946E-20 -0.1296E-21 -0.7298E-21
     -2.210 -0.2483E-11 -0.8603E-11 -0.2280E-12 -0.7901E-12
     -2.119 -0.4327E-05 -0.9107E-05 -0.3974E-06 -0.8365E-06
     -2.027 -0.3494E-02 -0.3513E-02 -0.3213E-03 -0.3235E-03
     -1.935  0.9327E-01  0.9911E-01  0.8245E-02  0.8780E-02
     -1.843  0.1124E-01  0.5337E-02  0.9278E-02  0.9270E-02
     -1.751 -0.2000E-03 -0.1142E-03  0.9259E-02  0.9259E-02
     -1.659 -0.2227E-08 -0.7605E-09  0.9259E-02  0.9259E-02
     -1.568 -0.2990E-16 -0.4168E-16  0.9259E-02  0.9259E-02
     -1.476 -0.1495E-08 -0.4874E-08  0.9259E-02  0.9259E-02
     -1.384 -0.2732E-03 -0.5101E-03  0.9234E-02  0.9212E-02
     -1.292  0.1057E-01  0.2791E-01  0.1021E-01  0.1178E-01
     -1.200  0.3023E+00  0.2857E+00  0.3797E-01  0.3802E-01
     -1.108 -0.1009E-01 -0.1065E-01  0.3704E-01  0.3704E-01
     -1.016 -0.3603E-04 -0.1625E-04  0.3704E-01  0.3704E-01
     -0.925 -0.4125E-10 -0.1081E-10  0.3704E-01  0.3704E-01
     -0.833 -0.9160E-08 -0.3053E-07  0.3704E-01  0.3704E-01
     -0.741 -0.7044E-03 -0.1274E-02  0.3697E-01  0.3692E-01
     -0.649  0.4006E-01  0.6920E-01  0.4065E-01  0.4328E-01
     -0.557  0.2733E+00  0.2430E+00  0.6575E-01  0.6560E-01
     -0.465 -0.1021E-01 -0.8501E-02  0.6482E-01  0.6482E-01
     -0.373 -0.1031E-04 -0.4059E-05  0.6481E-01  0.6481E-01
     -0.282 -0.1264E-04 -0.2973E-04  0.6481E-01  0.6481E-01
     -0.190 -0.3323E-02 -0.1877E-02  0.6451E-01  0.6464E-01
     -0.098  0.9656E-01  0.9720E-01  0.7338E-01  0.7357E-01
     -0.006  0.1705E+00  0.2068E+00  0.8903E-01  0.9257E-01
      0.086  0.1430E+00  0.1033E+00  0.1022E+00  0.1020E+00
      0.178 -0.3470E-02 -0.2142E-02  0.1019E+00  0.1019E+00
      0.269 -0.2902E-06 -0.9427E-07  0.1019E+00  0.1019E+00
      0.361 -0.7053E-04 -0.1725E-03  0.1018E+00  0.1018E+00
      0.453 -0.2027E-01 -0.1179E-01  0.9998E-01  0.1008E+00
      0.545  0.6038E+00  0.6218E+00  0.1554E+00  0.1579E+00
      0.637  0.2102E-01 -0.6480E-02  0.1574E+00  0.1573E+00
      0.729  0.5178E-01  0.9003E-01  0.1621E+00  0.1655E+00
      0.821  0.2606E+00  0.2211E+00  0.1861E+00  0.1858E+00
      0.912 -0.9538E-02 -0.7211E-02  0.1852E+00  0.1852E+00
      1.004 -0.6869E-05 -0.2426E-05  0.1852E+00  0.1852E+00
      1.096 -0.1083E-02 -0.2046E-02  0.1851E+00  0.1850E+00
      1.188  0.4320E-01  0.8177E-01  0.1891E+00  0.1925E+00
      1.280  0.4860E+00  0.4834E+00  0.2337E+00  0.2369E+00
      1.372  0.1771E+00  0.1518E+00  0.2500E+00  0.2509E+00
      1.463  0.2943E+00  0.2933E+00  0.2770E+00  0.2778E+00
      1.555  0.2811E+00  0.2952E+00  0.3028E+00  0.3049E+00
      1.647  0.1302E+00  0.1154E+00  0.3148E+00  0.3155E+00
      1.739  0.2589E+00  0.3131E+00  0.3385E+00  0.3443E+00
      1.831  0.1167E+01  0.1111E+01  0.4457E+00  0.4463E+00
      1.923  0.3131E+00  0.4083E+00  0.4745E+00  0.4838E+00
      2.015  0.2845E+00  0.1796E+00  0.5006E+00  0.5003E+00
      2.106 -0.8011E-02 -0.5393E-02  0.4999E+00  0.4998E+00
      2.198  0.5505E-01  0.1019E+00  0.5050E+00  0.5092E+00
      2.290  0.8697E+00  0.8299E+00  0.5848E+00  0.5854E+00
      2.382  0.5851E+00  0.5873E+00  0.6386E+00  0.6394E+00
      2.474  0.1050E+00  0.1988E+00  0.6482E+00  0.6576E+00
      2.566  0.8382E+00  0.7389E+00  0.7252E+00  0.7255E+00
      2.657  0.2613E+00  0.2597E+00  0.7492E+00  0.7493E+00
      2.749  0.5660E+00  0.6938E+00  0.8012E+00  0.8131E+00
      2.841  0.3596E+00  0.2258E+00  0.8342E+00  0.8338E+00
      2.933 -0.9932E-02 -0.5786E-02  0.8333E+00  0.8333E+00
      3.025 -0.2698E-01  0.6814E-02  0.8308E+00  0.8339E+00
      3.117  0.1222E+01  0.1215E+01  0.9431E+00  0.9455E+00
      3.209  0.1039E+00  0.1922E+00  0.9526E+00  0.9631E+00
      3.300  0.1162E+01  0.1094E+01  0.1059E+01  0.1064E+01
      3.392  0.5849E+00  0.5378E+00  0.1113E+01  0.1113E+01
      3.484 -0.1351E-01  0.3940E-01  0.1112E+01  0.1117E+01
      3.576  0.6177E+00  0.5916E+00  0.1169E+01  0.1171E+01
      3.668  0.2807E+00  0.2567E+00  0.1194E+01  0.1195E+01
      3.760  0.2631E+00  0.2902E+00  0.1218E+01  0.1221E+01
      3.852  0.6568E-01  0.8314E-01  0.1224E+01  0.1229E+01
      3.943  0.8462E+00  0.8275E+00  0.1302E+01  0.1305E+01
      4.035 -0.1141E-01  0.1205E-01  0.1301E+01  0.1306E+01
      4.127  0.1790E+01  0.1834E+01  0.1466E+01  0.1474E+01
      4.219  0.1444E+00  0.7899E-01  0.1479E+01  0.1482E+01
      4.311  0.5794E+00  0.5589E+00  0.1532E+01  0.1533E+01
      4.403  0.2668E+00  0.2560E+00  0.1557E+01  0.1557E+01
      4.494 -0.1801E-01 -0.2088E-01  0.1555E+01  0.1555E+01
      4.586  0.2096E+00  0.3086E+00  0.1574E+01  0.1583E+01
      4.678  0.1007E+01  0.9230E+00  0.1667E+01  0.1668E+01
      4.770  0.5106E+00  0.5858E+00  0.1714E+01  0.1722E+01
      4.862  0.8248E+00  0.8827E+00  0.1789E+01  0.1803E+01
      4.954  0.4771E+00  0.3186E+00  0.1833E+01  0.1832E+01
      5.046  0.5484E+00  0.7072E+00  0.1883E+01  0.1897E+01
      5.137  0.9886E+00  0.8450E+00  0.1974E+01  0.1974E+01
      5.229 -0.2741E-01  0.8780E-03  0.1972E+01  0.1975E+01
      5.321  0.5385E+00  0.5772E+00  0.2021E+01  0.2028E+01
      5.413  0.7603E+00  0.8375E+00  0.2091E+01  0.2104E+01
      5.505  0.9190E+00  0.7892E+00  0.2175E+01  0.2177E+01
      5.597  0.4508E+00  0.5256E+00  0.2217E+01  0.2225E+01
      5.688  0.7852E+00  0.8513E+00  0.2289E+01  0.2303E+01
      5.780  0.1184E+01  0.1031E+01  0.2398E+01  0.2398E+01
      5.872  0.9705E+00  0.1165E+01  0.2487E+01  0.2505E+01
      5.964  0.5623E+00  0.3561E+00  0.2539E+01  0.2538E+01
      6.056 -0.2709E-01 -0.1227E-01  0.2536E+01  0.2537E+01
      6.148  0.2720E+00  0.2931E+00  0.2561E+01  0.2564E+01
      6.240  0.7519E+00  0.7734E+00  0.2630E+01  0.2635E+01
      6.331  0.3645E+00  0.4051E+00  0.2664E+01  0.2672E+01
      6.423  0.1116E+01  0.1099E+01  0.2766E+01  0.2773E+01
      6.515  0.3223E+00  0.2533E+00  0.2796E+01  0.2796E+01
      6.607  0.4792E+00  0.5307E+00  0.2840E+01  0.2845E+01
      6.699  0.3454E+00  0.2890E+00  0.2871E+01  0.2871E+01
      6.791 -0.4317E-01 -0.4163E-01  0.2867E+01  0.2868E+01
      6.883  0.1177E+01  0.1470E+01  0.2976E+01  0.3003E+01
      6.974  0.1883E+01  0.1667E+01  0.3148E+01  0.3156E+01
      7.066  0.4909E+00  0.4428E+00  0.3194E+01  0.3196E+01
      7.158  0.3211E+00  0.2934E+00  0.3223E+01  0.3223E+01
      7.250 -0.9088E-02 -0.1092E-01  0.3222E+01  0.3222E+01
      7.342 -0.9480E-02 -0.1280E-01  0.3221E+01  0.3221E+01
      7.434  0.3441E+00  0.4100E+00  0.3253E+01  0.3259E+01
      7.525  0.3641E+00  0.3625E+00  0.3286E+01  0.3292E+01
      7.617  0.5062E+00  0.4364E+00  0.3333E+01  0.3332E+01
      7.709  0.6923E+00  0.7873E+00  0.3396E+01  0.3404E+01
      7.801  0.2636E+00  0.2158E+00  0.3421E+01  0.3424E+01
      7.893  0.8875E+00  0.8526E+00  0.3502E+01  0.3503E+01
      7.985 -0.2395E-01 -0.2750E-01  0.3500E+01  0.3500E+01
      8.077 -0.5846E-03 -0.1993E-02  0.3500E+01  0.3500E+01
      8.168  0.1943E-01  0.9032E-01  0.3502E+01  0.3508E+01
      8.260  0.3889E+00  0.3856E+00  0.3537E+01  0.3544E+01
      8.352  0.1179E+01  0.1172E+01  0.3646E+01  0.3651E+01
      8.444  0.8665E+00  0.8680E+00  0.3725E+01  0.3731E+01
      8.536  0.8674E+00  0.8291E+00  0.3805E+01  0.3807E+01
      8.628  0.1005E+01  0.1058E+01  0.3897E+01  0.3904E+01
      8.719  0.2075E+00  0.1255E+00  0.3916E+01  0.3916E+01
      8.811  0.3063E+00  0.3994E+00  0.3945E+01  0.3952E+01
      8.903  0.3096E+00  0.2197E+00  0.3973E+01  0.3973E+01
      8.995 -0.8045E-02 -0.4834E-02  0.3972E+01  0.3972E+01
      9.087 -0.9826E-05 -0.1745E-04  0.3972E+01  0.3972E+01
      9.179 -0.1004E-01 -0.1080E-01  0.3971E+01  0.3971E+01
      9.271  0.2472E+00  0.2703E+00  0.3994E+01  0.3996E+01
      9.362  0.6682E+00  0.6841E+00  0.4055E+01  0.4059E+01
      9.454  0.2025E+00  0.1745E+00  0.4074E+01  0.4075E+01
      9.546  0.3716E+00  0.3903E+00  0.4108E+01  0.4111E+01
      9.638  0.1210E+00  0.8146E-01  0.4119E+01  0.4118E+01
      9.730  0.7039E+00  0.9588E+00  0.4184E+01  0.4206E+01
      9.822  0.1146E+01  0.8885E+00  0.4289E+01  0.4288E+01
      9.914  0.3767E+00  0.4557E+00  0.4324E+01  0.4330E+01
     10.005  0.5259E+00  0.4563E+00  0.4372E+01  0.4372E+01
     10.097 -0.2038E-01 -0.3868E-02  0.4370E+01  0.4371E+01
     10.189  0.3917E+00  0.4371E+00  0.4406E+01  0.4411E+01
     10.281  0.5243E+00  0.4678E+00  0.4454E+01  0.4454E+01
     10.373  0.2844E+00  0.2920E+00  0.4480E+01  0.4481E+01
     10.465  0.1205E-01  0.2537E-02  0.4482E+01  0.4481E+01
     10.556 -0.2923E-03 -0.1786E-03  0.4481E+01  0.4481E+01
     10.648 -0.2038E-04 -0.4348E-04  0.4481E+01  0.4481E+01
     10.740 -0.1087E-01 -0.9914E-02  0.4480E+01  0.4481E+01
     10.832  0.2788E+00  0.3079E+00  0.4506E+01  0.4509E+01
     10.924  0.6294E+00  0.6043E+00  0.4564E+01  0.4564E+01
     11.016  0.4852E+00  0.6310E+00  0.4608E+01  0.4622E+01
     11.108  0.1118E+01  0.1055E+01  0.4711E+01  0.4719E+01
     11.199  0.9439E+00  0.9594E+00  0.4798E+01  0.4807E+01
     11.291  0.1140E+01  0.1070E+01  0.4903E+01  0.4906E+01
     11.383  0.2622E+00  0.2249E+00  0.4927E+01  0.4926E+01
     11.475  0.1517E+00  0.2490E+00  0.4941E+01  0.4949E+01
     11.567  0.6704E+00  0.5707E+00  0.5002E+01  0.5002E+01
     11.659 -0.9029E-02  0.2564E-01  0.5001E+01  0.5004E+01
     11.750  0.5315E+00  0.5273E+00  0.5050E+01  0.5052E+01
     11.842  0.2621E+00  0.2745E+00  0.5074E+01  0.5078E+01
     11.934  0.4769E+00  0.4780E+00  0.5118E+01  0.5121E+01
     12.026  0.3869E+00  0.4120E+00  0.5154E+01  0.5159E+01
     12.118  0.1008E+01  0.1149E+01  0.5246E+01  0.5265E+01
     12.210  0.1197E+01  0.1083E+01  0.5356E+01  0.5364E+01
     12.302  0.3684E+00  0.2737E+00  0.5390E+01  0.5389E+01
     12.393  0.2153E-01  0.5964E-01  0.5392E+01  0.5395E+01
     12.485  0.2799E+00  0.2454E+00  0.5418E+01  0.5417E+01
     12.577 -0.1049E-01 -0.8658E-02  0.5417E+01  0.5417E+01
     12.669 -0.1565E-01 -0.1971E-01  0.5415E+01  0.5415E+01
     12.761  0.4632E+00  0.5325E+00  0.5458E+01  0.5464E+01
     12.853  0.1595E+00  0.9166E-01  0.5472E+01  0.5472E+01
     12.945  0.4722E-01  0.9990E-01  0.5477E+01  0.5481E+01
     13.036  0.2372E+00  0.1804E+00  0.5499E+01  0.5498E+01
     13.128  0.6996E+00  0.8137E+00  0.5563E+01  0.5573E+01
     13.220  0.7841E+00  0.7354E+00  0.5635E+01  0.5640E+01
     13.312  0.3894E+00  0.3562E+00  0.5671E+01  0.5673E+01
     13.404  0.2703E+00  0.2435E+00  0.5695E+01  0.5695E+01
     13.496 -0.2590E-01 -0.2841E-01  0.5693E+01  0.5693E+01
     13.587  0.4496E+00  0.5133E+00  0.5734E+01  0.5740E+01
     13.679  0.4020E+00  0.3737E+00  0.5771E+01  0.5774E+01
     13.771  0.7152E-01  0.3842E-01  0.5778E+01  0.5778E+01
     13.863  0.3589E-01  0.8721E-01  0.5781E+01  0.5786E+01
     13.955  0.9028E+00  0.9577E+00  0.5864E+01  0.5874E+01
     14.047  0.2780E+00  0.1697E+00  0.5890E+01  0.5889E+01
     14.139 -0.7493E-02 -0.3803E-02  0.5889E+01  0.5889E+01
     14.230 -0.6926E-06 -0.1493E-06  0.5889E+01  0.5889E+01
     14.322 -0.2325E-03 -0.8157E-03  0.5889E+01  0.5889E+01
     14.414 -0.6233E-02  0.4168E-01  0.5888E+01  0.5893E+01
     14.506  0.6221E+00  0.5854E+00  0.5945E+01  0.5946E+01
     14.598 -0.1063E-01 -0.2138E-01  0.5944E+01  0.5944E+01
     14.690 -0.1852E-03 -0.4375E-04  0.5944E+01  0.5944E+01
     14.781 -0.4230E-09 -0.3551E-10  0.5944E+01  0.5944E+01
     14.873 -0.1314E-15 -0.6732E-15  0.5944E+01  0.5944E+01
     14.965 -0.1332E-07 -0.4177E-07  0.5944E+01  0.5944E+01
     15.057 -0.1198E-02 -0.2122E-02  0.5944E+01  0.5944E+01
     15.149  0.6148E-01  0.1100E+00  0.5950E+01  0.5954E+01
     15.241  0.8152E+00  0.8278E+00  0.6025E+01  0.6030E+01
     15.333  0.3446E+00  0.2815E+00  0.6057E+01  0.6056E+01
     15.424 -0.2069E-01 -0.2220E-01  0.6055E+01  0.6054E+01
     15.516  0.3645E+00  0.4475E+00  0.6088E+01  0.6095E+01
     15.608  0.2556E+00  0.1740E+00  0.6112E+01  0.6111E+01
     15.700  0.4420E-01  0.7445E-01  0.6116E+01  0.6118E+01
     15.792  0.2710E+00  0.2528E+00  0.6141E+01  0.6141E+01
     15.884  0.5809E+00  0.7745E+00  0.6194E+01  0.6212E+01
     15.975  0.6316E+00  0.4194E+00  0.6252E+01  0.6251E+01
     16.067 -0.2625E-01 -0.9984E-02  0.6249E+01  0.6250E+01
     16.159  0.3110E+00  0.3094E+00  0.6278E+01  0.6278E+01
     16.251 -0.2804E-02 -0.7769E-02  0.6278E+01  0.6278E+01
     16.343 -0.1891E-03 -0.2632E-03  0.6278E+01  0.6278E+01
     16.435 -0.7723E-02  0.3698E-02  0.6277E+01  0.6278E+01
     16.527  0.3094E+00  0.3267E+00  0.6305E+01  0.6308E+01
     16.618  0.6341E+00  0.6166E+00  0.6364E+01  0.6365E+01
     16.710  0.5859E-01  0.4335E-01  0.6369E+01  0.6369E+01
     16.802  0.4861E+00  0.5558E+00  0.6414E+01  0.6420E+01
     16.894  0.2041E+00  0.2225E+00  0.6432E+01  0.6440E+01
     16.986  0.5542E+00  0.4652E+00  0.6483E+01  0.6483E+01
     17.078 -0.2801E-01 -0.2719E-01  0.6481E+01  0.6480E+01
     17.170  0.2918E+00  0.3859E+00  0.6508E+01  0.6516E+01
     17.261  0.3289E+00  0.2355E+00  0.6538E+01  0.6538E+01
     17.353 -0.1075E-01 -0.8074E-02  0.6537E+01  0.6537E+01
     17.445  0.1052E+00  0.1468E+00  0.6547E+01  0.6550E+01
     17.537  0.5197E+00  0.4774E+00  0.6594E+01  0.6594E+01
     17.629 -0.2769E-01 -0.2293E-01  0.6592E+01  0.6592E+01
     17.721  0.3047E+00  0.3104E+00  0.6620E+01  0.6621E+01
     17.812 -0.9685E-02 -0.6694E-02  0.6619E+01  0.6620E+01
     17.904  0.6157E+00  0.6218E+00  0.6675E+01  0.6677E+01
     17.996  0.6568E-02 -0.1158E-01  0.6676E+01  0.6676E+01
     18.088 -0.1119E-01 -0.3274E-02  0.6675E+01  0.6676E+01
     18.180  0.3076E+00  0.3276E+00  0.6703E+01  0.6706E+01
     18.272  0.2983E+00  0.2718E+00  0.6731E+01  0.6731E+01
     18.364  0.5332E+00  0.5992E+00  0.6780E+01  0.6786E+01
     18.455  0.6767E-01 -0.6711E-02  0.6786E+01  0.6785E+01
     18.547  0.4718E+00  0.5829E+00  0.6829E+01  0.6839E+01
     18.639  0.2934E+00  0.2280E+00  0.6856E+01  0.6860E+01
     18.731  0.3615E+00  0.3669E+00  0.6889E+01  0.6893E+01
     18.823  0.2044E+00  0.1576E+00  0.6908E+01  0.6908E+01
     18.915 -0.8427E-02  0.6890E-02  0.6907E+01  0.6908E+01
     19.006  0.3607E+00  0.3591E+00  0.6940E+01  0.6941E+01
     19.098  0.1174E+00  0.1255E+00  0.6951E+01  0.6953E+01
     19.190  0.2002E+00  0.2386E+00  0.6970E+01  0.6975E+01
     19.282  0.4471E+00  0.3862E+00  0.7011E+01  0.7010E+01
     19.374 -0.1473E-01 -0.1139E-01  0.7009E+01  0.7009E+01
     19.466 -0.6192E-02 -0.7785E-02  0.7009E+01  0.7009E+01
     19.558  0.2027E+00  0.2309E+00  0.7027E+01  0.7030E+01
     19.649  0.7847E-01  0.3725E-01  0.7035E+01  0.7033E+01
     19.741  0.5904E+00  0.1005E+01  0.7089E+01  0.7125E+01
     19.833  0.9094E+01  0.1004E+02  0.7924E+01  0.8048E+01
     19.925  0.2220E+01  0.8550E+00  0.8128E+01  0.8126E+01
     20.017  0.4222E+00  0.6296E+00  0.8167E+01  0.8184E+01
     20.109  0.1117E+01  0.1072E+01  0.8269E+01  0.8283E+01
     20.201  0.5168E+00  0.4331E+00  0.8317E+01  0.8322E+01
     20.292  0.6609E+00  0.6386E+00  0.8378E+01  0.8381E+01
     20.384  0.3083E+00  0.3891E+00  0.8406E+01  0.8417E+01
     20.476  0.5406E+00  0.4149E+00  0.8455E+01  0.8455E+01
     20.568 -0.2295E-01 -0.2106E-01  0.8453E+01  0.8453E+01
     20.660  0.1488E+00  0.2243E+00  0.8467E+01  0.8474E+01
     20.752  0.1615E+00  0.8722E-01  0.8482E+01  0.8482E+01
     20.843 -0.4213E-02 -0.1704E-02  0.8481E+01  0.8481E+01
     20.935 -0.6947E-03 -0.1554E-02  0.8481E+01  0.8481E+01
     21.027  0.2936E-01  0.7935E-01  0.8484E+01  0.8489E+01
     21.119  0.5891E+00  0.5402E+00  0.8538E+01  0.8538E+01
     21.211  0.1681E+00  0.2464E+00  0.8554E+01  0.8561E+01
     21.303  0.7447E+00  0.6602E+00  0.8622E+01  0.8622E+01
     21.395  0.2175E+00  0.2392E+00  0.8642E+01  0.8643E+01
     21.486  0.6253E-01  0.4435E-01  0.8648E+01  0.8648E+01
     21.578  0.1846E+00  0.2231E+00  0.8665E+01  0.8668E+01
     21.670  0.1183E+00  0.7706E-01  0.8676E+01  0.8675E+01
     21.762  0.1899E+00  0.2636E+00  0.8693E+01  0.8699E+01
     21.854  0.5293E+00  0.4560E+00  0.8742E+01  0.8741E+01
     21.946  0.4995E+00  0.5076E+00  0.8788E+01  0.8788E+01
     22.037  0.1367E+00  0.2001E+00  0.8800E+01  0.8806E+01
     22.129  0.1628E+00  0.9441E-01  0.8815E+01  0.8815E+01
     22.221  0.9927E-01  0.1018E+00  0.8824E+01  0.8824E+01
     22.313 -0.6881E-02 -0.1512E-01  0.8824E+01  0.8823E+01
     22.405  0.2570E+00  0.4508E+00  0.8847E+01  0.8864E+01
     22.497  0.4675E+00  0.2702E+00  0.8890E+01  0.8889E+01
     22.589  0.8971E-01  0.1588E+00  0.8898E+01  0.8904E+01
     22.680  0.2064E+00  0.1452E+00  0.8917E+01  0.8917E+01
     22.772 -0.6408E-02 -0.3702E-02  0.8917E+01  0.8917E+01
     22.864 -0.1066E-01  0.2165E-03  0.8916E+01  0.8917E+01
     22.956  0.2934E+00  0.3071E+00  0.8943E+01  0.8945E+01
     23.048  0.5142E-01  0.1394E+00  0.8947E+01  0.8958E+01
     23.140  0.5943E+00  0.4772E+00  0.9002E+01  0.9002E+01
     23.232 -0.2108E-01 -0.1648E-01  0.9000E+01  0.9000E+01
     23.323 -0.5464E-04 -0.7178E-05  0.9000E+01  0.9000E+01
     23.415 -0.5162E-10 -0.1841E-11  0.9000E+01  0.9000E+01
     23.507  0.0000E+00  0.0000E+00  0.9000E+01  0.9000E+01
     23.599  0.0000E+00  0.0000E+00  0.9000E+01  0.9000E+01
     23.691  0.0000E+00  0.0000E+00  0.9000E+01  0.9000E+01
     23.783  0.0000E+00  0.0000E+00  0.9000E+01  0.9000E+01
     23.874  0.0000E+00  0.0000E+00  0.9000E+01  0.9000E+01
     23.966  0.0000E+00  0.0000E+00  0.9000E+01  0.9000E+01
     24.058  0.0000E+00  0.0000E+00  0.9000E+01  0.9000E+01
     24.150  0.0000E+00  0.0000E+00  0.9000E+01  0.9000E+01
     24.242  0.0000E+00  0.0000E+00  0.9000E+01  0.9000E+01
     24.334  0.0000E+00  0.0000E+00  0.9000E+01  0.9000E+01
     24.33368141     -3.22078919  301      5.87464661      1.00000000
     -3.221  0.0000E+00  0.0000E+00  0.0000E+00  0.0000E+00  0.0000E+00  0.0000E+00  0.0000E+00  0.0000E+00  0.0000E+00  0.0000E+00  0.0000E+00  0.0000E+00  0.0000E+00  0.0000E+00  0.0000E+00  0.0000E+00  0.0000E+00  0.0000E+00
     -3.129  0.0000E+00  0.0000E+00  0.0000E+00  0.0000E+00  0.0000E+00  0.0000E+00  0.0000E+00  0.0000E+00  0.0000E+00  0.0000E+00  0.0000E+00  0.0000E+00  0.0000E+00  0.0000E+00  0.0000E+00  0.0000E+00  0.0000E+00  0.0000E+00
     -3.037  0.0000E+00  0.0000E+00  0.0000E+00  0.0000E+00  0.0000E+00  0.0000E+00  0.0000E+00  0.0000E+00  0.0000E+00  0.0000E+00  0.0000E+00  0.0000E+00  0.0000E+00  0.0000E+00  0.0000E+00  0.0000E+00  0.0000E+00  0.0000E+00
     -2.945  0.0000E+00  0.0000E+00  0.0000E+00  0.0000E+00  0.0000E+00  0.0000E+00  0.0000E+00  0.0000E+00  0.0000E+00  0.0000E+00  0.0000E+00  0.0000E+00  0.0000E+00  0.0000E+00  0.0000E+00  0.0000E+00  0.0000E+00  0.0000E+00
     -2.853  0.0000E+00  0.0000E+00  0.0000E+00  0.0000E+00  0.0000E+00  0.0000E+00  0.0000E+00  0.0000E+00  0.0000E+00  0.0000E+00  0.0000E+00  0.0000E+00  0.0000E+00  0.0000E+00  0.0000E+00  0.0000E+00  0.0000E+00  0.0000E+00
     -2.762  0.0000E+00  0.0000E+00  0.0000E+00  0.0000E+00  0.0000E+00  0.0000E+00  0.0000E+00  0.0000E+00  0.0000E+00  0.0000E+00  0.0000E+00  0.0000E+00  0.0000E+00  0.0000E+00  0.0000E+00  0.0000E+00  0.0000E+00  0.0000E+00
     -2.670  0.0000E+00  0.0000E+00  0.0000E+00  0.0000E+00  0.0000E+00  0.0000E+00  0.0000E+00  0.0000E+00  0.0000E+00  0.0000E+00  0.0000E+00  0.0000E+00  0.0000E+00  0.0000E+00  0.0000E+00  0.0000E+00  0.0000E+00  0.0000E+00
     -2.578  0.0000E+00  0.0000E+00  0.0000E+00  0.0000E+00  0.0000E+00  0.0000E+00  0.0000E+00  0.0000E+00  0.0000E+00  0.0000E+00  0.0000E+00  0.0000E+00  0.0000E+00  0.0000E+00  0.0000E+00  0.0000E+00  0.0000E+00  0.0000E+00
     -2.486  0.0000E+00  0.0000E+00  0.0000E+00  0.0000E+00  0.0000E+00  0.0000E+00  0.0000E+00  0.0000E+00  0.0000E+00  0.0000E+00  0.0000E+00  0.0000E+00  0.0000E+00  0.0000E+00  0.0000E+00  0.0000E+00  0.0000E+00  0.0000E+00
     -2.394 -0.6930E-33 -0.6316E-32 -0.5861E-35 -0.5342E-34 -0.5861E-35 -0.5342E-34 -0.5861E-35 -0.5342E-34 -0.2329E-36 -0.2120E-35 -0.2329E-36 -0.2120E-35 -0.5818E-47 -0.9934E-49 -0.2329E-36 -0.2120E-35 -0.8226E-48 -0.7460E-49
     -2.302 -0.1168E-20 -0.6586E-20 -0.9876E-23 -0.5570E-22 -0.9876E-23 -0.5570E-22 -0.9876E-23 -0.5570E-22 -0.3924E-24 -0.2211E-23 -0.3924E-24 -0.2211E-23 -0.9803E-35 -0.1036E-36 -0.3924E-24 -0.2211E-23 -0.1386E-35 -0.7779E-37
     -2.210 -0.2054E-11 -0.7131E-11 -0.1737E-13 -0.6030E-13 -0.1737E-13 -0.6030E-13 -0.1737E-13 -0.6030E-13 -0.6902E-15 -0.2394E-14 -0.6902E-15 -0.2394E-14 -0.1724E-25 -0.1121E-27 -0.6902E-15 -0.2394E-14 -0.2438E-26 -0.8422E-28
     -2.119 -0.3580E-05 -0.7549E-05 -0.3027E-07 -0.6384E-07 -0.3027E-07 -0.6384E-07 -0.3027E-07 -0.6384E-07 -0.1203E-08 -0.2534E-08 -0.1203E-08 -0.2534E-08 -0.3005E-19 -0.1187E-21 -0.1203E-08 -0.2534E-08 -0.4249E-20 -0.8916E-22
     -2.027 -0.2891E-02 -0.2912E-02 -0.2445E-04 -0.2463E-04 -0.2445E-04 -0.2463E-04 -0.2445E-04 -0.2463E-04 -0.9713E-06 -0.9776E-06 -0.9713E-06 -0.9776E-06 -0.2426E-16 -0.4580E-19 -0.9713E-06 -0.9776E-06 -0.3431E-17 -0.3439E-19
     -1.935  0.7716E-01  0.8215E-01  0.6526E-03  0.6947E-03  0.6526E-03  0.6947E-03  0.6526E-03  0.6947E-03  0.2593E-04  0.2758E-04  0.2593E-04  0.2758E-04  0.6477E-15  0.1292E-17  0.2593E-04  0.2758E-04  0.9159E-16  0.9703E-18
     -1.843  0.9299E-02  0.4423E-02  0.7864E-04  0.3741E-04  0.7864E-04  0.3741E-04  0.7864E-04  0.3741E-04  0.3125E-05  0.1485E-05  0.3125E-05  0.1485E-05  0.7806E-16  0.6957E-19  0.3125E-05  0.1485E-05  0.1104E-16  0.5224E-19
     -1.751 -0.1655E-03 -0.9464E-04 -0.1399E-05 -0.8003E-06 -0.1399E-05 -0.8003E-06 -0.1399E-05 -0.8003E-06 -0.5560E-07 -0.3177E-07 -0.5560E-07 -0.3177E-07 -0.1389E-17 -0.1488E-20 -0.5560E-07 -0.3177E-07 -0.1964E-18 -0.1118E-20
     -1.659 -0.1842E-08 -0.6303E-09 -0.1558E-10 -0.5331E-11 -0.1558E-10 -0.5331E-11 -0.1558E-10 -0.5331E-11 -0.6191E-12 -0.2116E-12 -0.6191E-12 -0.2116E-12 -0.1546E-22 -0.9914E-26 -0.6191E-12 -0.2116E-12 -0.2187E-23 -0.7446E-26
     -1.568 -0.2439E-16 -0.3262E-16 -0.2031E-18 -0.2581E-18 -0.2031E-18 -0.2581E-18 -0.6099E-18 -0.2518E-17 -0.2373E-19 -0.9710E-19 -0.9538E-20 -0.1839E-19 -0.6011E-20 -0.3326E-19 -0.2373E-19 -0.9710E-19 -0.1803E-19 -0.9977E-19
     -1.476 -0.1168E-08 -0.3814E-08 -0.9239E-11 -0.3018E-10 -0.9239E-11 -0.3018E-10 -0.9013E-10 -0.2944E-09 -0.3482E-11 -0.1135E-10 -0.6593E-12 -0.2150E-11 -0.1195E-11 -0.3889E-11 -0.3482E-11 -0.1135E-10 -0.3586E-11 -0.1167E-10
     -1.384 -0.2134E-03 -0.3992E-03 -0.1688E-05 -0.3159E-05 -0.1688E-05 -0.3159E-05 -0.1647E-04 -0.3081E-04 -0.6363E-06 -0.1188E-05 -0.1205E-06 -0.2251E-06 -0.2184E-06 -0.4070E-06 -0.6363E-06 -0.1188E-05 -0.6553E-06 -0.1221E-05
     -1.292  0.8258E-02  0.2185E-01  0.6534E-04  0.1729E-03  0.6534E-04  0.1729E-03  0.6374E-03  0.1686E-02  0.2462E-04  0.6503E-04  0.4662E-05  0.1232E-04  0.8453E-05  0.2227E-04  0.2462E-04  0.6503E-04  0.2536E-04  0.6682E-04
     -1.200  0.2361E+00  0.2236E+00  0.1868E-02  0.1769E-02  0.1868E-02  0.1769E-02  0.1822E-01  0.1726E-01  0.7040E-03  0.6656E-03  0.1333E-03  0.1260E-03  0.2417E-03  0.2280E-03  0.7040E-03  0.6656E-03  0.7250E-03  0.6839E-03
     -1.108 -0.7881E-02 -0.8336E-02 -0.6236E-04 -0.6596E-04 -0.6236E-04 -0.6596E-04 -0.6083E-03 -0.6434E-03 -0.2350E-04 -0.2482E-04 -0.4450E-05 -0.4700E-05 -0.8067E-05 -0.8499E-05 -0.2350E-04 -0.2482E-04 -0.2420E-04 -0.2550E-04
     -1.016 -0.2814E-04 -0.1272E-04 -0.2227E-06 -0.1006E-06 -0.2227E-06 -0.1006E-06 -0.2172E-05 -0.9817E-06 -0.8391E-07 -0.3786E-07 -0.1589E-07 -0.7170E-08 -0.2880E-07 -0.1297E-07 -0.8391E-07 -0.3786E-07 -0.8641E-07 -0.3890E-07
     -0.925 -0.3222E-10 -0.8461E-11 -0.2550E-12 -0.6697E-13 -0.2550E-12 -0.6697E-13 -0.2487E-11 -0.6530E-12 -0.9608E-13 -0.2519E-13 -0.1819E-13 -0.4782E-14 -0.3298E-13 -0.8626E-14 -0.9608E-13 -0.2519E-13 -0.9895E-13 -0.2588E-13
     -0.833 -0.6735E-08 -0.2249E-07 -0.4877E-09 -0.1629E-08 -0.4877E-09 -0.1629E-08 -0.4373E-10 -0.1461E-09 -0.3411E-10 -0.1137E-09 -0.1826E-09 -0.6088E-09 -0.4813E-11 -0.1601E-10 -0.3411E-10 -0.1137E-09 -0.1444E-10 -0.4802E-10
     -0.741 -0.5179E-03 -0.9382E-03 -0.3751E-04 -0.6794E-04 -0.3751E-04 -0.6794E-04 -0.3363E-05 -0.6092E-05 -0.2623E-05 -0.4743E-05 -0.1404E-04 -0.2539E-04 -0.3702E-06 -0.6677E-06 -0.2623E-05 -0.4743E-05 -0.1110E-05 -0.2003E-05
     -0.649  0.2945E-01  0.5098E-01  0.2133E-02  0.3692E-02  0.2133E-02  0.3692E-02  0.1913E-03  0.3310E-03  0.1492E-03  0.2577E-03  0.7984E-03  0.1380E-02  0.2105E-04  0.3628E-04  0.1492E-03  0.2577E-03  0.6315E-04  0.1088E-03
     -0.557  0.2009E+00  0.1790E+00  0.1455E-01  0.1296E-01  0.1455E-01  0.1296E-01  0.1305E-02  0.1163E-02  0.1018E-02  0.9051E-03  0.5447E-02  0.4846E-02  0.1436E-03  0.1274E-03  0.1018E-02  0.9051E-03  0.4308E-03  0.3822E-03
     -0.465 -0.7506E-02 -0.6263E-02 -0.5436E-03 -0.4535E-03 -0.5436E-03 -0.4535E-03 -0.4874E-04 -0.4067E-04 -0.3801E-04 -0.3166E-04 -0.2035E-03 -0.1695E-03 -0.5365E-05 -0.4457E-05 -0.3801E-04 -0.3166E-04 -0.1609E-04 -0.1337E-04
     -0.373 -0.7580E-05 -0.2990E-05 -0.5489E-06 -0.2165E-06 -0.5489E-06 -0.2165E-06 -0.4922E-07 -0.1942E-07 -0.3839E-07 -0.1512E-07 -0.2055E-06 -0.8093E-07 -0.5418E-08 -0.2128E-08 -0.3839E-07 -0.1512E-07 -0.1625E-07 -0.6384E-08
     -0.282 -0.8633E-05 -0.2034E-04 -0.5078E-06 -0.1197E-05 -0.5078E-06 -0.1197E-05 -0.5078E-06 -0.1197E-05 -0.3914E-06 -0.9207E-06 -0.3914E-06 -0.9207E-06 -0.4509E-14 -0.9966E-14 -0.3914E-06 -0.9207E-06 -0.8033E-14 -0.1763E-14
     -0.190 -0.2269E-02 -0.1284E-02 -0.1335E-03 -0.7547E-04 -0.1335E-03 -0.7569E-04 -0.1335E-03 -0.7547E-04 -0.1029E-03 -0.5807E-04 -0.1029E-03 -0.5808E-04 -0.2096E-07 -0.5963E-07 -0.1029E-03 -0.5808E-04 -0.4245E-25 -0.4336E-22
     -0.098  0.6596E-01  0.6654E-01  0.4036E-02  0.4140E-02  0.3403E-02  0.3221E-02  0.4036E-02  0.4140E-02  0.3122E-02  0.3203E-02  0.3104E-02  0.3176E-02 -0.1704E-03 -0.2461E-03  0.3104E-02  0.3176E-02 -0.1580E-22 -0.1039E-21
     -0.006  0.1153E+00  0.1401E+00  0.9543E-03  0.9905E-03  0.2468E-01  0.3052E-01  0.9543E-03  0.9905E-03  0.2795E-03  0.1957E-03  0.9679E-03  0.1052E-02  0.6390E-02  0.7915E-02  0.9679E-03  0.1052E-02  0.6385E-21  0.7934E-19
      0.086  0.9668E-01  0.6994E-01  0.7027E-03  0.5090E-03  0.2100E-01  0.1519E-01  0.7027E-03  0.5090E-03  0.1514E-03  0.1100E-03  0.7404E-03  0.5356E-03  0.5467E-02  0.3936E-02  0.7404E-03  0.5356E-03  0.5463E-21  0.3946E-19
      0.178 -0.2346E-02 -0.1451E-02 -0.1713E-04 -0.1059E-04 -0.5093E-03 -0.3150E-03 -0.1713E-04 -0.1059E-04 -0.3737E-05 -0.2307E-05 -0.1802E-04 -0.1113E-04 -0.1326E-03 -0.8160E-04 -0.1802E-04 -0.1113E-04 -0.1115E-20 -0.1051E-19
      0.269 -0.1962E-06 -0.6384E-07 -0.1435E-08 -0.4798E-09 -0.4258E-07 -0.1381E-07 -0.1442E-08 -0.5133E-09 -0.3161E-09 -0.1188E-09 -0.1507E-08 -0.4914E-09 -0.1108E-07 -0.3581E-08 -0.1507E-08 -0.4913E-09 -0.1004E-11 -0.4698E-11
      0.361 -0.4475E-04 -0.1097E-03 -0.2958E-05 -0.7248E-05 -0.1788E-06 -0.4381E-06 -0.9269E-05 -0.2272E-04 -0.3323E-05 -0.8133E-05 -0.6351E-06 -0.1554E-05 -0.6102E-06 -0.1488E-05 -0.6189E-06 -0.1515E-05 -0.8901E-06 -0.2170E-05
      0.453 -0.1286E-01 -0.7498E-02 -0.8502E-03 -0.4955E-03 -0.5141E-04 -0.2995E-04 -0.2664E-02 -0.1553E-02 -0.9551E-03 -0.5561E-03 -0.1826E-03 -0.1062E-03 -0.1754E-03 -0.1017E-03 -0.1779E-03 -0.1036E-03 -0.2559E-03 -0.1484E-03
      0.545  0.3831E+00  0.3953E+00  0.2532E-01  0.2612E-01  0.1531E-02  0.1579E-02  0.7936E-01  0.8189E-01  0.2845E-01  0.2931E-01  0.5437E-02  0.5600E-02  0.5224E-02  0.5363E-02  0.5299E-02  0.5460E-02  0.7620E-02  0.7823E-02
      0.637  0.1339E-01 -0.4012E-02  0.9012E-03 -0.2339E-03  0.3667E-04 -0.4851E-04  0.2796E-02 -0.7884E-03  0.9693E-03 -0.3454E-03  0.1376E-03 -0.1577E-03  0.1877E-03 -0.4466E-04  0.1282E-03 -0.1652E-03  0.2704E-03 -0.7153E-04
      0.729  0.2968E-01  0.5176E-01  0.1048E-02  0.1842E-02  0.1070E-02  0.1851E-02  0.4900E-02  0.8563E-02  0.3610E-02  0.6265E-02  0.3382E-02  0.5843E-02  0.1172E-03  0.2077E-03  0.3631E-02  0.6274E-02  0.3591E-03  0.6263E-03
      0.821  0.1495E+00  0.1272E+00  0.5336E-02  0.4537E-02  0.5336E-02  0.4537E-02  0.2476E-01  0.2106E-01  0.1811E-01  0.1537E-01  0.1687E-01  0.1432E-01  0.6076E-03  0.5140E-03  0.1811E-01  0.1537E-01  0.1823E-02  0.1542E-02
      0.912 -0.5474E-02 -0.4147E-02 -0.1953E-03 -0.1479E-03 -0.1953E-03 -0.1479E-03 -0.9064E-03 -0.6866E-03 -0.6627E-03 -0.5013E-03 -0.6174E-03 -0.4669E-03 -0.2224E-04 -0.1676E-04 -0.6627E-03 -0.5013E-03 -0.6672E-04 -0.5027E-04
      1.004 -0.3934E-05 -0.1362E-05 -0.1401E-06 -0.4765E-07 -0.1401E-06 -0.4765E-07 -0.6485E-06 -0.2139E-06 -0.4828E-06 -0.1910E-06 -0.4504E-06 -0.1805E-06 -0.1590E-07 -0.5182E-08 -0.4828E-06 -0.1910E-06 -0.4771E-07 -0.1555E-07
      1.096 -0.4521E-03 -0.8626E-03 -0.1797E-04 -0.3796E-04 -0.1799E-04 -0.3803E-04 -0.7933E-05 -0.1430E-04 -0.1846E-03 -0.3419E-03 -0.1914E-03 -0.3580E-03 -0.1476E-06 -0.3567E-06 -0.1846E-03 -0.3419E-03 -0.3514E-06 -0.8238E-06
      1.188  0.1770E-01  0.3476E-01  0.6374E-03  0.1839E-02  0.1836E-03  0.1151E-02  0.3445E-03  0.5345E-03  0.7977E-02  0.1383E-01  0.8171E-02  0.1471E-01 -0.5600E-03 -0.8347E-03  0.7973E-02  0.1383E-01  0.1026E-04  0.4542E-04
      1.280  0.2244E+00  0.2249E+00  0.1526E-01  0.1428E-01  0.3609E-01  0.4169E-01  0.1628E-02  0.1585E-02  0.4848E-01  0.4291E-01  0.5792E-01  0.5176E-01  0.2602E-01  0.3396E-01  0.4868E-01  0.4316E-01  0.4772E-03  0.4415E-03
      1.372  0.8303E-01  0.7208E-01 -0.2879E-03  0.6942E-03  0.3465E-01  0.2918E-01  0.7600E-03  0.6164E-03 -0.9719E-03 -0.8493E-03 -0.1586E-02 -0.3291E-03  0.4336E-01  0.3515E-01 -0.6441E-03 -0.5818E-03 -0.5150E-04  0.1556E-04