    1    1    1    2
  0.1839001E+02  0.2962777E-09  0.2962777E-09  0.2962777E-09  0.5000000E-15
  1.000000000000000E-004
  CAR 
 unknown system                          
    5   28    9
 
  0.8333333E-01  0.8333333E-01  0.8333333E-01  0.9259259E-02
   1       -1.961837     -1.968313
   2        6.191028      6.181122
   3        6.583519      6.573981
   4        6.583519      6.573981
   5        9.387055      9.382183
   6        9.387055      9.382183
   7       19.082679     19.063334
   8       19.799348     19.781337
   9       22.177114     22.174202
 
  0.2500000E+00  0.8333333E-01  0.8333333E-01  0.2777778E-01
   1       -0.624059     -0.631658
   2        5.322102      5.311055
   3        6.837158      6.828668
   4        7.105922      7.096842
   5        8.581606      8.576563
   6        9.886097      9.880165
   7       19.783597     19.767900
   8       19.955146     19.949033
   9       21.752188     21.735700
 
  0.4166667E+00  0.8333333E-01  0.8333333E-01  0.2777778E-01
   1        1.225918      1.216340
   2        5.434478      5.422487
   3        6.208136      6.201110
   4        6.641298      6.635036
   5       10.204289     10.196590
   6       11.731769     11.724131
   7       17.458490     17.454985
   8       19.798914     19.781178
   9       20.418865     20.404752
 
 -0.4166667E+00  0.8333333E-01  0.8333333E-01  0.2777778E-01
   1        1.526664      1.516403
   2        5.675443      5.669608
   3        6.442255      6.436034
   4        6.573550      6.559810
   5       11.949886     11.942406
   6       12.137913     12.129822
   7       16.114678     16.108804
   8       18.742318     18.732873
   9       19.808509     19.790036
 
 -0.2500000E+00  0.8333333E-01  0.8333333E-01  0.2777778E-01
   1        0.750246      0.741380
   2        5.049612      5.037846
   3        6.400230      6.393762
   4        6.929853      6.922417
   5        9.752535      9.744560
   6       10.801181     10.794377
   7       18.215809     18.212942
   8       19.803917     19.785790
   9       21.899059     21.883558
 
 -0.8333333E-01  0.8333333E-01  0.8333333E-01  0.2777778E-01
   1       -1.256085     -1.263131
   2        5.570964      5.560546
   3        6.915178      6.905744
   4        6.948487      6.938945
   5        8.575273      8.570396
   6        9.720875      9.715867
   7       19.798294     19.780338
   8       20.403110     20.386035
   9       21.376846     21.372819
 
  0.2500000E+00  0.2500000E+00  0.8333333E-01  0.2777778E-01
   1       -0.008366     -0.016100
   2        4.632387      4.621404
   3        6.865022      6.859001
   4        7.700164      7.690659
   5        8.271423      8.262621
   6       10.337598     10.332337
   7       19.799356     19.781460
   8       21.224451     21.221496
   9       22.923960     22.906155
 
  0.4166667E+00  0.2500000E+00  0.8333333E-01  0.5555556E-01
   1        1.771558      1.763487
   2        4.082031      4.070392
   3        5.607986      5.601054
   4        8.316033      8.308435
   5        9.736433      9.727052
   6       12.040094     12.032374
   7       19.203425     19.197343
   8       19.820707     19.801785
   9       22.417519     22.400788
 
 -0.4166667E+00  0.2500000E+00  0.8333333E-01  0.5555556E-01
   1        2.752348      2.741545
   2        4.245184      4.240490
   3        5.723852      5.709839
   4        7.688894      7.682612
   5       11.496915     11.488504
   6       13.953805     13.943013
   7       15.245891     15.239720
   8       19.806630     19.788266
   9       21.233258     21.225250
 
 -0.2500000E+00  0.2500000E+00  0.8333333E-01  0.5555556E-01
   1        2.496881      2.486588
   2        4.629258      4.618925
   3        5.033976      5.026403
   4        7.831550      7.825745
   5        9.738718      9.729432
   6       13.191990     13.184085
   7       17.864370     17.856764
   8       19.810648     19.792094
   9       21.842502     21.845800
 
 -0.8333333E-01  0.2500000E+00  0.8333333E-01  0.5555556E-01
   1        0.509292      0.500882
   2        4.746310      4.734772
   3        6.393179      6.386795
   4        7.549149      7.541113
   5        8.619887      8.612332
   6       10.880065     10.873181
   7       19.724068     19.716640
   8       19.862711     19.849429
   9       23.081205     23.064214
 
  0.4166667E+00  0.4166667E+00  0.8333333E-01  0.2777778E-01
   1        1.768802      1.765233
   2        3.066202      3.054700
   3        6.872671      6.858773
   4       10.139916     10.131607
   5       11.240577     11.229441
   6       11.890781     11.884088
   7       18.663435     18.652748
   8       19.805519     19.787327
   9       20.045111     20.031832
 
 -0.4166667E+00  0.4166667E+00  0.8333333E-01  0.5555556E-01
   1        2.230374      2.227859
   2        3.229827      3.217867
   3        6.890535      6.874173
   4        9.931780      9.926014
   5       12.218153     12.208328
   6       14.458869     14.445503
   7       15.511163     15.503016
   8       18.533767     18.520884
   9       19.805456     19.787346
 
 -0.2500000E+00  0.4166667E+00  0.8333333E-01  0.5555556E-01
   1        3.335071      3.327900
   2        3.884531      3.876019
   3        5.463216      5.448605
   4        8.375868      8.370463
   5       11.140063     11.130543
   6       13.573138     13.565583
   7       16.920437     16.909198
   8       19.732743     19.719996
   9       19.860935     19.843240
 
 -0.8333333E-01  0.4166667E+00  0.8333333E-01  0.5555556E-01
   1        1.920315      1.909931
   2        5.088441      5.082226
   3        5.884406      5.872113
   4        6.961977      6.955599
   5       11.040453     11.032111
   6       12.745925     12.737771
   7       16.568858     16.562819
   8       19.805665     19.787421
   9       20.113707     20.103692
 
 -0.4166667E+00 -0.4166667E+00  0.8333333E-01  0.2777778E-01
   1        1.657204      1.655286
   2        2.716469      2.704869
   3        8.199417      8.180166
   4       11.253785     11.248040
   5       12.420371     12.411323
   6       12.966604     12.954841
   7       16.484568     16.474089
   8       18.146526     18.132460
   9       19.548568     19.542829
 
 -0.2500000E+00 -0.4166667E+00  0.8333333E-01  0.5555556E-01
   1        2.340456      2.335837
   2        3.523707      3.512080
   3        5.844530      5.832477
   4        9.328639      9.321361
   5       11.222062     11.212190
   6       13.114429     13.104887
   7       17.171256     17.162395
   8       19.805569     19.787330
   9       20.239937     20.225766
 
 -0.2500000E+00 -0.2500000E+00  0.8333333E-01  0.2777778E-01
   1        1.287229      1.280337
   2        3.734984      3.723684
   3        6.218273      6.210553
   4        8.806214      8.796977
   5        9.503435      9.493097
   6       11.132074     11.126360
   7       19.796994     19.779348
   8       21.071530     21.063870
   9       22.598291     22.586690
 
  0.2500000E+00  0.2500000E+00  0.2500000E+00  0.9259259E-02
   1       -0.134310     -0.142383
   2        5.264096      5.252630
   3        6.846994      6.839028
   4        6.846994      6.839028
   5        9.556126      9.549901
   6        9.556126      9.549901
   7       18.563867     18.560558
   8       19.803033     19.784868
   9       22.390723     22.374087
 
  0.4166667E+00  0.2500000E+00  0.2500000E+00  0.2777778E-01
   1        1.419716      1.410259
   2        4.809249      4.796946
   3        5.853072      5.847028
   4        7.429908      7.424182
   5        8.816281      8.807932
   6       12.119338     12.111476
   7       18.983200     18.979453
   8       19.813386     19.794795
   9       22.039288     22.025875
 
 -0.4166667E+00  0.2500000E+00  0.2500000E+00  0.2777778E-01
   1        3.081923      3.070315
   2        4.340287      4.336275
   3        5.276509      5.262323
   4        7.848569      7.843415
   5       10.229237     10.219990
   6       13.339414     13.331951
   7       17.477466     17.469164
   8       19.808447     19.790001
   9       20.660945     20.646404
 
 -0.2500000E+00  0.2500000E+00  0.2500000E+00  0.2777778E-01
   1        2.510005      2.502520
   2        3.923368      3.914582
   3        5.738632      5.725907
   4        8.291483      8.284825
   5       12.133539     12.125748
   6       13.101800     13.089545
   7       15.722025     15.715206
   8       19.806211     19.787886
   9       21.572470     21.564939
 
  0.4166667E+00  0.4166667E+00  0.2500000E+00  0.2777778E-01
   1        1.794247      1.784998
   2        4.574662      4.564716
   3        5.703341      5.695067
   4        7.430678      7.423543
   5       11.075127     11.065319
   6       11.830457     11.823297
   7       17.683152     17.677189
   8       19.808298     19.789929
   9       21.054615     21.044239
 
 -0.4166667E+00  0.4166667E+00  0.2500000E+00  0.5555556E-01
   1        3.259786      3.252781
   2        4.087570      4.078183
   3        4.871996      4.859616
   4        8.493756      8.487499
   5       11.005233     10.995440
   6       13.893654     13.884913
   7       16.784191     16.774840
   8       19.801204     19.783318
   9       20.030087     20.015027
 
 -0.2500000E+00  0.4166667E+00  0.2500000E+00  0.5555556E-01
   1        3.077513      3.074528
   2        4.100868      4.087922
   3        5.384488      5.370120
   4        8.441100      8.435891
   5       12.120436     12.110462
   6       15.175801     15.168668
   7       15.890677     15.876205
   8       18.338992     18.325991
   9       19.811165     19.792529
 
 -0.4166667E+00 -0.4166667E+00  0.2500000E+00  0.2777778E-01
   1        2.605838      2.601476
   2        3.616383      3.605616
   3        6.337213      6.321428
   4        9.246874      9.241261
   5       11.688924     11.679654
   6       13.663374     13.654885
   7       15.904362     15.891692
   8       19.782418     19.766312
   9       20.111628     20.100856
 
  0.4166667E+00  0.4166667E+00  0.4166667E+00  0.9259259E-02
   1        1.195095      1.185287
   2        6.216870      6.203695
   3        6.305352      6.299036
   4        6.305352      6.299036
   5       11.487307     11.479829
   6       11.487307     11.479829
   7       16.642935     16.638213
   8       18.944514     18.932931
   9       19.812612     19.793926
 
 -0.4166667E+00  0.4166667E+00  0.4166667E+00  0.2777778E-01
   1        2.231245      2.220284
   2        4.848643      4.844064
   3        6.114984      6.100700
   4        7.033555      7.027541
   5       11.319918     11.311825
   6       13.255227     13.246701
   7       15.825793     15.818831
   8       19.808101     19.789687
   9       20.311348     20.302400
