       N       E                     dE             d eps       ncg     rms          rms(c)
DAV:   1     0.247576376402E+01    0.24758E+01   -0.13712E+03  1198   0.214E+02
DAV:   2    -0.176445095898E+01   -0.42402E+01   -0.37288E+01  1235   0.325E+01
DAV:   3    -0.180086458871E+01   -0.36414E-01   -0.35554E-01  1280   0.248E+00
DAV:   4    -0.180090402490E+01   -0.39436E-04   -0.39435E-04  1277   0.759E-02
DAV:   5    -0.180090406588E+01   -0.40981E-07   -0.41310E-07  1234   0.184E-03    0.727E+00
DAV:   6    -0.112813224534E+02   -0.94804E+01   -0.27606E+00  1107   0.460E+00    0.419E+00
DAV:   7    -0.113275674557E+02   -0.46245E-01   -0.40177E-02  1284   0.813E-01    0.400E+00
DAV:   8    -0.358388584583E+02   -0.24511E+02   -0.92088E+01  1112   0.103E+01    0.211E+01
DAV:   9    -0.109332264896E+02    0.24906E+02   -0.15314E+02  1172   0.183E+01    0.469E+00
DAV:  10    -0.115330626573E+02   -0.59984E+00   -0.33974E-01  1244   0.312E+00    0.167E+00
DAV:  11    -0.116142612610E+02   -0.81199E-01   -0.61961E-03  1312   0.454E-01    0.968E-01
DAV:  12    -0.116234167832E+02   -0.91555E-02   -0.25676E-03  1124   0.248E-01    0.634E-01
DAV:  13    -0.116307004137E+02   -0.72836E-02   -0.10707E-02  1081   0.504E-01    0.248E-01
DAV:  14    -0.116288404958E+02    0.18599E-02   -0.13923E-03  1078   0.182E-01    0.168E-01
DAV:  15    -0.116286918899E+02    0.14861E-03   -0.18669E-04   835   0.697E-02    0.147E-01
DAV:  16    -0.116286107867E+02    0.81103E-04   -0.16790E-05   532   0.212E-02
   1 F= -.11628611E+02 E0= -.11628315E+02  d E =-.885973E-03  mag=    -0.0622
