PROCAR lm decomposed
# of k-points:   28         # of bands:   9         # of ions:   1

 k-point    1 :    0.08333333 0.08333333 0.08333333     weight = 0.00925926

band   1 # energy   -1.96183705 # occ.  1.00000000
 
ion      s     py     pz     px    dxy    dyz    dz2    dxz    dx2    tot
  1  0.827  0.007  0.007  0.007  0.000  0.000  0.000  0.000  0.000  0.849
 
band   2 # energy    6.19102802 # occ.  0.00000000
 
ion      s     py     pz     px    dxy    dyz    dz2    dxz    dx2    tot
  1  0.000  0.004  0.004  0.004  0.328  0.328  0.000  0.328  0.000  0.996
 
band   3 # energy    6.58351863 # occ.  0.00000000
 
ion      s     py     pz     px    dxy    dyz    dz2    dxz    dx2    tot
  1  0.000  0.000  0.001  0.001  0.541  0.413  0.003  0.035  0.001  0.995
 
band   4 # energy    6.58351863 # occ.  0.00000000
 
ion      s     py     pz     px    dxy    dyz    dz2    dxz    dx2    tot
  1  0.000  0.002  0.000  0.001  0.118  0.246  0.001  0.625  0.003  0.995
 
band   5 # energy    9.38705505 # occ.  0.00000000
 
ion      s     py     pz     px    dxy    dyz    dz2    dxz    dx2    tot
  1  0.000  0.000  0.000  0.000  0.002  0.001  0.843  0.000  0.126  0.973
 
band   6 # energy    9.38705505 # occ.  0.00000000
 
ion      s     py     pz     px    dxy    dyz    dz2    dxz    dx2    tot
  1  0.000  0.000  0.000  0.000  0.000  0.001  0.126  0.002  0.843  0.973
 
band   7 # energy   19.08267853 # occ.  0.00000000
 
ion      s     py     pz     px    dxy    dyz    dz2    dxz    dx2    tot
  1  0.000  0.000  0.000  0.000  0.009  0.009  0.000  0.009  0.000  0.026
 
band   8 # energy   19.79934784 # occ.  0.00000000
 
ion      s     py     pz     px    dxy    dyz    dz2    dxz    dx2    tot
  1 43.824  0.000  0.000  0.000  0.000  0.000  0.000  0.000  0.000 43.824
 
band   9 # energy   22.17711352 # occ.  0.00000000
 
ion      s     py     pz     px    dxy    dyz    dz2    dxz    dx2    tot
  1  0.069  0.032  0.032  0.032  0.005  0.005  0.000  0.005  0.000  0.180
 

 k-point    2 :    0.25000000 0.08333333 0.08333333     weight = 0.02777778

band   1 # energy   -0.62405892 # occ.  1.00000000
 
ion      s     py     pz     px    dxy    dyz    dz2    dxz    dx2    tot
  1  0.735  0.053  0.053  0.005  0.004  0.020  0.001  0.004  0.002  0.876
 
band   2 # energy    5.32210174 # occ.  1.00000000
 
ion      s     py     pz     px    dxy    dyz    dz2    dxz    dx2    tot
  1  0.001  0.007  0.007  0.046  0.438  0.035  0.000  0.438  0.000  0.974
 
band   3 # energy    6.83715813 # occ.  0.00000000
 
ion      s     py     pz     px    dxy    dyz    dz2    dxz    dx2    tot
  1  0.000  0.016  0.016  0.001  0.020  0.705  0.050  0.020  0.150  0.977
 
band   4 # energy    7.10592231 # occ.  0.00000000
 
ion      s     py     pz     px    dxy    dyz    dz2    dxz    dx2    tot
  1  0.000  0.000  0.000  0.000  0.443  0.000  0.068  0.443  0.023  0.977
 
band   5 # energy    8.58160564 # occ.  0.00000000
 
ion      s     py     pz     px    dxy    dyz    dz2    dxz    dx2    tot
  1  0.000  0.002  0.002  0.000  0.045  0.000  0.639  0.045  0.213  0.945
 
band   6 # energy    9.88609742 # occ.  0.00000000
 
ion      s     py     pz     px    dxy    dyz    dz2    dxz    dx2    tot
  1  0.004  0.006  0.006  0.000  0.004  0.185  0.187  0.004  0.561  0.955
 
band   7 # energy   19.78359709 # occ.  0.00000000
 
ion      s     py     pz     px    dxy    dyz    dz2    dxz    dx2    tot
  1 38.688  0.003  0.003  0.001  0.000  0.003  0.001  0.000  0.002 38.702
 
band   8 # energy   19.95514599 # occ.  0.00000000
 
ion      s     py     pz     px    dxy    dyz    dz2    dxz    dx2    tot
  1  5.190  0.022  0.022  0.011  0.000  0.024  0.006  0.000  0.018  5.294
 
band   9 # energy   21.75218788 # occ.  0.00000000
 
ion      s     py     pz     px    dxy    dyz    dz2    dxz    dx2    tot
  1  0.046  0.010  0.010  0.002  0.072  0.031  0.001  0.072  0.004  0.249
 

 k-point    3 :    0.41666667 0.08333333 0.08333333     weight = 0.02777778

band   1 # energy    1.22591823 # occ.  1.00000000
 
ion      s     py     pz     px    dxy    dyz    dz2    dxz    dx2    tot
  1  0.471  0.047  0.047  0.002  0.119  0.149  0.001  0.119  0.002  0.954
 
band   2 # energy    5.43447827 # occ.  1.00000000
 
ion      s     py     pz     px    dxy    dyz    dz2    dxz    dx2    tot
  1  0.037  0.134  0.134  0.159  0.169  0.045  0.013  0.169  0.038  0.899
 
band   3 # energy    6.20813583 # occ.  0.00000000
 
ion      s     py     pz     px    dxy    dyz    dz2    dxz    dx2    tot
  1  0.004  0.001  0.001  0.014  0.093  0.293  0.118  0.093  0.354  0.970
 
band   4 # energy    6.64129784 # occ.  0.00000000
 
ion      s     py     pz     px    dxy    dyz    dz2    dxz    dx2    tot
  1  0.000  0.000  0.000  0.000  0.196  0.000  0.436  0.196  0.145  0.974
 
band   5 # energy   10.20428912 # occ.  0.00000000
 
ion      s     py     pz     px    dxy    dyz    dz2    dxz    dx2    tot
  1  0.000  0.006  0.006  0.000  0.282  0.000  0.267  0.282  0.089  0.933
 
band   6 # energy   11.73176859 # occ.  0.00000000
 
ion      s     py     pz     px    dxy    dyz    dz2    dxz    dx2    tot
  1  0.011  0.022  0.022  0.001  0.031  0.414  0.106  0.031  0.319  0.958
 
band   7 # energy   17.45849004 # occ.  0.00000000
 
ion      s     py     pz     px    dxy    dyz    dz2    dxz    dx2    tot
  1  0.171  0.030  0.030  0.025  0.045  0.105  0.005  0.045  0.015  0.470
 
band   8 # energy   19.79891393 # occ.  0.00000000
 
ion      s     py     pz     px    dxy    dyz    dz2    dxz    dx2    tot
  1 42.985  0.001  0.001  0.000  0.000  0.000  0.000  0.000  0.000 42.988
 
band   9 # energy   20.41886549 # occ.  0.00000000
 
ion      s     py     pz     px    dxy    dyz    dz2    dxz    dx2    tot
  1  1.142  0.075  0.075  0.037  0.082  0.039  0.001  0.082  0.003  1.536
 

 k-point    4 :   -0.41666667 0.08333333 0.08333333     weight = 0.02777778

band   1 # energy    1.52666428 # occ.  1.00000000
 
ion      s     py     pz     px    dxy    dyz    dz2    dxz    dx2    tot
  1  0.344  0.001  0.001  0.020  0.197  0.231  0.000  0.197  0.001  0.992
 
band   2 # energy    5.67544251 # occ.  1.00000013
 
ion      s     py     pz     px    dxy    dyz    dz2    dxz    dx2    tot
  1  0.000  0.071  0.071  0.035  0.046  0.074  0.142  0.046  0.425  0.910
 
band   3 # energy    6.44225482 # occ.  0.00000000
 
ion      s     py     pz     px    dxy    dyz    dz2    dxz    dx2    tot
  1  0.000  0.004  0.004  0.000  0.188  0.000  0.444  0.188  0.148  0.975
 
band   4 # energy    6.57355007 # occ.  0.00000000
 
ion      s     py     pz     px    dxy    dyz    dz2    dxz    dx2    tot
  1  0.006  0.172  0.172  0.205  0.029  0.259  0.011  0.029  0.034  0.918
 
band   5 # energy   11.94988601 # occ.  0.00000000
 
ion      s     py     pz     px    dxy    dyz    dz2    dxz    dx2    tot
  1  0.000  0.000  0.000  0.000  0.302  0.000  0.272  0.302  0.091  0.966
 
band   6 # energy   12.13791322 # occ.  0.00000000
 
ion      s     py     pz     px    dxy    dyz    dz2    dxz    dx2    tot
  1  0.000  0.023  0.023  0.054  0.097  0.311  0.084  0.097  0.252  0.940
 
band   7 # energy   16.11467761 # occ.  0.00000000
 
ion      s     py     pz     px    dxy    dyz    dz2    dxz    dx2    tot
  1  0.444  0.002  0.002  0.004  0.166  0.121  0.000  0.166  0.000  0.907
 
band   8 # energy   18.74231847 # occ.  0.00000000
 
ion      s     py     pz     px    dxy    dyz    dz2    dxz    dx2    tot
  1  0.006  0.015  0.015  0.025  0.000  0.029  0.004  0.000  0.011  0.104
 
band   9 # energy   19.80850875 # occ.  0.00000000
 
ion      s     py     pz     px    dxy    dyz    dz2    dxz    dx2    tot
  1 44.040  0.000  0.000  0.000  0.000  0.000  0.000  0.000  0.000 44.040
 

 k-point    5 :   -0.25000000 0.08333333 0.08333333     weight = 0.02777778

band   1 # energy    0.75024619 # occ.  1.00000000
 
ion      s     py     pz     px    dxy    dyz    dz2    dxz    dx2    tot
  1  0.574  0.020  0.020  0.095  0.069  0.065  0.002  0.069  0.007  0.923
 
band   2 # energy    5.04961190 # occ.  1.00000000
 
ion      s     py     pz     px    dxy    dyz    dz2    dxz    dx2    tot
  1  0.023  0.090  0.090  0.060  0.099  0.459  0.005  0.099  0.014  0.938
 
band   3 # energy    6.40022991 # occ.  0.00000000
 
ion      s     py     pz     px    dxy    dyz    dz2    dxz    dx2    tot
  1  0.004  0.001  0.001  0.000  0.101  0.232  0.131  0.101  0.393  0.964
 
band   4 # energy    6.92985260 # occ.  0.00000000
 
ion      s     py     pz     px    dxy    dyz    dz2    dxz    dx2    tot
  1  0.000  0.009  0.009  0.000  0.277  0.000  0.301  0.277  0.100  0.974
 
band   5 # energy    9.75253514 # occ.  0.00000000
 
ion      s     py     pz     px    dxy    dyz    dz2    dxz    dx2    tot
  1  0.008  0.005  0.005  0.042  0.161  0.175  0.095  0.161  0.284  0.937
 
band   6 # energy   10.80118132 # occ.  0.00000000
 
ion      s     py     pz     px    dxy    dyz    dz2    dxz    dx2    tot
  1  0.000  0.006  0.006  0.000  0.194  0.000  0.409  0.194  0.136  0.946
 
band   7 # energy   18.21580911 # occ.  0.00000000
 
ion      s     py     pz     px    dxy    dyz    dz2    dxz    dx2    tot
  1  0.091  0.029  0.029  0.022  0.048  0.009  0.004  0.048  0.013  0.293
 
band   8 # energy   19.80391708 # occ.  0.00000000
 
ion      s     py     pz     px    dxy    dyz    dz2    dxz    dx2    tot
  1 43.738  0.000  0.000  0.000  0.000  0.000  0.000  0.000  0.000 43.739
 
band   9 # energy   21.89905898 # occ.  0.00000000
 
ion      s     py     pz     px    dxy    dyz    dz2    dxz    dx2    tot
  1  0.335  0.071  0.071  0.087  0.098  0.133  0.002  0.098  0.006  0.900
 

 k-point    6 :   -0.08333333 0.08333333 0.08333333     weight = 0.02777778

band   1 # energy   -1.25608474 # occ.  1.00000000
 
ion      s     py     pz     px    dxy    dyz    dz2    dxz    dx2    tot
  1  0.781  0.006  0.006  0.060  0.002  0.000  0.001  0.002  0.002  0.862
 
band   2 # energy    5.57096394 # occ.  1.00000000
 
ion      s     py     pz     px    dxy    dyz    dz2    dxz    dx2    tot
  1  0.000  0.008  0.008  0.001  0.061  0.843  0.000  0.061  0.000  0.982
 
band   3 # energy    6.91517779 # occ.  0.00000000
 
ion      s     py     pz     px    dxy    dyz    dz2    dxz    dx2    tot
  1  0.000  0.007  0.007  0.004  0.398  0.130  0.011  0.398  0.033  0.988
 
band   4 # energy    6.94848694 # occ.  0.00000000
 
ion      s     py     pz     px    dxy    dyz    dz2    dxz    dx2    tot
  1  0.000  0.010  0.010  0.000  0.471  0.000  0.022  0.471  0.007  0.991
 
band   5 # energy    8.57527325 # occ.  0.00000000
 
ion      s     py     pz     px    dxy    dyz    dz2    dxz    dx2    tot
  1  0.003  0.000  0.000  0.003  0.019  0.005  0.224  0.019  0.672  0.946
 
band   6 # energy    9.72087453 # occ.  0.00000000
 
ion      s     py     pz     px    dxy    dyz    dz2    dxz    dx2    tot
  1  0.000  0.000  0.000  0.000  0.015  0.000  0.706  0.015  0.235  0.971
 
band   7 # energy   19.79829394 # occ.  0.00000000
 
ion      s     py     pz     px    dxy    dyz    dz2    dxz    dx2    tot
  1 43.701  0.000  0.000  0.000  0.000  0.000  0.000  0.000  0.000 43.701
 
band   8 # energy   20.40311045 # occ.  0.00000000
 
ion      s     py     pz     px    dxy    dyz    dz2    dxz    dx2    tot
  1  0.040  0.002  0.002  0.002  0.002  0.056  0.001  0.002  0.002  0.110
 
band   9 # energy   21.37684567 # occ.  0.00000000
 
ion      s     py     pz     px    dxy    dyz    dz2    dxz    dx2    tot
  1  0.156  0.020  0.020  0.030  0.019  0.018  0.009  0.019  0.026  0.316
 

 k-point    7 :    0.25000000 0.25000000 0.08333333     weight = 0.02777778

band   1 # energy   -0.00836576 # occ.  1.00000000
 
ion      s     py     pz     px    dxy    dyz    dz2    dxz    dx2    tot
  1  0.676  0.005  0.147  0.005  0.001  0.005  0.038  0.005  0.000  0.882
 
band   2 # energy    4.63238656 # occ.  1.00000000
 
ion      s     py     pz     px    dxy    dyz    dz2    dxz    dx2    tot
  1  0.000  0.008  0.001  0.008  0.931  0.017  0.000  0.017  0.000  0.983
 
band   3 # energy    6.86502219 # occ.  0.00000000
 
ion      s     py     pz     px    dxy    dyz    dz2    dxz    dx2    tot
  1  0.015  0.007  0.008  0.007  0.016  0.125  0.635  0.125  0.000  0.938
 
band   4 # energy    7.70016390 # occ.  0.00000000
 
ion      s     py     pz     px    dxy    dyz    dz2    dxz    dx2    tot
  1  0.000  0.024  0.000  0.024  0.000  0.421  0.000  0.421  0.082  0.973
 
band   5 # energy    8.27142327 # occ.  0.00000000
 
ion      s     py     pz     px    dxy    dyz    dz2    dxz    dx2    tot
  1  0.010  0.018  0.023  0.018  0.029  0.306  0.240  0.306  0.000  0.951
 
band   6 # energy   10.33759767 # occ.  0.00000000
 
ion      s     py     pz     px    dxy    dyz    dz2    dxz    dx2    tot
  1  0.000  0.002  0.000  0.002  0.000  0.040  0.000  0.040  0.886  0.968
 
band   7 # energy   19.79935646 # occ.  0.00000000
 
ion      s     py     pz     px    dxy    dyz    dz2    dxz    dx2    tot
  1 43.634  0.000  0.000  0.000  0.000  0.000  0.000  0.000  0.000 43.635
 
band   8 # energy   21.22445082 # occ.  0.00000000
 
ion      s     py     pz     px    dxy    dyz    dz2    dxz    dx2    tot
  1  0.230  0.033  0.019  0.033  0.001  0.026  0.096  0.026  0.000  0.463
 
band   9 # energy   22.92396018 # occ.  0.00000000
 
ion      s     py     pz     px    dxy    dyz    dz2    dxz    dx2    tot
  1  0.012  0.006  0.003  0.006  0.179  0.018  0.003  0.018  0.000  0.244
 

 k-point    8 :    0.41666667 0.25000000 0.08333333     weight = 0.05555556

band   1 # energy    1.77155850 # occ.  1.00000000
 
ion      s     py     pz     px    dxy    dyz    dz2    dxz    dx2    tot
  1  0.448  0.033  0.180  0.001  0.029  0.053  0.154  0.011  0.000  0.909
 
band   2 # energy    4.08203104 # occ.  1.00000000
 
ion      s     py     pz     px    dxy    dyz    dz2    dxz    dx2    tot
  1  0.003  0.017  0.007  0.067  0.804  0.005  0.026  0.052  0.000  0.981
 
band   3 # energy    5.60798631 # occ.  1.00000000
 
ion      s     py     pz     px    dxy    dyz    dz2    dxz    dx2    tot
  1  0.051  0.016  0.044  0.000  0.038  0.243  0.501  0.008  0.035  0.935
 
band   4 # energy    8.31603267 # occ.  0.00000000
 
ion      s     py     pz     px    dxy    dyz    dz2    dxz    dx2    tot
  1  0.004  0.023  0.030  0.018  0.016  0.136  0.076  0.262  0.378  0.943
 
band   5 # energy    9.73643321 # occ.  0.00000000
 
ion      s     py     pz     px    dxy    dyz    dz2    dxz    dx2    tot
  1  0.008  0.013  0.051  0.042  0.065  0.039  0.097  0.510  0.105  0.930
 
band   6 # energy   12.04009414 # occ.  0.00000000
 
ion      s     py     pz     px    dxy    dyz    dz2    dxz    dx2    tot
  1  0.022  0.024  0.031  0.000  0.001  0.418  0.040  0.009  0.422  0.969
 
band   7 # energy   19.20342512 # occ.  0.00000000
 
ion      s     py     pz     px    dxy    dyz    dz2    dxz    dx2    tot
  1  0.717  0.163  0.080  0.041  0.011  0.129  0.013  0.042  0.027  1.223
 
band   8 # energy   19.82070689 # occ.  0.00000000
 
ion      s     py     pz     px    dxy    dyz    dz2    dxz    dx2    tot
  1 43.361  0.005  0.001  0.001  0.000  0.004  0.001  0.001  0.001 43.376
 
band   9 # energy   22.41751855 # occ.  0.00000000
 
ion      s     py     pz     px    dxy    dyz    dz2    dxz    dx2    tot
  1  0.076  0.011  0.082  0.044  0.035  0.001  0.200  0.026  0.004  0.479
 

 k-point    9 :   -0.41666667 0.25000000 0.08333333     weight = 0.05555556

band   1 # energy    2.75234814 # occ.  1.00000000
 
ion      s     py     pz     px    dxy    dyz    dz2    dxz    dx2    tot
  1  0.232  0.000  0.070  0.025  0.352  0.158  0.056  0.088  0.000  0.980
 
band   2 # energy    4.24518440 # occ.  1.00000000
 
ion      s     py     pz     px    dxy    dyz    dz2    dxz    dx2    tot
  1  0.001  0.119  0.006  0.063  0.005  0.054  0.558  0.014  0.062  0.882
 
band   3 # energy    5.72385209 # occ.  1.00008543
 
ion      s     py     pz     px    dxy    dyz    dz2    dxz    dx2    tot
  1  0.015  0.042  0.175  0.096  0.340  0.261  0.013  0.011  0.009  0.962
 
band   4 # energy    7.68889385 # occ.  0.00000000
 
ion      s     py     pz     px    dxy    dyz    dz2    dxz    dx2    tot
  1  0.001  0.008  0.025  0.020  0.006  0.029  0.068  0.206  0.577  0.942
 
band   5 # energy   11.49691540 # occ.  0.00000000
 
ion      s     py     pz     px    dxy    dyz    dz2    dxz    dx2    tot
  1  0.034  0.004  0.006  0.003  0.074  0.171  0.029  0.437  0.178  0.935
 
band   6 # energy   13.95380536 # occ.  0.00000000
 
ion      s     py     pz     px    dxy    dyz    dz2    dxz    dx2    tot
  1  0.003  0.059  0.187  0.124  0.134  0.185  0.164  0.001  0.063  0.921
 
band   7 # energy   15.24589102 # occ.  0.00000000
 
ion      s     py     pz     px    dxy    dyz    dz2    dxz    dx2    tot
  1  0.475  0.002  0.001  0.004  0.050  0.117  0.022  0.204  0.024  0.900
 
band   8 # energy   19.80663018 # occ.  0.00000000
 
ion      s     py     pz     px    dxy    dyz    dz2    dxz    dx2    tot
  1 43.932  0.000  0.000  0.000  0.000  0.000  0.000  0.000  0.000 43.933
 
band   9 # energy   21.23325770 # occ.  0.00000000
 
ion      s     py     pz     px    dxy    dyz    dz2    dxz    dx2    tot
  1  0.027  0.010  0.105  0.001  0.016  0.061  0.188  0.010  0.008  0.425
 

 k-point   10 :   -0.25000000 0.25000000 0.08333333     weight = 0.05555556

band   1 # energy    2.49688080 # occ.  1.00000000
 
ion      s     py     pz     px    dxy    dyz    dz2    dxz    dx2    tot
  1  0.386  0.068  0.003  0.153  0.196  0.060  0.016  0.029  0.027  0.939
 
band   2 # energy    4.62925821 # occ.  1.00000000
 
ion      s     py     pz     px    dxy    dyz    dz2    dxz    dx2    tot
  1  0.004  0.062  0.125  0.029  0.025  0.384  0.146  0.111  0.045  0.930
 
band   3 # energy    5.03397586 # occ.  1.00000000
 
ion      s     py     pz     px    dxy    dyz    dz2    dxz    dx2    tot
  1  0.019  0.013  0.035  0.002  0.238  0.201  0.344  0.030  0.064  0.945
 
band   4 # energy    7.83154970 # occ.  0.00000000
 
ion      s     py     pz     px    dxy    dyz    dz2    dxz    dx2    tot
  1  0.001  0.002  0.003  0.052  0.012  0.032  0.079  0.109  0.645  0.936
 
band   5 # energy    9.73871801 # occ.  0.00000000
 
ion      s     py     pz     px    dxy    dyz    dz2    dxz    dx2    tot
  1  0.000  0.000  0.019  0.017  0.000  0.210  0.005  0.559  0.120  0.931
 
band   6 # energy   13.19198957 # occ.  0.00000000
 
ion      s     py     pz     px    dxy    dyz    dz2    dxz    dx2    tot
  1  0.105  0.022  0.003  0.045  0.507  0.002  0.296  0.001  0.000  0.982
 
band   7 # energy   17.86436975 # occ.  0.00000000
 
ion      s     py     pz     px    dxy    dyz    dz2    dxz    dx2    tot
  1  0.212  0.137  0.027  0.117  0.045  0.022  0.124  0.037  0.002  0.725
 
band   8 # energy   19.81064807 # occ.  0.00000000
 
ion      s     py     pz     px    dxy    dyz    dz2    dxz    dx2    tot
  1 44.018  0.000  0.000  0.000  0.000  0.000  0.000  0.000  0.000 44.020
 
band   9 # energy   21.84250210 # occ.  0.00000000
 
ion      s     py     pz     px    dxy    dyz    dz2    dxz    dx2    tot
  1  0.002  0.000  0.240  0.016  0.019  0.125  0.074  0.131  0.017  0.625
 

 k-point   11 :   -0.08333333 0.25000000 0.08333333     weight = 0.05555556

band   1 # energy    0.50929154 # occ.  1.00000000
 
ion      s     py     pz     px    dxy    dyz    dz2    dxz    dx2    tot
  1  0.634  0.042  0.003  0.131  0.047  0.009  0.009  0.009  0.013  0.897
 
band   2 # energy    4.74631035 # occ.  1.00000000
 
ion      s     py     pz     px    dxy    dyz    dz2    dxz    dx2    tot
  1  0.003  0.012  0.064  0.008  0.013  0.716  0.002  0.156  0.002  0.975
 
band   3 # energy    6.39317902 # occ.  0.00000000
 
ion      s     py     pz     px    dxy    dyz    dz2    dxz    dx2    tot
  1  0.004  0.025  0.000  0.001  0.365  0.038  0.319  0.004  0.184  0.941
 
band   4 # energy    7.54914931 # occ.  0.00000000
 
ion      s     py     pz     px    dxy    dyz    dz2    dxz    dx2    tot
  1  0.001  0.006  0.012  0.006  0.101  0.085  0.047  0.435  0.270  0.963
 
band   5 # energy    8.61988744 # occ.  0.00000000
 
ion      s     py     pz     px    dxy    dyz    dz2    dxz    dx2    tot
  1  0.006  0.004  0.009  0.027  0.072  0.101  0.001  0.293  0.426  0.940
 
band   6 # energy   10.88006457 # occ.  0.00000000
 
ion      s     py     pz     px    dxy    dyz    dz2    dxz    dx2    tot
  1  0.010  0.017  0.000  0.013  0.311  0.001  0.562  0.010  0.032  0.956
 
band   7 # energy   19.72406793 # occ.  0.00000000
 
ion      s     py     pz     px    dxy    dyz    dz2    dxz    dx2    tot
  1 17.626  0.031  0.010  0.019  0.046  0.001  0.030  0.006  0.006 17.775
 
band   8 # energy   19.86271140 # occ.  0.00000000
 
ion      s     py     pz     px    dxy    dyz    dz2    dxz    dx2    tot
  1 26.284  0.022  0.007  0.011  0.035  0.000  0.024  0.005  0.005 26.393
 
band   9 # energy   23.08120547 # occ.  0.00000000
 
ion      s     py     pz     px    dxy    dyz    dz2    dxz    dx2    tot
  1  0.091  0.052  0.028  0.039  0.050  0.161  0.000  0.084  0.003  0.509
 

 k-point   12 :    0.41666667 0.41666667 0.08333333     weight = 0.02777778

band   1 # energy    1.76880240 # occ.  1.00000000
 
ion      s     py     pz     px    dxy    dyz    dz2    dxz    dx2    tot
  1  0.221  0.004  0.078  0.004  0.006  0.001  0.589  0.001  0.000  0.905
 
band   2 # energy    3.06620165 # occ.  1.00000000
 
ion      s     py     pz     px    dxy    dyz    dz2    dxz    dx2    tot
  1  0.000  0.008  0.000  0.008  0.995  0.002  0.004  0.002  0.000  1.019
 
band   3 # energy    6.87267056 # occ.  0.00000000
 
ion      s     py     pz     px    dxy    dyz    dz2    dxz    dx2    tot
  1  0.154  0.002  0.431  0.002  0.002  0.059  0.230  0.059  0.000  0.940
 
band   4 # energy   10.13991578 # occ.  0.00000000
 
ion      s     py     pz     px    dxy    dyz    dz2    dxz    dx2    tot
  1  0.000  0.039  0.000  0.039  0.000  0.250  0.000  0.250  0.356  0.932
 
band   5 # energy   11.24057695 # occ.  0.00000000
 
ion      s     py     pz     px    dxy    dyz    dz2    dxz    dx2    tot
  1  0.011  0.049  0.080  0.049  0.007  0.350  0.032  0.350  0.000  0.930
 
band   6 # energy   11.89078103 # occ.  0.00000000
 
ion      s     py     pz     px    dxy    dyz    dz2    dxz    dx2    tot
  1  0.000  0.006  0.000  0.006  0.000  0.178  0.000  0.178  0.600  0.968
 
band   7 # energy   18.66343483 # occ.  0.00000000
 
ion      s     py     pz     px    dxy    dyz    dz2    dxz    dx2    tot
  1  0.172  0.192  0.056  0.192  0.008  0.085  0.007  0.085  0.000  0.796
 
band   8 # energy   19.80551865 # occ.  0.00000000
 
ion      s     py     pz     px    dxy    dyz    dz2    dxz    dx2    tot
  1 43.461  0.003  0.000  0.003  0.000  0.001  0.000  0.001  0.000 43.468
 
band   9 # energy   20.04511093 # occ.  0.00000000
 
ion      s     py     pz     px    dxy    dyz    dz2    dxz    dx2    tot
  1  0.000  0.295  0.000  0.295  0.000  0.089  0.000  0.089  0.023  0.791
 

 k-point   13 :   -0.41666667 0.41666667 0.08333333     weight = 0.05555556

band   1 # energy    2.23037394 # occ.  1.00000000
 
ion      s     py     pz     px    dxy    dyz    dz2    dxz    dx2    tot
  1  0.093  0.037  0.008  0.001  0.035  0.001  0.724  0.000  0.004  0.902
 
band   2 # energy    3.22982676 # occ.  1.00000000
 
ion      s     py     pz     px    dxy    dyz    dz2    dxz    dx2    tot
  1  0.000  0.014  0.000  0.064  0.902  0.000  0.022  0.002  0.000  1.005
 
band   3 # energy    6.89053529 # occ.  0.00000000
 
ion      s     py     pz     px    dxy    dyz    dz2    dxz    dx2    tot
  1  0.034  0.002  0.478  0.000  0.003  0.374  0.016  0.029  0.009  0.944
 
band   4 # energy    9.93178046 # occ.  0.00000000
 
ion      s     py     pz     px    dxy    dyz    dz2    dxz    dx2    tot
  1  0.032  0.059  0.028  0.007  0.000  0.001  0.007  0.022  0.754  0.910
 
band   5 # energy   12.21815332 # occ.  0.00000000
 
ion      s     py     pz     px    dxy    dyz    dz2    dxz    dx2    tot
  1  0.010  0.002  0.001  0.018  0.006  0.122  0.000  0.773  0.021  0.952
 
band   6 # energy   14.45886935 # occ.  0.00000000
 
ion      s     py     pz     px    dxy    dyz    dz2    dxz    dx2    tot
  1  0.019  0.008  0.325  0.018  0.003  0.484  0.022  0.089  0.009  0.979
 
band   7 # energy   15.51116328 # occ.  0.00000000
 
ion      s     py     pz     px    dxy    dyz    dz2    dxz    dx2    tot
  1  0.383  0.092  0.012  0.146  0.032  0.004  0.015  0.035  0.088  0.808
 
band   8 # energy   18.53376691 # occ.  0.00000000
 
ion      s     py     pz     px    dxy    dyz    dz2    dxz    dx2    tot
  1  0.077  0.036  0.021  0.496  0.035  0.002  0.042  0.033  0.083  0.825
 
band   9 # energy   19.80545557 # occ.  0.00000000
 
ion      s     py     pz     px    dxy    dyz    dz2    dxz    dx2    tot
  1 43.412  0.005  0.000  0.001  0.000  0.000  0.001  0.000  0.002 43.421
 

 k-point   14 :   -0.25000000 0.41666667 0.08333333     weight = 0.05555556

band   1 # energy    3.33507144 # occ.  1.00000000
 
ion      s     py     pz     px    dxy    dyz    dz2    dxz    dx2    tot
  1  0.102  0.010  0.016  0.012  0.399  0.018  0.371  0.010  0.008  0.947
 
band   2 # energy    3.88453113 # occ.  1.00000000
 
ion      s     py     pz     px    dxy    dyz    dz2    dxz    dx2    tot
  1  0.044  0.133  0.003  0.136  0.210  0.033  0.297  0.013  0.042  0.911
 
band   3 # energy    5.46321588 # occ.  1.00000000
 
ion      s     py     pz     px    dxy    dyz    dz2    dxz    dx2    tot
  1  0.001  0.010  0.277  0.021  0.080  0.475  0.002  0.095  0.001  0.962
 
band   4 # energy    8.37586813 # occ.  0.00000000
 
ion      s     py     pz     px    dxy    dyz    dz2    dxz    dx2    tot
  1  0.025  0.008  0.008  0.043  0.007  0.005  0.044  0.049  0.731  0.920
 
band   5 # energy   11.14006344 # occ.  0.00000000
 
ion      s     py     pz     px    dxy    dyz    dz2    dxz    dx2    tot
  1  0.022  0.001  0.010  0.000  0.018  0.240  0.002  0.604  0.035  0.930
 
band   6 # energy   13.57313827 # occ.  0.00000000
 
ion      s     py     pz     px    dxy    dyz    dz2    dxz    dx2    tot
  1  0.411  0.018  0.019  0.088  0.233  0.002  0.015  0.022  0.049  0.858
 
band   7 # energy   16.92043691 # occ.  0.00000000
 
ion      s     py     pz     px    dxy    dyz    dz2    dxz    dx2    tot
  1  0.099  0.037  0.261  0.075  0.012  0.178  0.155  0.148  0.002  0.968
 
band   8 # energy   19.73274251 # occ.  0.00000000
 
ion      s     py     pz     px    dxy    dyz    dz2    dxz    dx2    tot
  1 16.858  0.030  0.153  0.081  0.016  0.060  0.136  0.053  0.005 17.392
 
band   9 # energy   19.86093534 # occ.  0.00000000
 
ion      s     py     pz     px    dxy    dyz    dz2    dxz    dx2    tot
  1 27.213  0.022  0.099  0.056  0.009  0.038  0.107  0.032  0.004 27.580
 

 k-point   15 :   -0.08333333 0.41666667 0.08333333     weight = 0.05555556

band   1 # energy    1.92031501 # occ.  1.00000000
 
ion      s     py     pz     px    dxy    dyz    dz2    dxz    dx2    tot
  1  0.351  0.012  0.004  0.069  0.195  0.205  0.003  0.129  0.009  0.976
 
band   2 # energy    5.08844097 # occ.  1.00000000
 
ion      s     py     pz     px    dxy    dyz    dz2    dxz    dx2    tot
  1  0.004  0.128  0.074  0.055  0.080  0.008  0.340  0.024  0.168  0.881
 
band   3 # energy    5.88440560 # occ.  0.33826290
 
ion      s     py     pz     px    dxy    dyz    dz2    dxz    dx2    tot
  1  0.029  0.040  0.117  0.088  0.154  0.408  0.095  0.019  0.019  0.970
 
band   4 # energy    6.96197697 # occ.  0.00000000
 
ion      s     py     pz     px    dxy    dyz    dz2    dxz    dx2    tot
  1  0.000  0.004  0.004  0.018  0.046  0.050  0.148  0.246  0.446  0.964
 
band   5 # energy   11.04045336 # occ.  0.00000000
 
ion      s     py     pz     px    dxy    dyz    dz2    dxz    dx2    tot
  1  0.000  0.003  0.014  0.037  0.005  0.176  0.011  0.408  0.279  0.934
 
band   6 # energy   12.74592532 # occ.  0.00000000
 
ion      s     py     pz     px    dxy    dyz    dz2    dxz    dx2    tot
  1  0.031  0.029  0.022  0.056  0.439  0.033  0.341  0.013  0.002  0.967
 
band   7 # energy   16.56885839 # occ.  0.00000000
 
ion      s     py     pz     px    dxy    dyz    dz2    dxz    dx2    tot
  1  0.345  0.043  0.030  0.040  0.109  0.078  0.027  0.135  0.001  0.807
 
band   8 # energy   19.80566466 # occ.  0.00000000
 
ion      s     py     pz     px    dxy    dyz    dz2    dxz    dx2    tot
  1 43.575  0.000  0.000  0.000  0.001  0.000  0.000  0.000  0.000 43.576
 
band   9 # energy   20.11370737 # occ.  0.00000000
 
ion      s     py     pz     px    dxy    dyz    dz2    dxz    dx2    tot
  1  0.460  0.016  0.013  0.046  0.006  0.045  0.024  0.010  0.022  0.642
 

 k-point   16 :   -0.41666667-0.41666667 0.08333333     weight = 0.02777778

band   1 # energy    1.65720441 # occ.  1.00000000
 
ion      s     py     pz     px    dxy    dyz    dz2    dxz    dx2    tot
  1  0.124  0.004  0.008  0.004  0.005  0.000  0.765  0.000  0.000  0.909
 
band   2 # energy    2.71646945 # occ.  1.00000000
 
ion      s     py     pz     px    dxy    dyz    dz2    dxz    dx2    tot
  1  0.000  0.008  0.000  0.008  1.011  0.000  0.003  0.000  0.000  1.030
 
band   3 # energy    8.19941729 # occ.  0.00000000
 
ion      s     py     pz     px    dxy    dyz    dz2    dxz    dx2    tot
  1  0.037  0.001  0.723  0.001  0.000  0.077  0.026  0.077  0.000  0.941
 
band   4 # energy   11.25378468 # occ.  0.00000000
 
ion      s     py     pz     px    dxy    dyz    dz2    dxz    dx2    tot
  1  0.000  0.023  0.000  0.023  0.000  0.059  0.000  0.059  0.780  0.944
 
band   5 # energy   12.42037137 # occ.  0.00000000
 
ion      s     py     pz     px    dxy    dyz    dz2    dxz    dx2    tot
  1  0.000  0.003  0.000  0.003  0.000  0.410  0.000  0.410  0.145  0.969
 
band   6 # energy   12.96660356 # occ.  0.00000000
 
ion      s     py     pz     px    dxy    dyz    dz2    dxz    dx2    tot
  1  0.002  0.019  0.143  0.019  0.001  0.385  0.006  0.385  0.000  0.961
 