<?xml version="1.0" encoding="ISO-8859-1"?>
<modeling>
 <generator>
  <i name="program" type="string">vasp </i>
  <i name="version" type="string">5.2.12  </i>
  <i name="subversion" type="string">11Nov11 complex                                                      parallel </i>
  <i name="platform" type="string">LinuxIFC </i>
  <i name="date" type="string">2012 10 17 </i>
  <i name="time" type="string">11:06:58 </i>
 </generator>
 <incar>
  <i type="int" name="ISTART">     0</i>
  <i type="string" name="PREC">accurate</i>
  <i type="int" name="ISPIN">     2</i>
  <i name="ENCUT">    200.00000000</i>
  <v name="MAGMOM">      6.00000000</v>
  <i type="logical" name="LREAL"> F  </i>
  <i type="int" name="ISMEAR">     1</i>
  <i name="SIGMA">      0.05000000</i>
  <i type="logical" name="LORBIT"> F  </i>
 </incar>
 <kpoints>
  <generation param="Monkhorst-Pack">
   <v type="int" name="divisions">       6        6        6 </v>
   <v name="usershift">      0.00000000       0.00000000       0.00000000 </v>
   <v name="genvec1">      0.16666667       0.00000000       0.00000000 </v>
   <v name="genvec2">      0.00000000       0.16666667       0.00000000 </v>
   <v name="genvec3">      0.00000000       0.00000000       0.16666667 </v>
   <v name="shift">      0.50000000       0.50000000       0.50000000 </v>
  </generation>
  <varray name="kpointlist" >
   <v>       0.08333333       0.08333333       0.08333333 </v>
   <v>       0.25000000       0.08333333       0.08333333 </v>
   <v>       0.41666667       0.08333333       0.08333333 </v>
   <v>      -0.41666667       0.08333333       0.08333333 </v>
   <v>      -0.25000000       0.08333333       0.08333333 </v>
   <v>      -0.08333333       0.08333333       0.08333333 </v>
   <v>       0.25000000       0.25000000       0.08333333 </v>
   <v>       0.41666667       0.25000000       0.08333333 </v>
   <v>      -0.41666667       0.25000000       0.08333333 </v>
   <v>      -0.25000000       0.25000000       0.08333333 </v>
   <v>      -0.08333333       0.25000000       0.08333333 </v>
   <v>       0.41666667       0.41666667       0.08333333 </v>
   <v>      -0.41666667       0.41666667       0.08333333 </v>
   <v>      -0.25000000       0.41666667       0.08333333 </v>
   <v>      -0.08333333       0.41666667       0.08333333 </v>
   <v>      -0.41666667      -0.41666667       0.08333333 </v>
   <v>      -0.25000000      -0.41666667       0.08333333 </v>
   <v>      -0.25000000      -0.25000000       0.08333333 </v>
   <v>       0.25000000       0.25000000       0.25000000 </v>
   <v>       0.41666667       0.25000000       0.25000000 </v>
   <v>      -0.41666667       0.25000000       0.25000000 </v>
   <v>      -0.25000000       0.25000000       0.25000000 </v>
   <v>       0.41666667       0.41666667       0.25000000 </v>
   <v>      -0.41666667       0.41666667       0.25000000 </v>
   <v>      -0.25000000       0.41666667       0.25000000 </v>
   <v>      -0.41666667      -0.41666667       0.25000000 </v>
   <v>       0.41666667       0.41666667       0.41666667 </v>
   <v>      -0.41666667       0.41666667       0.41666667 </v>
  </varray>
  <varray name="weights" >
   <v>       0.00925926 </v>
   <v>       0.02777778 </v>
   <v>       0.02777778 </v>
   <v>       0.02777778 </v>
   <v>       0.02777778 </v>
   <v>       0.02777778 </v>
   <v>       0.02777778 </v>
   <v>       0.05555556 </v>
   <v>       0.05555556 </v>
   <v>       0.05555556 </v>
   <v>       0.05555556 </v>
   <v>       0.02777778 </v>
   <v>       0.05555556 </v>
   <v>       0.05555556 </v>
   <v>       0.05555556 </v>
   <v>       0.02777778 </v>
   <v>       0.05555556 </v>
   <v>       0.02777778 </v>
   <v>       0.00925926 </v>
   <v>       0.02777778 </v>
   <v>       0.02777778 </v>
   <v>       0.02777778 </v>
   <v>       0.02777778 </v>
   <v>       0.05555556 </v>
   <v>       0.05555556 </v>
   <v>       0.02777778 </v>
   <v>       0.00925926 </v>
   <v>       0.02777778 </v>
  </varray>
 </kpoints>
 <parameters>
  <separator name="general" >
   <i type="string" name="SYSTEM">unknown system</i>
   <i type="logical" name="LCOMPAT"> F  </i>
  </separator>
  <separator name="electronic" >
   <i type="string" name="PREC">accura</i>
   <i name="ENMAX">    200.00000000</i>
   <i name="ENAUG">    332.07500000</i>
   <i name="EDIFF">      0.00010000</i>
   <i type="int" name="IALGO">    38</i>
   <i type="int" name="IWAVPR">    10</i>
   <i type="int" name="NBANDS">     9</i>
   <i name="NELECT">      5.00000000</i>
   <i type="int" name="TURBO">     0</i>
   <i type="int" name="IRESTART">     0</i>
   <i type="int" name="NREBOOT">     0</i>
   <i type="int" name="NMIN">     0</i>
   <i name="EREF">      0.00000000</i>
   <separator name="electronic smearing" >
    <i type="int" name="ISMEAR">     1</i>
    <i name="SIGMA">      0.05000000</i>
    <i name="KSPACING">      0.50000000</i>
    <i type="logical" name="KGAMMA"> T  </i>
   </separator>
   <separator name="electronic projectors" >
    <i type="logical" name="LREAL"> F  </i>
    <v name="ROPT">      0.00000000</v>
    <i type="int" name="LMAXPAW">  -100</i>
    <i type="int" name="LMAXMIX">     2</i>
    <i type="logical" name="NLSPLINE"> F  </i>
   </separator>
   <separator name="electronic startup" >
    <i type="int" name="ISTART">     0</i>
    <i type="int" name="ICHARG">     2</i>
    <i type="int" name="INIWAV">     1</i>
   </separator>
   <separator name="electronic spin" >
    <i type="int" name="ISPIN">     2</i>
    <i type="logical" name="LNONCOLLINEAR"> F  </i>
    <v name="MAGMOM">      6.00000000</v>
    <i name="NUPDOWN">     -1.00000000</i>
    <i type="logical" name="LSORBIT"> F  </i>
    <v name="SAXIS">      0.00000000      0.00000000      1.00000000</v>
    <i type="logical" name="LSPIRAL"> F  </i>
    <v name="QSPIRAL">      0.00000000      0.00000000      0.00000000</v>
    <i type="logical" name="LZEROZ"> F  </i>
   </separator>
   <separator name="electronic exchange-correlation" >
    <i type="logical" name="LASPH"> F  </i>
    <i type="logical" name="LMETAGGA"> F  </i>
   </separator>
   <separator name="electronic convergence" >
    <i type="int" name="NELM">    60</i>
    <i type="int" name="NELMDL">    -5</i>
    <i type="int" name="NELMIN">     2</i>
    <i name="ENINI">    200.00000000</i>
    <separator name="electronic convergence detail" >
     <i type="logical" name="LDIAG"> T  </i>
     <i type="logical" name="LSUBROT"> T  </i>
     <i name="WEIMIN">      0.00000000</i>
     <i name="EBREAK">      0.00000278</i>
     <i name="DEPER">      0.30000000</i>
     <i type="int" name="NRMM">     4</i>
     <i name="TIME">      0.40000000</i>
    </separator>
   </separator>
   <separator name="electronic mixer" >
    <i name="AMIX">      0.40000000</i>
    <i name="BMIX">      1.00000000</i>
    <i name="AMIN">      0.10000000</i>
    <i name="AMIX_MAG">      1.60000000</i>
    <i name="BMIX_MAG">      1.00000000</i>
    <separator name="electronic mixer details" >
     <i type="int" name="IMIX">     4</i>
     <i type="int" name="MAXMIX">   -45</i>
     <i name="WC">    100.00000000</i>
     <i type="int" name="INIMIX">     1</i>
     <i type="int" name="MIXPRE">     1</i>
     <i type="int" name="MREMOVE">     5</i>
    </separator>
   </separator>
   <separator name="electronic dipolcorrection" >
    <i type="logical" name="LDIPOL"> F  </i>
    <i type="logical" name="LMONO"> F  </i>
    <i type="int" name="IDIPOL">     0</i>
    <i name="EPSILON">      1.00000000</i>
    <v name="DIPOL">   -100.00000000   -100.00000000   -100.00000000</v>
    <i name="EFIELD">      0.00000000</i>
   </separator>
  </separator>
  <separator name="grids" >
   <i type="int" name="NGX">    14</i>
   <i type="int" name="NGY">    14</i>
   <i type="int" name="NGZ">    14</i>
   <i type="int" name="NGXF">    28</i>
   <i type="int" name="NGYF">    28</i>
   <i type="int" name="NGZF">    28</i>
   <i type="logical" name="ADDGRID"> F  </i>
  </separator>
  <separator name="ionic" >
   <i type="int" name="NSW">     0</i>
   <i type="int" name="IBRION">    -1</i>
   <i type="int" name="ISIF">     2</i>
   <i name="PSTRESS">      0.00000000</i>
   <i name="EDIFFG">      0.00100000</i>
   <i type="int" name="NFREE">     0</i>
   <i name="POTIM">      0.50000000</i>
   <i name="SMASS">     -3.00000000</i>
   <i name="SCALEE">      1.00000000</i>
  </separator>
  <separator name="ionic md" >
   <i name="TEBEG">      0.00010000</i>
   <i name="TEEND">      0.00010000</i>
   <i type="int" name="NBLOCK">     1</i>
   <i type="int" name="KBLOCK">     1</i>
   <i type="int" name="NPACO">   256</i>
   <i name="APACO">     16.00000000</i>
  </separator>
  <separator name="symmetry" >
   <i type="int" name="ISYM">     2</i>
   <i name="SYMPREC">      0.00001000</i>
  </separator>
  <separator name="dos" >
   <i type="logical" name="LORBIT"> F  </i>
   <v name="RWIGS">     -1.00000000</v>
   <i type="int" name="NEDOS">   301</i>
   <i name="EMIN">     10.00000000</i>
   <i name="EMAX">    -10.00000000</i>
   <i name="EFERMI">      0.00000000</i>
  </separator>
  <separator name="writing" >
   <i type="int" name="NWRITE">     2</i>
   <i type="logical" name="LWAVE"> T  </i>
   <i type="logical" name="LCHARG"> T  </i>
   <i type="logical" name="LPARD"> F  </i>
   <i type="logical" name="LVTOT"> F  </i>
   <i type="logical" name="LVHAR"> F  </i>
   <i type="logical" name="LELF"> F  </i>
   <i type="logical" name="LOPTICS"> F  </i>
   <v name="STM">      0.00000000      0.00000000      0.00000000      0.00000000      0.00000000      0.00000000      0.00000000</v>
  </separator>
  <separator name="performance" >
   <i type="int" name="NPAR">     1</i>
   <i type="int" name="NSIM">     4</i>
   <i type="int" name="NBLK">    -1</i>
   <i type="logical" name="LPLANE"> T  </i>
   <i type="logical" name="LSCALAPACK"> F  </i>
   <i type="logical" name="LSCAAWARE"> F  </i>
   <i type="logical" name="LSCALU"> F  </i>
   <i type="logical" name="LASYNC"> F  </i>
   <i type="logical" name="LORBITALREAL"> F  </i>
  </separator>
  <separator name="miscellaneous" >
   <i type="int" name="IDIOT">     3</i>
   <i type="logical" name="LMUSIC"> F  </i>
   <v name="POMASS">    180.94800000</v>
   <v name="DARWINR">      0.00000000</v>
   <v name="DARWINV">      1.00000000</v>
   <i type="logical" name="LCORR"> T  </i>
  </separator>
  <i type="logical" name="GGA_COMPAT"> T  </i>
  <i type="logical" name="LBERRY"> F  </i>
  <i type="int" name="ICORELEVEL">     0</i>
  <i type="logical" name="LDAU"> F  </i>
  <i type="int" name="I_CONSTRAINED_M">     0</i>
  <separator name="electronic exchange-correlation" >
   <i type="string" name="GGA">--</i>
   <i type="int" name="VOSKOWN">     0</i>
   <i type="logical" name="LHFCALC"> F  </i>
   <i type="string" name="PRECFOCK"></i>
   <i type="logical" name="LHFONE"> F  </i>
   <i type="logical" name="LRHFCALC"> F  </i>
   <i type="logical" name="LTHOMAS"> F  </i>
   <i type="logical" name="LMODELHF"> F  </i>
   <i name="ENCUT4O">     -1.00000000</i>
   <i type="int" name="EXXOEP">     0</i>
   <i type="int" name="FOURORBIT">     0</i>
   <i name="AEXX">      0.00000000</i>
   <i name="HFALPHA">      0.00000000</i>
   <i name="ALDAX">      1.00000000</i>
   <i name="AGGAX">      1.00000000</i>
   <i name="ALDAC">      1.00000000</i>
   <i name="AGGAC">      1.00000000</i>
   <i type="int" name="NKREDX">     1</i>
   <i type="int" name="NKREDY">     1</i>
   <i type="int" name="NKREDZ">     1</i>
   <i type="logical" name="SHIFTRED"> F  </i>
   <i type="logical" name="ODDONLY"> F  </i>
   <i type="logical" name="EVENONLY"> F  </i>
   <i type="int" name="LMAXFOCK">     0</i>
   <i type="int" name="NMAXFOCKAE">     0</i>
   <i type="logical" name="LFOCKAEDFT"> F  </i>
   <i name="HFSCREEN">      0.00000000</i>
   <i name="HFSCREENC">      0.00000000</i>
  </separator>
  <separator name="vdW DFT" >
   <i type="logical" name="LUSE_VDW"> F  </i>
   <i name="Zab_VDW">     -0.84910000</i>
   <i name="PARAM1">      0.12340000</i>
   <i name="PARAM2">      1.00000000</i>
   <i name="PARAM3">      0.00000000</i>
  </separator>
  <separator name="model GW" >
   <i type="int" name="MODEL_GW">     0</i>
   <i name="MODEL_EPS0">     11.03400885</i>
   <i name="MODEL_ALPHA">      1.00000000</i>
  </separator>
  <separator name="linear response parameters" >
   <i type="logical" name="LEPSILON"> F  </i>
   <i type="logical" name="LRPA"> F  </i>
   <i type="logical" name="LNABLA"> F  </i>
   <i type="logical" name="LVEL"> F  </i>
   <i type="int" name="KINTER">     0</i>
   <i name="CSHIFT">      0.10000000</i>
   <i name="OMEGAMAX">     -1.00000000</i>
  </separator>
  <separator name="orbital magnetization" >
   <i type="logical" name="NUCIND"> F  </i>
   <v name="MAGPOS">      0.00000000      0.00000000      0.00000000</v>
   <i type="logical" name="LNICSALL"> T  </i>
   <i type="logical" name="ORBITALMAG"> F  </i>
   <i type="logical" name="LMAGBLOCH"> F  </i>
   <i type="logical" name="LCHIMAG"> F  </i>
   <i type="logical" name="LGAUGE"> T  </i>
   <i type="int" name="MAGATOM">     0</i>
   <v name="MAGDIPOL">      0.00000000      0.00000000      0.00000000</v>
   <v name="AVECCONST">      0.00000000      0.00000000      0.00000000</v>
  </separator>
  <separator name="response functions" >
   <i type="logical" name="LADDER"> F  </i>
   <i type="logical" name="LHARTREE"> T  </i>
   <i type="int" name="IBSE">     0</i>
   <i type="logical" name="LTCTE"> F  </i>
   <i type="logical" name="LTETE"> F  </i>
   <i type="logical" name="LFXCEPS"> F  </i>
   <i type="logical" name="L2ORDER"> F  </i>
   <i type="logical" name="LUSEW"> F  </i>
   <i name="ENCUTGW">     -2.00000000</i>
   <i name="ENCUTGWSOFT">     -2.00000000</i>
   <i name="ENCUTLF">     -1.00000000</i>
   <i type="int" name="LMAXMP2">    -1</i>
   <i name="SCISSOR">      0.00000000</i>
   <i type="int" name="NOMEGA">     0</i>
   <i type="int" name="NOMEGAR">     0</i>
   <i type="int" name="NBANDSGW">    -1</i>
   <i type="int" name="NBANDSO">    -1</i>
   <i type="int" name="NBANDSV">    -1</i>
   <i name="OPTEMAX">      0.00000000</i>
   <i type="int" name="NELM">     1</i>
   <i type="int" name="DIM">     3</i>
   <i type="int" name="ANTIRES">     0</i>
   <i name="OMEGAMAX">    -30.00000000</i>
   <i name="OMEGATL">   -200.00000000</i>
   <i type="int" name="OMEGAGRID">     0</i>
   <i name="CSHIFT">     -0.10000000</i>
   <i type="logical" name="SELFENERGY"> F  </i>
   <i type="logical" name="LSPECTRAL"> F  </i>
   <i type="logical" name="ODDONLYGW"> F  </i>
   <i type="logical" name="EVENONLYGW"> F  </i>
   <i type="int" name="NKREDLFX">     1</i>
   <i type="int" name="NKREDLFY">     1</i>
   <i type="int" name="NKREDLFZ">     1</i>
   <i type="int" name="MAXMEM">  1800</i>
   <i type="int" name="TELESCOPE">     0</i>
  </separator>
 </parameters>
 <atominfo>
  <atoms>       1 </atoms>
  <types>       1 </types>
  <array name="atoms" >
   <dimension dim="1">ion</dimension>
   <field type="string">element</field>
   <field type="int">atomtype</field>
   <set>
    <rc><c>Ta</c><c>   1</c></rc>
   </set>
  </array>
  <array name="atomtypes" >
   <dimension dim="1">type</dimension>
   <field type="int">atomspertype</field>
   <field type="string">element</field>
   <field>mass</field>
   <field>valence</field>
   <field type="string">pseudopotential</field>
   <set>
    <rc><c>   1</c><c>Ta</c><c>    180.94800000</c><c>      5.00000000</c><c>  PAW_PBE Ta 17Jan2003                  </c></rc>
   </set>
  </array>
 </atominfo>
 <structure name="initialpos" >
  <crystal>
   <varray name="basis" >
    <v>       0.00000000       2.09500000       2.09500000 </v>
    <v>       2.09500000       0.00000000       2.09500000 </v>
    <v>       2.09500000       2.09500000       0.00000000 </v>
   </varray>
   <i name="volume">     18.39001475 </i>
   <varray name="rec_basis" >
    <v>      -0.23866348       0.23866348       0.23866348 </v>
    <v>       0.23866348      -0.23866348       0.23866348 </v>
    <v>       0.23866348       0.23866348      -0.23866348 </v>
   </varray>
  </crystal>
  <varray name="positions" >
   <v>       0.00000000       0.00000000       0.00000000 </v>
  </varray>
 </structure>
 <calculation>
  <scstep>
   <time name="dav">    0.61    0.61</time>
   <time name="total">    0.71    0.71</time>
   <energy>
    <i name="alphaZ">     30.15482628 </i>
    <i name="ewald">   -196.96013737 </i>
    <i name="hartreedc">     -2.62452757 </i>
    <i name="XCdc">    -60.68047603 </i>
    <i name="pawpsdc">    143.51874798 </i>
    <i name="pawaedc">    -69.33493833 </i>
    <i name="eentropy">     -0.00102129 </i>
    <i name="bandstr">     27.82378980 </i>
    <i name="atom">    130.57950032 </i>
    <i name="e_fr_energy">      2.47576376 </i>
    <i name="e_wo_entrp">      2.47678506 </i>
    <i name="e_0_energy">      2.47610420 </i>
   </energy>
  </scstep>
  <scstep>
   <time name="dav">    0.63    0.63</time>
   <time name="total">    0.64    0.65</time>
   <energy>
    <i name="e_fr_energy">     -1.76445096 </i>
    <i name="e_wo_entrp">     -1.76412115 </i>
    <i name="e_0_energy">     -1.76434102 </i>
   </energy>
  </scstep>
  <scstep>
   <time name="dav">    0.65    0.66</time>
   <time name="total">    0.66    0.68</time>
   <energy>
    <i name="e_fr_energy">     -1.80086459 </i>
    <i name="e_wo_entrp">     -1.80064107 </i>
    <i name="e_0_energy">     -1.80079008 </i>
   </energy>
  </scstep>
  <scstep>
   <time name="dav">    0.65    0.65</time>
   <time name="total">    0.66    0.68</time>
   <energy>
    <i name="e_fr_energy">     -1.80090402 </i>
    <i name="e_wo_entrp">     -1.80068059 </i>
    <i name="e_0_energy">     -1.80082955 </i>
   </energy>
  </scstep>
  <scstep>
   <time name="dav">    0.63    0.63</time>
   <time name="total">    0.68    0.72</time>
   <energy>
    <i name="e_fr_energy">     -1.80090407 </i>
    <i name="e_wo_entrp">     -1.80068063 </i>
    <i name="e_0_energy">     -1.80082959 </i>
   </energy>
  </scstep>
  <scstep>
   <time name="dav">    0.57    0.57</time>
   <time name="total">    0.71    0.72</time>
   <energy>
    <i name="e_fr_energy">    -11.28132245 </i>
    <i name="e_wo_entrp">    -11.28128562 </i>
    <i name="e_0_energy">    -11.28131018 </i>
   </energy>
  </scstep>
  <scstep>
   <time name="dav">    0.64    0.64</time>
   <time name="total">    0.77    0.79</time>
   <energy>
    <i name="e_fr_energy">    -11.32756746 </i>
    <i name="e_wo_entrp">    -11.32762092 </i>
    <i name="e_0_energy">    -11.32758528 </i>
   </energy>
  </scstep>
  <scstep>
   <time name="dav">    0.56    0.57</time>
   <time name="total">    0.70    0.74</time>
   <energy>
    <i name="e_fr_energy">    -35.83885846 </i>
    <i name="e_wo_entrp">    -35.83823195 </i>
    <i name="e_0_energy">    -35.83864962 </i>
   </energy>
  </scstep>
  <scstep>
   <time name="dav">    0.59    0.59</time>
   <time name="total">    0.73    0.74</time>
   <energy>
    <i name="e_fr_energy">    -10.93322649 </i>
    <i name="e_wo_entrp">    -10.93341638 </i>
    <i name="e_0_energy">    -10.93328979 </i>
   </energy>
  </scstep>
  <scstep>
   <time name="dav">    0.62    0.62</time>
   <time name="total">    0.76    0.77</time>
   <energy>
    <i name="e_fr_energy">    -11.53306266 </i>
    <i name="e_wo_entrp">    -11.53257800 </i>
    <i name="e_0_energy">    -11.53290111 </i>
   </energy>
  </scstep>
  <scstep>
   <time name="dav">    0.65    0.65</time>
   <time name="total">    0.79    0.81</time>
   <energy>
    <i name="e_fr_energy">    -11.61426126 </i>
    <i name="e_wo_entrp">    -11.61357070 </i>
    <i name="e_0_energy">    -11.61403107 </i>
   </energy>
  </scstep>
  <scstep>
   <time name="dav">    0.57    0.58</time>
   <time name="total">    0.71    0.74</time>
   <energy>
    <i name="e_fr_energy">    -11.62341678 </i>
    <i name="e_wo_entrp">    -11.62283732 </i>
    <i name="e_0_energy">    -11.62322363 </i>
   </energy>
  </scstep>
  <scstep>
   <time name="dav">    0.55    0.56</time>
   <time name="total">    0.69    0.71</time>
   <energy>
    <i name="e_fr_energy">    -11.63070041 </i>
    <i name="e_wo_entrp">    -11.62996890 </i>
    <i name="e_0_energy">    -11.63045658 </i>
   </energy>
  </scstep>
  <scstep>
   <time name="dav">    0.56    0.56</time>
   <time name="total">    0.69    0.71</time>
   <energy>
    <i name="e_fr_energy">    -11.62884050 </i>
    <i name="e_wo_entrp">    -11.62795866 </i>
    <i name="e_0_energy">    -11.62854655 </i>
   </energy>
  </scstep>
  <scstep>
   <time name="dav">    0.46    0.46</time>
   <time name="total">    0.60    0.63</time>
   <energy>
    <i name="e_fr_energy">    -11.62869189 </i>
    <i name="e_wo_entrp">    -11.62778452 </i>
    <i name="e_0_energy">    -11.62838943 </i>
   </energy>
  </scstep>
  <scstep>
   <time name="dav">    0.35    0.35</time>
   <time name="total">    0.44    0.46</time>
   <energy>
    <i name="alphaZ">     30.15482628 </i>
    <i name="ewald">   -196.96013737 </i>
    <i name="hartreedc">     -0.65961207 </i>
    <i name="XCdc">    -65.97450155 </i>
    <i name="pawpsdc">    204.62952624 </i>
    <i name="pawaedc">   -131.24771437 </i>
    <i name="eentropy">     -0.00088597 </i>
    <i name="bandstr">     17.85038772 </i>
    <i name="atom">    130.57950032 </i>
    <i name="e_fr_energy">    -11.62861079 </i>
    <i name="e_wo_entrp">    -11.62772481 </i>
    <i name="e_0_energy">    -11.62831546 </i>
   </energy>
  </scstep>
  <parameters_embedded>
   <separator name="dft+d2" >
    <i type="logical" name="LVDW"> F  </i>
   </separator>
  </parameters_embedded>
  <structure>
   <crystal>
    <varray name="basis" >
     <v>       0.00000000       2.09500000       2.09500000 </v>
     <v>       2.09500000       0.00000000       2.09500000 </v>
     <v>       2.09500000       2.09500000       0.00000000 </v>
    </varray>
    <i name="volume">     18.39001475 </i>
    <varray name="rec_basis" >
     <v>      -0.23866348       0.23866348       0.23866348 </v>
     <v>       0.23866348      -0.23866348       0.23866348 </v>
     <v>       0.23866348       0.23866348      -0.23866348 </v>
    </varray>
   </crystal>
   <varray name="positions" >
    <v>       0.00000000       0.00000000       0.00000000 </v>
   </varray>
  </structure>
  <varray name="forces" >
   <v>       0.00000000       0.00000000       0.00000000 </v>
  </varray>
  <varray name="stress" >
   <v>      -6.43115903       0.00000000       0.00000000 </v>
   <v>       0.00000000      -6.43115903       0.00000000 </v>
   <v>       0.00000000       0.00000000      -6.43115903 </v>
  </varray>
  <energy>
   <i name="e_fr_energy">    -11.62861079 </i>
   <i name="e_wo_entrp">    -11.62831546 </i>
   <i name="e_0_energy">     -0.00088597 </i>
  </energy>
  <time name="totalsc">   11.55   11.96</time>
  <eigenvalues>
   <array>
    <dimension dim="1">band</dimension>
    <dimension dim="2">kpoint</dimension>
    <dimension dim="3">spin</dimension>
    <field>eigene</field>
    <field>occ</field>
    <set>
     <set comment="spin 1">
      <set comment="kpoint 1">
       <r>   -1.9618    1.0000 </r>
       <r>    6.1910    0.0000 </r>
       <r>    6.5835    0.0000 </r>
       <r>    6.5835    0.0000 </r>
       <r>    9.3871    0.0000 </r>
       <r>    9.3871    0.0000 </r>
       <r>   19.0827    0.0000 </r>
       <r>   19.7993    0.0000 </r>
       <r>   22.1771    0.0000 </r>
      </set>
      <set comment="kpoint 2">
       <r>   -0.6241    1.0000 </r>
       <r>    5.3221    1.0000 </r>
       <r>    6.8372    0.0000 </r>
       <r>    7.1059    0.0000 </r>
       <r>    8.5816    0.0000 </r>
       <r>    9.8861    0.0000 </r>
       <r>   19.7836    0.0000 </r>
       <r>   19.9551    0.0000 </r>
       <r>   21.7522    0.0000 </r>
      </set>
      <set comment="kpoint 3">
       <r>    1.2259    1.0000 </r>
       <r>    5.4345    1.0000 </r>
       <r>    6.2081    0.0000 </r>
       <r>    6.6413    0.0000 </r>
       <r>   10.2043    0.0000 </r>
       <r>   11.7318    0.0000 </r>
       <r>   17.4585    0.0000 </r>
       <r>   19.7989    0.0000 </r>
       <r>   20.4189    0.0000 </r>
      </set>
      <set comment="kpoint 4">
       <r>    1.5267    1.0000 </r>
       <r>    5.6754    1.0000 </r>
       <r>    6.4423    0.0000 </r>
       <r>    6.5736    0.0000 </r>
       <r>   11.9499    0.0000 </r>
       <r>   12.1379    0.0000 </r>
       <r>   16.1147    0.0000 </r>
       <r>   18.7423    0.0000 </r>
       <r>   19.8085    0.0000 </r>
      </set>
      <set comment="kpoint 5">
       <r>    0.7502    1.0000 </r>
       <r>    5.0496    1.0000 </r>
       <r>    6.4002    0.0000 </r>
       <r>    6.9299    0.0000 </r>
       <r>    9.7525    0.0000 </r>
       <r>   10.8012    0.0000 </r>
       <r>   18.2158    0.0000 </r>
       <r>   19.8039    0.0000 </r>
       <r>   21.8991    0.0000 </r>
      </set>
      <set comment="kpoint 6">
       <r>   -1.2561    1.0000 </r>
       <r>    5.5710    1.0000 </r>
       <r>    6.9152    0.0000 </r>
       <r>    6.9485    0.0000 </r>
       <r>    8.5753    0.0000 </r>
       <r>    9.7209    0.0000 </r>
       <r>   19.7983    0.0000 </r>
       <r>   20.4031    0.0000 </r>
       <r>   21.3768    0.0000 </r>
      </set>
      <set comment="kpoint 7">
       <r>   -0.0084    1.0000 </r>
       <r>    4.6324    1.0000 </r>
       <r>    6.8650    0.0000 </r>
       <r>    7.7002    0.0000 </r>
       <r>    8.2714    0.0000 </r>
       <r>   10.3376    0.0000 </r>
       <r>   19.7994    0.0000 </r>
       <r>   21.2245    0.0000 </r>
       <r>   22.9240    0.0000 </r>
      </set>
      <set comment="kpoint 8">
       <r>    1.7716    1.0000 </r>
       <r>    4.0820    1.0000 </r>
       <r>    5.6080    1.0000 </r>
       <r>    8.3160    0.0000 </r>
       <r>    9.7364    0.0000 </r>
       <r>   12.0401    0.0000 </r>
       <r>   19.2034    0.0000 </r>
       <r>   19.8207    0.0000 </r>
       <r>   22.4175    0.0000 </r>
      </set>
      <set comment="kpoint 9">
       <r>    2.7523    1.0000 </r>
       <r>    4.2452    1.0000 </r>
       <r>    5.7239    1.0001 </r>
       <r>    7.6889    0.0000 </r>
       <r>   11.4969    0.0000 </r>
       <r>   13.9538    0.0000 </r>
       <r>   15.2459    0.0000 </r>
       <r>   19.8066    0.0000 </r>
       <r>   21.2333    0.0000 </r>
      </set>
      <set comment="kpoint 10">
       <r>    2.4969    1.0000 </r>
       <r>    4.6293    1.0000 </r>
       <r>    5.0340    1.0000 </r>
       <r>    7.8315    0.0000 </r>
       <r>    9.7387    0.0000 </r>
       <r>   13.1920    0.0000 </r>
       <r>   17.8644    0.0000 </r>
       <r>   19.8106    0.0000 </r>
       <r>   21.8425    0.0000 </r>
      </set>
      <set comment="kpoint 11">
       <r>    0.5093    1.0000 </r>
       <r>    4.7463    1.0000 </r>
       <r>    6.3932    0.0000 </r>
       <r>    7.5491    0.0000 </r>
       <r>    8.6199    0.0000 </r>
       <r>   10.8801    0.0000 </r>
       <r>   19.7241    0.0000 </r>
       <r>   19.8627    0.0000 </r>
       <r>   23.0812    0.0000 </r>
      </set>
      <set comment="kpoint 12">
       <r>    1.7688    1.0000 </r>
       <r>    3.0662    1.0000 </r>
       <r>    6.8727    0.0000 </r>
       <r>   10.1399    0.0000 </r>
       <r>   11.2406    0.0000 </r>
       <r>   11.8908    0.0000 </r>
       <r>   18.6634    0.0000 </r>
       <r>   19.8055    0.0000 </r>
       <r>   20.0451    0.0000 </r>
      </set>
      <set comment="kpoint 13">
       <r>    2.2304    1.0000 </r>
       <r>    3.2298    1.0000 </r>
       <r>    6.8905    0.0000 </r>
       <r>    9.9318    0.0000 </r>
       <r>   12.2182    0.0000 </r>
       <r>   14.4589    0.0000 </r>
       <r>   15.5112    0.0000 </r>
       <r>   18.5338    0.0000 </r>
       <r>   19.8055    0.0000 </r>
      </set>
      <set comment="kpoint 14">
       <r>    3.3351    1.0000 </r>
       <r>    3.8845    1.0000 </r>
       <r>    5.4632    1.0000 </r>
       <r>    8.3759    0.0000 </r>
       <r>   11.1401    0.0000 </r>
       <r>   13.5731    0.0000 </r>
       <r>   16.9204    0.0000 </r>
       <r>   19.7327    0.0000 </r>
       <r>   19.8609    0.0000 </r>
      </set>
      <set comment="kpoint 15">
       <r>    1.9203    1.0000 </r>
       <r>    5.0884    1.0000 </r>
       <r>    5.8844    0.3383 </r>
       <r>    6.9620    0.0000 </r>
       <r>   11.0405    0.0000 </r>
       <r>   12.7459    0.0000 </r>
       <r>   16.5689    0.0000 </r>
       <r>   19.8057    0.0000 </r>
       <r>   20.1137    0.0000 </r>
      </set>
      <set comment="kpoint 16">
       <r>    1.6572    1.0000 </r>
       <r>    2.7165    1.0000 </r>
       <r>    8.1994    0.0000 </r>
       <r>   11.2538    0.0000 </r>
       <r>   12.4204    0.0000 </r>
       <r>   12.9666    0.0000 </r>
       <r>   16.4846    0.0000 </r>
       <r>   18.1465    0.0000 </r>
       <r>   19.5486    0.0000 </r>
      </set>
      <set comment="kpoint 17">
       <r>    2.3405    1.0000 </r>
       <r>    3.5237    1.0000 </r>
       <r>    5.8445    0.9211 </r>
       <r>    9.3286    0.0000 </r>
       <r>   11.2221    0.0000 </r>
       <r>   13.1144    0.0000 </r>
       <r>   17.1713    0.0000 </r>
       <r>   19.8056    0.0000 </r>
       <r>   20.2399    0.0000 </r>
      </set>
      <set comment="kpoint 18">
       <r>    1.2872    1.0000 </r>
       <r>    3.7350    1.0000 </r>
       <r>    6.2183    0.0000 </r>
       <r>    8.8062    0.0000 </r>
       <r>    9.5034    0.0000 </r>
       <r>   11.1321    0.0000 </r>
       <r>   19.7970    0.0000 </r>
       <r>   21.0715    0.0000 </r>
       <r>   22.5983    0.0000 </r>
      </set>
      <set comment="kpoint 19">
       <r>   -0.1343    1.0000 </r>
       <r>    5.2641    1.0000 </r>
       <r>    6.8470    0.0000 </r>
       <r>    6.8470    0.0000 </r>
       <r>    9.5561    0.0000 </r>
       <r>    9.5561    0.0000 </r>
       <r>   18.5639    0.0000 </r>
       <r>   19.8030    0.0000 </r>
       <r>   22.3907    0.0000 </r>
      </set>
      <set comment="kpoint 20">
       <r>    1.4197    1.0000 </r>
       <r>    4.8092    1.0000 </r>
       <r>    5.8531    0.8302 </r>
       <r>    7.4299    0.0000 </r>
       <r>    8.8163    0.0000 </r>
       <r>   12.1193    0.0000 </r>
       <r>   18.9832    0.0000 </r>
       <r>   19.8134    0.0000 </r>
       <r>   22.0393    0.0000 </r>
      </set>
      <set comment="kpoint 21">
       <r>    3.0819    1.0000 </r>
       <r>    4.3403    1.0000 </r>
       <r>    5.2765    1.0000 </r>
       <r>    7.8486    0.0000 </r>
       <r>   10.2292    0.0000 </r>
       <r>   13.3394    0.0000 </r>
       <r>   17.4775    0.0000 </r>
       <r>   19.8084    0.0000 </r>
       <r>   20.6609    0.0000 </r>
      </set>
      <set comment="kpoint 22">
       <r>    2.5100    1.0000 </r>
       <r>    3.9234    1.0000 </r>
       <r>    5.7386    1.0004 </r>
       <r>    8.2915    0.0000 </r>
       <r>   12.1335    0.0000 </r>
       <r>   13.1018    0.0000 </r>
       <r>   15.7220    0.0000 </r>
       <r>   19.8062    0.0000 </r>
       <r>   21.5725    0.0000 </r>
      </set>
      <set comment="kpoint 23">
       <r>    1.7942    1.0000 </r>
       <r>    4.5747    1.0000 </r>
       <r>    5.7033    1.0000 </r>
       <r>    7.4307    0.0000 </r>
       <r>   11.0751    0.0000 </r>
       <r>   11.8305    0.0000 </r>
       <r>   17.6832    0.0000 </r>
       <r>   19.8083    0.0000 </r>
       <r>   21.0546    0.0000 </r>
      </set>
      <set comment="kpoint 24">
       <r>    3.2598    1.0000 </r>
       <r>    4.0876    1.0000 </r>
       <r>    4.8720    1.0000 </r>
       <r>    8.4938    0.0000 </r>
       <r>   11.0052    0.0000 </r>
       <r>   13.8937    0.0000 </r>
       <r>   16.7842    0.0000 </r>
       <r>   19.8012    0.0000 </r>
       <r>   20.0301    0.0000 </r>
      </set>
      <set comment="kpoint 25">
       <r>    3.0775    1.0000 </r>
       <r>    4.1009    1.0000 </r>
       <r>    5.3845    1.0000 </r>
       <r>    8.4411    0.0000 </r>
       <r>   12.1204    0.0000 </r>
       <r>   15.1758    0.0000 </r>
       <r>   15.8907    0.0000 </r>
       <r>   18.3390    0.0000 </r>
       <r>   19.8112    0.0000 </r>
      </set>
      <set comment="kpoint 26">
       <r>    2.6058    1.0000 </r>
       <r>    3.6164    1.0000 </r>
       <r>    6.3372    0.0000 </r>
       <r>    9.2469    0.0000 </r>
       <r>   11.6889    0.0000 </r>
       <r>   13.6634    0.0000 </r>
       <r>   15.9044    0.0000 </r>
       <r>   19.7824    0.0000 </r>
       <r>   20.1116    0.0000 </r>
      </set>
      <set comment="kpoint 27">
       <r>    1.1951    1.0000 </r>
       <r>    6.2169    0.0000 </r>
       <r>    6.3054    0.0000 </r>
       <r>    6.3054    0.0000 </r>
       <r>   11.4873    0.0000 </r>
       <r>   11.4873    0.0000 </r>
       <r>   16.6429    0.0000 </r>
       <r>   18.9445    0.0000 </r>
       <r>   19.8126    0.0000 </r>
      </set>
      <set comment="kpoint 28">
       <r>    2.2312    1.0000 </r>
       <r>    4.8486    1.0000 </r>
       <r>    6.1150    0.0000 </r>
       <r>    7.0336    0.0000 </r>
       <r>   11.3199    0.0000 </r>
       <r>   13.2552    0.0000 </r>
       <r>   15.8258    0.0000 </r>
       <r>   19.8081    0.0000 </r>
       <r>   20.3113    0.0000 </r>
      </set>
     </set>
     <set comment="spin 2">
      <set comment="kpoint 1">
       <r>   -1.9683    1.0000 </r>
       <r>    6.1811    0.0000 </r>
       <r>    6.5740    0.0000 </r>
       <r>    6.5740    0.0000 </r>
       <r>    9.3822    0.0000 </r>
       <r>    9.3822    0.0000 </r>
       <r>   19.0633    0.0000 </r>
       <r>   19.7813    0.0000 </r>
       <r>   22.1742    0.0000 </r>
      </set>
      <set comment="kpoint 2">
       <r>   -0.6317    1.0000 </r>
       <r>    5.3111    1.0000 </r>
       <r>    6.8287    0.0000 </r>
       <r>    7.0968    0.0000 </r>
       <r>    8.5766    0.0000 </r>
       <r>    9.8802    0.0000 </r>
       <r>   19.7679    0.0000 </r>
       <r>   19.9490    0.0000 </r>
       <r>   21.7357    0.0000 </r>
      </set>
      <set comment="kpoint 3">
       <r>    1.2163    1.0000 </r>
       <r>    5.4225    1.0000 </r>
       <r>    6.2011    0.0000 </r>
       <r>    6.6350    0.0000 </r>
       <r>   10.1966    0.0000 </r>
       <r>   11.7241    0.0000 </r>
       <r>   17.4550    0.0000 </r>
       <r>   19.7812    0.0000 </r>
       <r>   20.4048    0.0000 </r>
      </set>
      <set comment="kpoint 4">
       <r>    1.5164    1.0000 </r>
       <r>    5.6696    1.0000 </r>
       <r>    6.4360    0.0000 </r>
       <r>    6.5598    0.0000 </r>
       <r>   11.9424    0.0000 </r>
       <r>   12.1298    0.0000 </r>
       <r>   16.1088    0.0000 </r>
       <r>   18.7329    0.0000 </r>
       <r>   19.7900    0.0000 </r>
      </set>
      <set comment="kpoint 5">
       <r>    0.7414    1.0000 </r>
       <r>    5.0378    1.0000 </r>
       <r>    6.3938    0.0000 </r>
       <r>    6.9224    0.0000 </r>
       <r>    9.7446    0.0000 </r>
       <r>   10.7944    0.0000 </r>
       <r>   18.2129    0.0000 </r>
       <r>   19.7858    0.0000 </r>
       <r>   21.8836    0.0000 </r>
      </set>
      <set comment="kpoint 6">
       <r>   -1.2631    1.0000 </r>
       <r>    5.5605    1.0000 </r>
       <r>    6.9057    0.0000 </r>
       <r>    6.9389    0.0000 </r>
       <r>    8.5704    0.0000 </r>
       <r>    9.7159    0.0000 </r>
       <r>   19.7803    0.0000 </r>
       <r>   20.3860    0.0000 </r>
       <r>   21.3728    0.0000 </r>
      </set>
      <set comment="kpoint 7">
       <r>   -0.0161    1.0000 </r>
       <r>    4.6214    1.0000 </r>
       <r>    6.8590    0.0000 </r>
       <r>    7.6907    0.0000 </r>
       <r>    8.2626    0.0000 </r>
       <r>   10.3323    0.0000 </r>
       <r>   19.7815    0.0000 </r>
       <r>   21.2215    0.0000 </r>
       <r>   22.9062    0.0000 </r>
      </set>
      <set comment="kpoint 8">
       <r>    1.7635    1.0000 </r>
       <r>    4.0704    1.0000 </r>
       <r>    5.6011    1.0000 </r>
       <r>    8.3084    0.0000 </r>
       <r>    9.7271    0.0000 </r>
       <r>   12.0324    0.0000 </r>
       <r>   19.1973    0.0000 </r>
       <r>   19.8018    0.0000 </r>
       <r>   22.4008    0.0000 </r>
      </set>
      <set comment="kpoint 9">
       <r>    2.7415    1.0000 </r>
       <r>    4.2405    1.0000 </r>
       <r>    5.7098    1.0000 </r>
       <r>    7.6826    0.0000 </r>
       <r>   11.4885    0.0000 </r>
       <r>   13.9430    0.0000 </r>
       <r>   15.2397    0.0000 </r>
       <r>   19.7883    0.0000 </r>
       <r>   21.2252    0.0000 </r>
      </set>
      <set comment="kpoint 10">
       <r>    2.4866    1.0000 </r>
       <r>    4.6189    1.0000 </r>
       <r>    5.0264    1.0000 </r>
       <r>    7.8257    0.0000 </r>
       <r>    9.7294    0.0000 </r>
       <r>   13.1841    0.0000 </r>
       <r>   17.8568    0.0000 </r>
       <r>   19.7921    0.0000 </r>
       <r>   21.8458    0.0000 </r>
      </set>
      <set comment="kpoint 11">
       <r>    0.5009    1.0000 </r>
       <r>    4.7348    1.0000 </r>
       <r>    6.3868    0.0000 </r>
       <r>    7.5411    0.0000 </r>
       <r>    8.6123    0.0000 </r>
       <r>   10.8732    0.0000 </r>
       <r>   19.7166    0.0000 </r>
       <r>   19.8494    0.0000 </r>
       <r>   23.0642    0.0000 </r>
      </set>
      <set comment="kpoint 12">
       <r>    1.7652    1.0000 </r>
       <r>    3.0547    1.0000 </r>
       <r>    6.8588    0.0000 </r>
       <r>   10.1316    0.0000 </r>
       <r>   11.2294    0.0000 </r>
       <r>   11.8841    0.0000 </r>
       <r>   18.6527    0.0000 </r>
       <r>   19.7873    0.0000 </r>
       <r>   20.0318    0.0000 </r>
      </set>
      <set comment="kpoint 13">
       <r>    2.2279    1.0000 </r>
       <r>    3.2179    1.0000 </r>
       <r>    6.8742    0.0000 </r>
       <r>    9.9260    0.0000 </r>
       <r>   12.2083    0.0000 </r>
       <r>   14.4455    0.0000 </r>
       <r>   15.5030    0.0000 </r>
       <r>   18.5209    0.0000 </r>
       <r>   19.7873    0.0000 </r>
      </set>
      <set comment="kpoint 14">
       <r>    3.3279    1.0000 </r>
       <r>    3.8760    1.0000 </r>
       <r>    5.4486    1.0000 </r>
       <r>    8.3705    0.0000 </r>
       <r>   11.1305    0.0000 </r>
       <r>   13.5656    0.0000 </r>
       <r>   16.9092    0.0000 </r>
       <r>   19.7200    0.0000 </r>
       <r>   19.8432    0.0000 </r>
      </set>
      <set comment="kpoint 15">
       <r>    1.9099    1.0000 </r>
       <r>    5.0822    1.0000 </r>
       <r>    5.8721    0.5428 </r>
       <r>    6.9556    0.0000 </r>
       <r>   11.0321    0.0000 </r>
       <r>   12.7378    0.0000 </r>
       <r>   16.5628    0.0000 </r>
       <r>   19.7874    0.0000 </r>
       <r>   20.1037    0.0000 </r>
      </set>
      <set comment="kpoint 16">
       <r>    1.6553    1.0000 </r>
       <r>    2.7049    1.0000 </r>
       <r>    8.1802    0.0000 </r>
       <r>   11.2480    0.0000 </r>
       <r>   12.4113    0.0000 </r>
       <r>   12.9548    0.0000 </r>
       <r>   16.4741    0.0000 </r>
       <r>   18.1325    0.0000 </r>
       <r>   19.5428    0.0000 </r>
      </set>
      <set comment="kpoint 17">
       <r>    2.3358    1.0000 </r>
       <r>    3.5121    1.0000 </r>
       <r>    5.8325    1.0003 </r>
       <r>    9.3214    0.0000 </r>
       <r>   11.2122    0.0000 </r>
       <r>   13.1049    0.0000 </r>
       <r>   17.1624    0.0000 </r>
       <r>   19.7873    0.0000 </r>
       <r>   20.2258    0.0000 </r>
      </set>
      <set comment="kpoint 18">
       <r>    1.2803    1.0000 </r>
       <r>    3.7237    1.0000 </r>
       <r>    6.2106    0.0000 </r>
       <r>    8.7970    0.0000 </r>
       <r>    9.4931    0.0000 </r>
       <r>   11.1264    0.0000 </r>
       <r>   19.7793    0.0000 </r>
       <r>   21.0639    0.0000 </r>
       <r>   22.5867    0.0000 </r>
      </set>
      <set comment="kpoint 19">
       <r>   -0.1424    1.0000 </r>
       <r>    5.2526    1.0000 </r>
       <r>    6.8390    0.0000 </r>
       <r>    6.8390    0.0000 </r>
       <r>    9.5499    0.0000 </r>
       <r>    9.5499    0.0000 </r>
       <r>   18.5606    0.0000 </r>
       <r>   19.7849    0.0000 </r>
       <r>   22.3741    0.0000 </r>
      </set>
      <set comment="kpoint 20">
       <r>    1.4103    1.0000 </r>
       <r>    4.7969    1.0000 </r>
       <r>    5.8470    0.8975 </r>
       <r>    7.4242    0.0000 </r>
       <r>    8.8079    0.0000 </r>
       <r>   12.1115    0.0000 </r>
       <r>   18.9795    0.0000 </r>
       <r>   19.7948    0.0000 </r>
       <r>   22.0259    0.0000 </r>
      </set>
      <set comment="kpoint 21">
       <r>    3.0703    1.0000 </r>
       <r>    4.3363    1.0000 </r>
       <r>    5.2623    1.0000 </r>
       <r>    7.8434    0.0000 </r>
       <r>   10.2200    0.0000 </r>
       <r>   13.3320    0.0000 </r>
       <r>   17.4692    0.0000 </r>
       <r>   19.7900    0.0000 </r>
       <r>   20.6464    0.0000 </r>
      </set>
      <set comment="kpoint 22">
       <r>    2.5025    1.0000 </r>
       <r>    3.9146    1.0000 </r>
       <r>    5.7259    1.0001 </r>
       <r>    8.2848    0.0000 </r>
       <r>   12.1257    0.0000 </r>
       <r>   13.0895    0.0000 </r>
       <r>   15.7152    0.0000 </r>
       <r>   19.7879    0.0000 </r>
       <r>   21.5649    0.0000 </r>
      </set>
      <set comment="kpoint 23">
       <r>    1.7850    1.0000 </r>
       <r>    4.5647    1.0000 </r>
       <r>    5.6951    1.0000 </r>
       <r>    7.4235    0.0000 </r>
       <r>   11.0653    0.0000 </r>
       <r>   11.8233    0.0000 </r>
       <r>   17.6772    0.0000 </r>
       <r>   19.7899    0.0000 </r>
       <r>   21.0442    0.0000 </r>
      </set>
      <set comment="kpoint 24">
       <r>    3.2528    1.0000 </r>
       <r>    4.0782    1.0000 </r>
       <r>    4.8596    1.0000 </r>
       <r>    8.4875    0.0000 </r>
       <r>   10.9954    0.0000 </r>
       <r>   13.8849    0.0000 </r>
       <r>   16.7748    0.0000 </r>
       <r>   19.7833    0.0000 </r>
       <r>   20.0150    0.0000 </r>
      </set>
      <set comment="kpoint 25">
       <r>    3.0745    1.0000 </r>
       <r>    4.0879    1.0000 </r>
       <r>    5.3701    1.0000 </r>
       <r>    8.4359    0.0000 </r>
       <r>   12.1105    0.0000 </r>
       <r>   15.1687    0.0000 </r>
       <r>   15.8762    0.0000 </r>
       <r>   18.3260    0.0000 </r>
       <r>   19.7925    0.0000 </r>
      </set>
      <set comment="kpoint 26">
       <r>    2.6015    1.0000 </r>
       <r>    3.6056    1.0000 </r>
       <r>    6.3214    0.0000 </r>
       <r>    9.2413    0.0000 </r>
       <r>   11.6797    0.0000 </r>
       <r>   13.6549    0.0000 </r>
       <r>   15.8917    0.0000 </r>
       <r>   19.7663    0.0000 </r>
       <r>   20.1009    0.0000 </r>
      </set>
      <set comment="kpoint 27">
       <r>    1.1853    1.0000 </r>
       <r>    6.2037    0.0000 </r>
       <r>    6.2990    0.0000 </r>
       <r>    6.2990    0.0000 </r>
       <r>   11.4798    0.0000 </r>
       <r>   11.4798    0.0000 </r>
       <r>   16.6382    0.0000 </r>
       <r>   18.9329    0.0000 </r>
       <r>   19.7939    0.0000 </r>
      </set>
      <set comment="kpoint 28">
       <r>    2.2203    1.0000 </r>
       <r>    4.8441    1.0000 </r>
       <r>    6.1007    0.0000 </r>
       <r>    7.0275    0.0000 </r>
       <r>   11.3118    0.0000 </r>
       <r>   13.2467    0.0000 </r>
       <r>   15.8188    0.0000 </r>
       <r>   19.7897    0.0000 </r>
       <r>   20.3024    0.0000 </r>
      </set>
     </set>
    </set>
   </array>
  </eigenvalues>
  <separator name="orbital magnetization" >
   <v name="MAGDIPOLOUT">      0.00000000      0.00000000      0.00000000</v>
  </separator>
  <dos>
   <i name="efermi">      5.87464661 </i>
   <total>
    <array>
     <dimension dim="1">gridpoints</dimension>
     <dimension dim="2">spin</dimension>
     <field>energy</field>
     <field>total</field>
     <field>integrated</field>
     <set>
      <set comment="spin 1">
       <r>    -3.2208     0.0000     0.0000 </r>
       <r>    -3.1289     0.0000     0.0000 </r>
       <r>    -3.0371     0.0000     0.0000 </r>
       <r>    -2.9452     0.0000     0.0000 </r>
       <r>    -2.8534     0.0000     0.0000 </r>
       <r>    -2.7615     0.0000     0.0000 </r>
       <r>    -2.6697     0.0000     0.0000 </r>
       <r>    -2.5779     0.0000     0.0000 </r>
       <r>    -2.4860     0.0000     0.0000 </r>
       <r>    -2.3942     0.0000     0.0000 </r>
       <r>    -2.3023     0.0000     0.0000 </r>
       <r>    -2.2105     0.0000     0.0000 </r>
       <r>    -2.1186     0.0000     0.0000 </r>
       <r>    -2.0268    -0.0035    -0.0003 </r>
       <r>    -1.9349     0.0933     0.0082 </r>
       <r>    -1.8431     0.0112     0.0093 </r>
       <r>    -1.7512    -0.0002     0.0093 </r>
       <r>    -1.6594     0.0000     0.0093 </r>
       <r>    -1.5675     0.0000     0.0093 </r>
       <r>    -1.4757     0.0000     0.0093 </r>
       <r>    -1.3838    -0.0003     0.0092 </r>
       <r>    -1.2920     0.0106     0.0102 </r>
       <r>    -1.2001     0.3023     0.0380 </r>
       <r>    -1.1083    -0.0101     0.0370 </r>
       <r>    -1.0164     0.0000     0.0370 </r>
       <r>    -0.9246     0.0000     0.0370 </r>
       <r>    -0.8327     0.0000     0.0370 </r>
       <r>    -0.7409    -0.0007     0.0370 </r>
       <r>    -0.6490     0.0401     0.0407 </r>
       <r>    -0.5572     0.2733     0.0658 </r>
       <r>    -0.4653    -0.0102     0.0648 </r>
       <r>    -0.3735     0.0000     0.0648 </r>
       <r>    -0.2816     0.0000     0.0648 </r>
       <r>    -0.1898    -0.0033     0.0645 </r>
       <r>    -0.0979     0.0966     0.0734 </r>
       <r>    -0.0061     0.1705     0.0890 </r>
       <r>     0.0857     0.1430     0.1022 </r>
       <r>     0.1776    -0.0035     0.1019 </r>
       <r>     0.2694     0.0000     0.1019 </r>
       <r>     0.3613    -0.0001     0.1018 </r>
       <r>     0.4531    -0.0203     0.1000 </r>
       <r>     0.5450     0.6038     0.1554 </r>
       <r>     0.6368     0.0210     0.1574 </r>
       <r>     0.7287     0.0518     0.1621 </r>
       <r>     0.8205     0.2606     0.1861 </r>
       <r>     0.9124    -0.0095     0.1852 </r>
       <r>     1.0042     0.0000     0.1852 </r>
       <r>     1.0961    -0.0011     0.1851 </r>
       <r>     1.1879     0.0432     0.1891 </r>
       <r>     1.2798     0.4860     0.2337 </r>
       <r>     1.3716     0.1771     0.2500 </r>
       <r>     1.4635     0.2943     0.2770 </r>
       <r>     1.5553     0.2811     0.3028 </r>
       <r>     1.6472     0.1302     0.3148 </r>
       <r>     1.7390     0.2589     0.3385 </r>
       <r>     1.8309     1.1672     0.4457 </r>
       <r>     1.9227     0.3131     0.4745 </r>
       <r>     2.0146     0.2845     0.5006 </r>
       <r>     2.1064    -0.0080     0.4999 </r>
       <r>     2.1983     0.0550     0.5050 </r>
       <r>     2.2901     0.8697     0.5848 </r>
       <r>     2.3820     0.5851     0.6386 </r>
       <r>     2.4738     0.1050     0.6482 </r>
       <r>     2.5656     0.8382     0.7252 </r>
       <r>     2.6575     0.2613     0.7492 </r>
       <r>     2.7493     0.5660     0.8012 </r>
       <r>     2.8412     0.3596     0.8342 </r>
       <r>     2.9330    -0.0099     0.8333 </r>
       <r>     3.0249    -0.0270     0.8308 </r>
       <r>     3.1167     1.2219     0.9431 </r>
       <r>     3.2086     0.1039     0.9526 </r>
       <r>     3.3004     1.1617     1.0593 </r>
       <r>     3.3923     0.5849     1.1130 </r>
       <r>     3.4841    -0.0135     1.1118 </r>
       <r>     3.5760     0.6177     1.1685 </r>
       <r>     3.6678     0.2807     1.1943 </r>
       <r>     3.7597     0.2631     1.2185 </r>
       <r>     3.8515     0.0657     1.2245 </r>
       <r>     3.9434     0.8462     1.3022 </r>
       <r>     4.0352    -0.0114     1.3012 </r>
       <r>     4.1271     1.7898     1.4655 </r>
       <r>     4.2189     0.1444     1.4788 </r>
       <r>     4.3108     0.5794     1.5320 </r>
       <r>     4.4026     0.2668     1.5565 </r>
       <r>     4.4945    -0.0180     1.5549 </r>
       <r>     4.5863     0.2096     1.5741 </r>
       <r>     4.6782     1.0071     1.6666 </r>
       <r>     4.7700     0.5106     1.7135 </r>
       <r>     4.8619     0.8248     1.7893 </r>
       <r>     4.9537     0.4771     1.8331 </r>
       <r>     5.0456     0.5484     1.8835 </r>
       <r>     5.1374     0.9886     1.9743 </r>
       <r>     5.2292    -0.0274     1.9718 </r>
       <r>     5.3211     0.5385     2.0212 </r>
       <r>     5.4129     0.7603     2.0911 </r>
       <r>     5.5048     0.9190     2.1755 </r>
       <r>     5.5966     0.4508     2.2169 </r>
       <r>     5.6885     0.7852     2.2890 </r>
       <r>     5.7803     1.1842     2.3978 </r>
       <r>     5.8722     0.9705     2.4869 </r>
       <r>     5.9640     0.5623     2.5385 </r>
       <r>     6.0559    -0.0271     2.5361 </r>
       <r>     6.1477     0.2720     2.5610 </r>
       <r>     6.2396     0.7519     2.6301 </r>
       <r>     6.3314     0.3645     2.6636 </r>
       <r>     6.4233     1.1158     2.7661 </r>
       <r>     6.5151     0.3223     2.7957 </r>
       <r>     6.6070     0.4792     2.8397 </r>
       <r>     6.6988     0.3454     2.8714 </r>
       <r>     6.7907    -0.0432     2.8674 </r>
       <r>     6.8825     1.1766     2.9755 </r>
       <r>     6.9744     1.8834     3.1485 </r>
       <r>     7.0662     0.4909     3.1936 </r>
       <r>     7.1581     0.3211     3.2231 </r>
       <r>     7.2499    -0.0091     3.2222 </r>
       <r>     7.3418    -0.0095     3.2214 </r>
       <r>     7.4336     0.3441     3.2530 </r>
       <r>     7.5255     0.3641     3.2864 </r>
       <r>     7.6173     0.5062     3.3329 </r>
       <r>     7.7092     0.6923     3.3965 </r>
       <r>     7.8010     0.2636     3.4207 </r>
       <r>     7.8928     0.8875     3.5022 </r>
       <r>     7.9847    -0.0240     3.5000 </r>
       <r>     8.0765    -0.0006     3.5000 </r>
       <r>     8.1684     0.0194     3.5017 </r>
       <r>     8.2602     0.3889     3.5375 </r>
       <r>     8.3521     1.1794     3.6458 </r>
       <r>     8.4439     0.8665     3.7254 </r>
       <r>     8.5358     0.8674     3.8050 </r>
       <r>     8.6276     1.0048     3.8973 </r>
       <r>     8.7195     0.2075     3.9164 </r>
       <r>     8.8113     0.3063     3.9445 </r>
       <r>     8.9032     0.3096     3.9730 </r>
       <r>     8.9950    -0.0080     3.9722 </r>
       <r>     9.0869     0.0000     3.9722 </r>
       <r>     9.1787    -0.0100     3.9713 </r>
       <r>     9.2706     0.2472     3.9940 </r>
       <r>     9.3624     0.6682     4.0554 </r>
       <r>     9.4543     0.2025     4.0740 </r>
       <r>     9.5461     0.3716     4.1081 </r>
       <r>     9.6380     0.1210     4.1192 </r>
       <r>     9.7298     0.7039     4.1839 </r>
       <r>     9.8217     1.1457     4.2891 </r>
       <r>     9.9135     0.3767     4.3237 </r>
       <r>    10.0054     0.5259     4.3720 </r>
       <r>    10.0972    -0.0204     4.3701 </r>
       <r>    10.1891     0.3917     4.4061 </r>
       <r>    10.2809     0.5243     4.4543 </r>
       <r>    10.3727     0.2844     4.4804 </r>
       <r>    10.4646     0.0120     4.4815 </r>
       <r>    10.5564    -0.0003     4.4815 </r>
       <r>    10.6483     0.0000     4.4815 </r>
       <r>    10.7401    -0.0109     4.4805 </r>
       <r>    10.8320     0.2788     4.5061 </r>
       <r>    10.9238     0.6294     4.5639 </r>
       <r>    11.0157     0.4852     4.6085 </r>
       <r>    11.1075     1.1179     4.7111 </r>
       <r>    11.1994     0.9439     4.7978 </r>
       <r>    11.2912     1.1404     4.9026 </r>
       <r>    11.3831     0.2622     4.9267 </r>
       <r>    11.4749     0.1517     4.9406 </r>
       <r>    11.5668     0.6704     5.0022 </r>
       <r>    11.6586    -0.0090     5.0013 </r>
       <r>    11.7505     0.5315     5.0502 </r>
       <r>    11.8423     0.2621     5.0742 </r>
       <r>    11.9342     0.4769     5.1180 </r>
       <r>    12.0260     0.3869     5.1536 </r>
       <r>    12.1179     1.0078     5.2461 </r>
       <r>    12.2097     1.1975     5.3561 </r>
       <r>    12.3016     0.3684     5.3899 </r>
       <r>    12.3934     0.0215     5.3919 </r>
       <r>    12.4853     0.2799     5.4176 </r>
       <r>    12.5771    -0.0105     5.4167 </r>
       <r>    12.6690    -0.0157     5.4152 </r>
       <r>    12.7608     0.4632     5.4578 </r>
       <r>    12.8527     0.1595     5.4724 </r>
       <r>    12.9445     0.0472     5.4768 </r>
       <r>    13.0363     0.2372     5.4985 </r>
       <r>    13.1282     0.6996     5.5628 </r>
       <r>    13.2200     0.7841     5.6348 </r>
       <r>    13.3119     0.3894     5.6706 </r>
       <r>    13.4037     0.2703     5.6954 </r>
       <r>    13.4956    -0.0259     5.6930 </r>
       <r>    13.5874     0.4496     5.7343 </r>
       <r>    13.6793     0.4020     5.7713 </r>
       <r>    13.7711     0.0715     5.7778 </r>
       <r>    13.8630     0.0359     5.7811 </r>
       <r>    13.9548     0.9028     5.8640 </r>
       <r>    14.0467     0.2780     5.8896 </r>
       <r>    14.1385    -0.0075     5.8889 </r>
       <r>    14.2304     0.0000     5.8889 </r>
       <r>    14.3222    -0.0002     5.8889 </r>
       <r>    14.4141    -0.0062     5.8883 </r>
       <r>    14.5059     0.6221     5.9454 </r>
       <r>    14.5978    -0.0106     5.9445 </r>
       <r>    14.6896    -0.0002     5.9444 </r>
       <r>    14.7815     0.0000     5.9444 </r>
       <r>    14.8733     0.0000     5.9444 </r>
       <r>    14.9652     0.0000     5.9444 </r>
       <r>    15.0570    -0.0012     5.9443 </r>
       <r>    15.1489     0.0615     5.9500 </r>
       <r>    15.2407     0.8152     6.0249 </r>
       <r>    15.3326     0.3446     6.0565 </r>
       <r>    15.4244    -0.0207     6.0546 </r>
       <r>    15.5163     0.3645     6.0881 </r>
       <r>    15.6081     0.2556     6.1116 </r>
       <r>    15.6999     0.0442     6.1156 </r>
       <r>    15.7918     0.2710     6.1405 </r>
       <r>    15.8836     0.5809     6.1939 </r>
       <r>    15.9755     0.6316     6.2519 </r>
       <r>    16.0673    -0.0262     6.2495 </r>
       <r>    16.1592     0.3110     6.2780 </r>
       <r>    16.2510    -0.0028     6.2778 </r>
       <r>    16.3429    -0.0002     6.2778 </r>
       <r>    16.4347    -0.0077     6.2771 </r>
       <r>    16.5266     0.3094     6.3055 </r>
       <r>    16.6184     0.6341     6.3637 </r>
       <r>    16.7103     0.0586     6.3691 </r>
       <r>    16.8021     0.4861     6.4138 </r>
       <r>    16.8940     0.2041     6.4325 </r>
       <r>    16.9858     0.5542     6.4834 </r>
       <r>    17.0777    -0.0280     6.4808 </r>
       <r>    17.1695     0.2918     6.5076 </r>
       <r>    17.2614     0.3289     6.5378 </r>
       <r>    17.3532    -0.0107     6.5368 </r>
       <r>    17.4451     0.1052     6.5465 </r>
       <r>    17.5369     0.5197     6.5942 </r>
       <r>    17.6288    -0.0277     6.5917 </r>
       <r>    17.7206     0.3047     6.6197 </r>
       <r>    17.8125    -0.0097     6.6188 </r>
       <r>    17.9043     0.6157     6.6754 </r>
       <r>    17.9962     0.0066     6.6760 </r>
       <r>    18.0880    -0.0112     6.6749 </r>
       <r>    18.1798     0.3076     6.7032 </r>
       <r>    18.2717     0.2983     6.7306 </r>
       <r>    18.3635     0.5332     6.7795 </r>
       <r>    18.4554     0.0677     6.7858 </r>
       <r>    18.5472     0.4718     6.8291 </r>
       <r>    18.6391     0.2934     6.8560 </r>
       <r>    18.7309     0.3615     6.8892 </r>
       <r>    18.8228     0.2044     6.9080 </r>
       <r>    18.9146    -0.0084     6.9072 </r>
       <r>    19.0065     0.3607     6.9404 </r>
       <r>    19.0983     0.1174     6.9512 </r>
       <r>    19.1902     0.2002     6.9695 </r>
       <r>    19.2820     0.4471     7.0106 </r>
       <r>    19.3739    -0.0147     7.0093 </r>
       <r>    19.4657    -0.0062     7.0087 </r>
       <r>    19.5576     0.2027     7.0273 </r>
       <r>    19.6494     0.0785     7.0345 </r>
       <r>    19.7413     0.5904     7.0887 </r>
       <r>    19.8331     9.0940     7.9240 </r>
       <r>    19.9250     2.2204     8.1279 </r>
       <r>    20.0168     0.4222     8.1667 </r>
       <r>    20.1087     1.1172     8.2693 </r>
       <r>    20.2005     0.5168     8.3168 </r>
       <r>    20.2924     0.6609     8.3775 </r>
       <r>    20.3842     0.3083     8.4058 </r>
       <r>    20.4761     0.5406     8.4555 </r>
       <r>    20.5679    -0.0229     8.4534 </r>
       <r>    20.6598     0.1488     8.4670 </r>
       <r>    20.7516     0.1615     8.4819 </r>
       <r>    20.8434    -0.0042     8.4815 </r>
       <r>    20.9353    -0.0007     8.4814 </r>
       <r>    21.0271     0.0294     8.4841 </r>
       <r>    21.1190     0.5891     8.5382 </r>
       <r>    21.2108     0.1681     8.5537 </r>
       <r>    21.3027     0.7447     8.6221 </r>
       <r>    21.3945     0.2175     8.6420 </r>
       <r>    21.4864     0.0625     8.6478 </r>
       <r>    21.5782     0.1846     8.6647 </r>
       <r>    21.6701     0.1183     8.6756 </r>
       <r>    21.7619     0.1899     8.6930 </r>
       <r>    21.8538     0.5293     8.7416 </r>
       <r>    21.9456     0.4995     8.7875 </r>
       <r>    22.0375     0.1367     8.8001 </r>
       <r>    22.1293     0.1628     8.8150 </r>
       <r>    22.2212     0.0993     8.8241 </r>
       <r>    22.3130    -0.0069     8.8235 </r>
       <r>    22.4049     0.2570     8.8471 </r>
       <r>    22.4967     0.4675     8.8901 </r>
       <r>    22.5886     0.0897     8.8983 </r>
       <r>    22.6804     0.2064     8.9173 </r>
       <r>    22.7723    -0.0064     8.9167 </r>
       <r>    22.8641    -0.0107     8.9157 </r>
       <r>    22.9560     0.2934     8.9426 </r>
       <r>    23.0478     0.0514     8.9474 </r>
       <r>    23.1397     0.5943     9.0019 </r>
       <r>    23.2315    -0.0211     9.0000 </r>
       <r>    23.3234    -0.0001     9.0000 </r>
       <r>    23.4152     0.0000     9.0000 </r>
       <r>    23.5070     0.0000     9.0000 </r>
       <r>    23.5989     0.0000     9.0000 </r>
       <r>    23.6907     0.0000     9.0000 </r>
       <r>    23.7826     0.0000     9.0000 </r>
       <r>    23.8744     0.0000     9.0000 </r>
       <r>    23.9663     0.0000     9.0000 </r>
       <r>    24.0581     0.0000     9.0000 </r>
       <r>    24.1500     0.0000     9.0000 </r>
       <r>    24.2418     0.0000     9.0000 </r>
       <r>    24.3337     0.0000     9.0000 </r>
      </set>
      <set comment="spin 2">
       <r>    -3.2208     0.0000     0.0000 </r>
       <r>    -3.1289     0.0000     0.0000 </r>
       <r>    -3.0371     0.0000     0.0000 </r>
       <r>    -2.9452     0.0000     0.0000 </r>
       <r>    -2.8534     0.0000     0.0000 </r>
       <r>    -2.7615     0.0000     0.0000 </r>
       <r>    -2.6697     0.0000     0.0000 </r>
       <r>    -2.5779     0.0000     0.0000 </r>
       <r>    -2.4860     0.0000     0.0000 </r>
       <r>    -2.3942     0.0000     0.0000 </r>
       <r>    -2.3023     0.0000     0.0000 </r>
       <r>    -2.2105     0.0000     0.0000 </r>
       <r>    -2.1186     0.0000     0.0000 </r>
       <r>    -2.0268    -0.0035    -0.0003 </r>
       <r>    -1.9349     0.0991     0.0088 </r>
       <r>    -1.8431     0.0053     0.0093 </r>
       <r>    -1.7512    -0.0001     0.0093 </r>
       <r>    -1.6594     0.0000     0.0093 </r>
       <r>    -1.5675     0.0000     0.0093 </r>
       <r>    -1.4757     0.0000     0.0093 </r>
       <r>    -1.3838    -0.0005     0.0092 </r>
       <r>    -1.2920     0.0279     0.0118 </r>
       <r>    -1.2001     0.2857     0.0380 </r>
       <r>    -1.1083    -0.0107     0.0370 </r>
       <r>    -1.0164     0.0000     0.0370 </r>
       <r>    -0.9246     0.0000     0.0370 </r>
       <r>    -0.8327     0.0000     0.0370 </r>
       <r>    -0.7409    -0.0013     0.0369 </r>
       <r>    -0.6490     0.0692     0.0433 </r>
       <r>    -0.5572     0.2430     0.0656 </r>
       <r>    -0.4653    -0.0085     0.0648 </r>
       <r>    -0.3735     0.0000     0.0648 </r>
       <r>    -0.2816     0.0000     0.0648 </r>
       <r>    -0.1898    -0.0019     0.0646 </r>
       <r>    -0.0979     0.0972     0.0736 </r>
       <r>    -0.0061     0.2068     0.0926 </r>
       <r>     0.0857     0.1033     0.1020 </r>
       <r>     0.1776    -0.0021     0.1019 </r>
       <r>     0.2694     0.0000     0.1019 </r>
       <r>     0.3613    -0.0002     0.1018 </r>
       <r>     0.4531    -0.0118     0.1008 </r>
       <r>     0.5450     0.6218     0.1579 </r>
       <r>     0.6368    -0.0065     0.1573 </r>
       <r>     0.7287     0.0900     0.1655 </r>
       <r>     0.8205     0.2211     0.1858 </r>
       <r>     0.9124    -0.0072     0.1852 </r>
       <r>     1.0042     0.0000     0.1852 </r>
       <r>     1.0961    -0.0020     0.1850 </r>
       <r>     1.1879     0.0818     0.1925 </r>
       <r>     1.2798     0.4834     0.2369 </r>
       <r>     1.3716     0.1518     0.2509 </r>
       <r>     1.4635     0.2933     0.2778 </r>
       <r>     1.5553     0.2952     0.3049 </r>
       <r>     1.6472     0.1154     0.3155 </r>
       <r>     1.7390     0.3131     0.3443 </r>
       <r>     1.8309     1.1113     0.4463 </r>
       <r>     1.9227     0.4083     0.4838 </r>
       <r>     2.0146     0.1796     0.5003 </r>
       <r>     2.1064    -0.0054     0.4998 </r>
       <r>     2.1983     0.1019     0.5092 </r>
       <r>     2.2901     0.8299     0.5854 </r>
       <r>     2.3820     0.5873     0.6394 </r>
       <r>     2.4738     0.1988     0.6576 </r>
       <r>     2.5656     0.7389     0.7255 </r>
       <r>     2.6575     0.2597     0.7493 </r>
       <r>     2.7493     0.6938     0.8131 </r>
       <r>     2.8412     0.2258     0.8338 </r>
       <r>     2.9330    -0.0058     0.8333 </r>
       <r>     3.0249     0.0068     0.8339 </r>
       <r>     3.1167     1.2148     0.9455 </r>
       <r>     3.2086     0.1922     0.9631 </r>
       <r>     3.3004     1.0937     1.0636 </r>
       <r>     3.3923     0.5378     1.1130 </r>
       <r>     3.4841     0.0394     1.1166 </r>
       <r>     3.5760     0.5916     1.1709 </r>
       <r>     3.6678     0.2567     1.1945 </r>
       <r>     3.7597     0.2902     1.2212 </r>
       <r>     3.8515     0.0831     1.2288 </r>
       <r>     3.9434     0.8275     1.3048 </r>
       <r>     4.0352     0.0120     1.3059 </r>
       <r>     4.1271     1.8345     1.4744 </r>
       <r>     4.2189     0.0790     1.4817 </r>
       <r>     4.3108     0.5589     1.5330 </r>
       <r>     4.4026     0.2560     1.5565 </r>
       <r>     4.4945    -0.0209     1.5546 </r>
       <r>     4.5863     0.3086     1.5829 </r>
       <r>     4.6782     0.9230     1.6677 </r>
       <r>     4.7700     0.5858     1.7215 </r>
       <r>     4.8619     0.8827     1.8026 </r>
       <r>     4.9537     0.3186     1.8319 </r>
       <r>     5.0456     0.7072     1.8968 </r>
       <r>     5.1374     0.8450     1.9744 </r>
       <r>     5.2292     0.0009     1.9745 </r>
       <r>     5.3211     0.5772     2.0275 </r>
       <r>     5.4129     0.8375     2.1044 </r>
       <r>     5.5048     0.7892     2.1769 </r>
       <r>     5.5966     0.5256     2.2252 </r>
       <r>     5.6885     0.8513     2.3034 </r>
       <r>     5.7803     1.0314     2.3981 </r>
       <r>     5.8722     1.1652     2.5051 </r>
       <r>     5.9640     0.3561     2.5378 </r>
       <r>     6.0559    -0.0123     2.5367 </r>
       <r>     6.1477     0.2931     2.5636 </r>
       <r>     6.2396     0.7734     2.6347 </r>
       <r>     6.3314     0.4051     2.6719 </r>
       <r>     6.4233     1.0987     2.7728 </r>
       <r>     6.5151     0.2533     2.7961 </r>
       <r>     6.6070     0.5307     2.8448 </r>
       <r>     6.6988     0.2890     2.8713 </r>
       <r>     6.7907    -0.0416     2.8675 </r>
       <r>     6.8825     1.4697     3.0025 </r>
       <r>     6.9744     1.6668     3.1556 </r>
       <r>     7.0662     0.4428     3.1963 </r>
       <r>     7.1581     0.2934     3.2232 </r>
       <r>     7.2499    -0.0109     3.2222 </r>
       <r>     7.3418    -0.0128     3.2210 </r>
       <r>     7.4336     0.4100     3.2587 </r>
       <r>     7.5255     0.3625     3.2920 </r>
       <r>     7.6173     0.4364     3.3321 </r>
       <r>     7.7092     0.7873     3.4044 </r>
       <r>     7.8010     0.2158     3.4242 </r>
       <r>     7.8928     0.8526     3.5025 </r>
       <r>     7.9847    -0.0275     3.5000 </r>
       <r>     8.0765    -0.0020     3.4998 </r>
       <r>     8.1684     0.0903     3.5081 </r>
       <r>     8.2602     0.3856     3.5435 </r>
       <r>     8.3521     1.1722     3.6512 </r>
       <r>     8.4439     0.8680     3.7309 </r>
       <r>     8.5358     0.8291     3.8071 </r>
       <r>     8.6276     1.0583     3.9043 </r>
       <r>     8.7195     0.1255     3.9158 </r>
       <r>     8.8113     0.3994     3.9525 </r>
       <r>     8.9032     0.2197     3.9727 </r>
       <r>     8.9950    -0.0048     3.9722 </r>
       <r>     9.0869     0.0000     3.9722 </r>
       <r>     9.1787    -0.0108     3.9712 </r>
       <r>     9.2706     0.2703     3.9961 </r>
       <r>     9.3624     0.6841     4.0589 </r>
       <r>     9.4543     0.1745     4.0749 </r>
       <r>     9.5461     0.3903     4.1108 </r>
       <r>     9.6380     0.0815     4.1183 </r>
       <r>     9.7298     0.9588     4.2063 </r>
       <r>     9.8217     0.8885     4.2879 </r>
       <r>     9.9135     0.4557     4.3298 </r>
       <r>    10.0054     0.4563     4.3717 </r>
       <r>    10.0972    -0.0039     4.3713 </r>
       <r>    10.1891     0.4371     4.4115 </r>
       <r>    10.2809     0.4678     4.4544 </r>
       <r>    10.3727     0.2920     4.4813 </r>
       <r>    10.4646     0.0025     4.4815 </r>
       <r>    10.5564    -0.0002     4.4815 </r>
       <r>    10.6483     0.0000     4.4815 </r>
       <r>    10.7401    -0.0099     4.4806 </r>
       <r>    10.8320     0.3079     4.5088 </r>
       <r>    10.9238     0.6043     4.5644 </r>
       <r>    11.0157     0.6310     4.6223 </r>
       <r>    11.1075     1.0551     4.7192 </r>
       <r>    11.1994     0.9594     4.8073 </r>
       <r>    11.2912     1.0703     4.9057 </r>
       <r>    11.3831     0.2249     4.9263 </r>
       <r>    11.4749     0.2490     4.9492 </r>
       <r>    11.5668     0.5707     5.0016 </r>
       <r>    11.6586     0.0256     5.0039 </r>
       <r>    11.7505     0.5273     5.0524 </r>
       <r>    11.8423     0.2745     5.0776 </r>
       <r>    11.9342     0.4780     5.1215 </r>
       <r>    12.0260     0.4120     5.1593 </r>
       <r>    12.1179     1.1489     5.2649 </r>
       <r>    12.2097     1.0827     5.3643 </r>
       <r>    12.3016     0.2737     5.3894 </r>
       <r>    12.3934     0.0596     5.3949 </r>
       <r>    12.4853     0.2454     5.4175 </r>
       <r>    12.5771    -0.0087     5.4167 </r>
       <r>    12.6690    -0.0197     5.4149 </r>
       <r>    12.7608     0.5325     5.4638 </r>
       <r>    12.8527     0.0917     5.4722 </r>
       <r>    12.9445     0.0999     5.4814 </r>
       <r>    13.0363     0.1804     5.4979 </r>
       <r>    13.1282     0.8137     5.5727 </r>
       <r>    13.2200     0.7354     5.6402 </r>
       <r>    13.3119     0.3562     5.6729 </r>
       <r>    13.4037     0.2435     5.6953 </r>
       <r>    13.4956    -0.0284     5.6927 </r>
       <r>    13.5874     0.5133     5.7398 </r>
       <r>    13.6793     0.3737     5.7742 </r>
       <r>    13.7711     0.0384     5.7777 </r>
       <r>    13.8630     0.0872     5.7857 </r>
       <r>    13.9548     0.9577     5.8737 </r>
       <r>    14.0467     0.1697     5.8892 </r>
       <r>    14.1385    -0.0038     5.8889 </r>
       <r>    14.2304     0.0000     5.8889 </r>
       <r>    14.3222    -0.0008     5.8888 </r>
       <r>    14.4141     0.0417     5.8926 </r>
       <r>    14.5059     0.5854     5.9464 </r>
       <r>    14.5978    -0.0214     5.9444 </r>
       <r>    14.6896     0.0000     5.9444 </r>
       <r>    14.7815     0.0000     5.9444 </r>
       <r>    14.8733     0.0000     5.9444 </r>
       <r>    14.9652     0.0000     5.9444 </r>
       <r>    15.0570    -0.0021     5.9442 </r>
       <r>    15.1489     0.1100     5.9544 </r>
       <r>    15.2407     0.8278     6.0304 </r>
       <r>    15.3326     0.2815     6.0562 </r>
       <r>    15.4244    -0.0222     6.0542 </r>
       <r>    15.5163     0.4475     6.0953 </r>
       <r>    15.6081     0.1740     6.1113 </r>
       <r>    15.6999     0.0745     6.1181 </r>
       <r>    15.7918     0.2528     6.1413 </r>
       <r>    15.8836     0.7745     6.2125 </r>
       <r>    15.9755     0.4194     6.2510 </r>
       <r>    16.0673    -0.0100     6.2501 </r>
       <r>    16.1592     0.3094     6.2785 </r>
       <r>    16.2510    -0.0078     6.2778 </r>
       <r>    16.3429    -0.0003     6.2778 </r>
       <r>    16.4347     0.0037     6.2781 </r>
       <r>    16.5266     0.3267     6.3081 </r>
       <r>    16.6184     0.6166     6.3647 </r>
       <r>    16.7103     0.0434     6.3687 </r>
       <r>    16.8021     0.5558     6.4198 </r>
       <r>    16.8940     0.2225     6.4402 </r>
       <r>    16.9858     0.4652     6.4829 </r>
       <r>    17.0777    -0.0272     6.4804 </r>
       <r>    17.1695     0.3859     6.5159 </r>
       <r>    17.2614     0.2355     6.5375 </r>
       <r>    17.3532    -0.0081     6.5368 </r>
       <r>    17.4451     0.1468     6.5502 </r>
       <r>    17.5369     0.4774     6.5941 </r>
       <r>    17.6288    -0.0229     6.5920 </r>
       <r>    17.7206     0.3104     6.6205 </r>
       <r>    17.8125    -0.0067     6.6199 </r>
       <r>    17.9043     0.6218     6.6770 </r>
       <r>    17.9962    -0.0116     6.6759 </r>
       <r>    18.0880    -0.0033     6.6756 </r>
       <r>    18.1798     0.3276     6.7057 </r>
       <r>    18.2717     0.2718     6.7307 </r>
       <r>    18.3635     0.5992     6.7857 </r>
       <r>    18.4554    -0.0067     6.7851 </r>
       <r>    18.5472     0.5829     6.8387 </r>
       <r>    18.6391     0.2280     6.8596 </r>
       <r>    18.7309     0.3669     6.8933 </r>
       <r>    18.8228     0.1576     6.9078 </r>
       <r>    18.9146     0.0069     6.9084 </r>
       <r>    19.0065     0.3591     6.9414 </r>
       <r>    19.0983     0.1255     6.9529 </r>
       <r>    19.1902     0.2386     6.9748 </r>
       <r>    19.2820     0.3862     7.0103 </r>
       <r>    19.3739    -0.0114     7.0093 </r>
       <r>    19.4657    -0.0078     7.0085 </r>
       <r>    19.5576     0.2309     7.0298 </r>
       <r>    19.6494     0.0372     7.0332 </r>
       <r>    19.7413     1.0052     7.1255 </r>
       <r>    19.8331    10.0423     8.0479 </r>
       <r>    19.9250     0.8550     8.1264 </r>
       <r>    20.0168     0.6296     8.1842 </r>
       <r>    20.1087     1.0719     8.2827 </r>
       <r>    20.2005     0.4331     8.3225 </r>
       <r>    20.2924     0.6386     8.3811 </r>
       <r>    20.3842     0.3891     8.4168 </r>
       <r>    20.4761     0.4149     8.4550 </r>
       <r>    20.5679    -0.0211     8.4530 </r>
       <r>    20.6598     0.2243     8.4736 </r>
       <r>    20.7516     0.0872     8.4816 </r>
       <r>    20.8434    -0.0017     8.4815 </r>
       <r>    20.9353    -0.0016     8.4813 </r>
       <r>    21.0271     0.0793     8.4886 </r>
       <r>    21.1190     0.5402     8.5382 </r>
       <r>    21.2108     0.2464     8.5609 </r>
       <r>    21.3027     0.6602     8.6215 </r>
       <r>    21.3945     0.2392     8.6435 </r>
       <r>    21.4864     0.0443     8.6476 </r>
       <r>    21.5782     0.2231     8.6680 </r>
       <r>    21.6701     0.0771     8.6751 </r>
       <r>    21.7619     0.2636     8.6993 </r>
       <r>    21.8538     0.4560     8.7412 </r>
       <r>    21.9456     0.5076     8.7878 </r>
       <r>    22.0375     0.2001     8.8062 </r>
       <r>    22.1293     0.0944     8.8149 </r>
       <r>    22.2212     0.1018     8.8242 </r>
       <r>    22.3130    -0.0151     8.8228 </r>
       <r>    22.4049     0.4508     8.8643 </r>
       <r>    22.4967     0.2702     8.8891 </r>
       <r>    22.5886     0.1588     8.9037 </r>
       <r>    22.6804     0.1452     8.9170 </r>
       <r>    22.7723    -0.0037     8.9167 </r>
       <r>    22.8641     0.0002     8.9167 </r>
       <r>    22.9560     0.3071     8.9449 </r>
       <r>    23.0478     0.1394     8.9577 </r>
       <r>    23.1397     0.4772     9.0015 </r>
       <r>    23.2315    -0.0165     9.0000 </r>
       <r>    23.3234     0.0000     9.0000 </r>
       <r>    23.4152     0.0000     9.0000 </r>
       <r>    23.5070     0.0000     9.0000 </r>
       <r>    23.5989     0.0000     9.0000 </r>
       <r>    23.6907     0.0000     9.0000 </r>
       <r>    23.7826     0.0000     9.0000 </r>
       <r>    23.8744     0.0000     9.0000 </r>
       <r>    23.9663     0.0000     9.0000 </r>
       <r>    24.0581     0.0000     9.0000 </r>
       <r>    24.1500     0.0000     9.0000 </r>
       <r>    24.2418     0.0000     9.0000 </r>
       <r>    24.3337     0.0000     9.0000 </r>
      </set>
     </set>
    </array>
   </total>
   <partial>
    <array>
     <dimension dim="1">gridpoints</dimension>
     <dimension dim="2">spin</dimension>
     <dimension dim="3">ion</dimension>
     <field>energy</field>
     <field>  s</field>
     <field> py</field>
     <field> pz</field>
     <field> px</field>
     <field>dxy</field>
     <field>dyz</field>
     <field>dz2</field>
     <field>dxz</field>
     <field>dx2</field>
     <set>
      <set comment="ion 1">
       <set comment="spin 1">
        <r>    -3.2208     0.0000     0.0000     0.0000     0.0000     0.0000     0.0000     0.0000     0.0000     0.0000 </r>
        <r>    -3.1289     0.0000     0.0000     0.0000     0.0000     0.0000     0.0000     0.0000     0.0000     0.0000 </r>
        <r>    -3.0371     0.0000     0.0000     0.0000     0.0000     0.0000     0.0000     0.0000     0.0000     0.0000 </r>
        <r>    -2.9452     0.0000     0.0000     0.0000     0.0000     0.0000     0.0000     0.0000     0.0000     0.0000 </r>
        <r>    -2.8534     0.0000     0.0000     0.0000     0.0000     0.0000     0.0000     0.0000     0.0000     0.0000 </r>
        <r>    -2.7615     0.0000     0.0000     0.0000     0.0000     0.0000     0.0000     0.0000     0.0000     0.0000 </r>
        <r>    -2.6697     0.0000     0.0000     0.0000     0.0000     0.0000     0.0000     0.0000     0.0000     0.0000 </r>
        <r>    -2.5779     0.0000     0.0000     0.0000     0.0000     0.0000     0.0000     0.0000     0.0000     0.0000 </r>
        <r>    -2.4860     0.0000     0.0000     0.0000     0.0000     0.0000     0.0000     0.0000     0.0000     0.0000 </r>
        <r>    -2.3942     0.0000     0.0000     0.0000     0.0000     0.0000     0.0000     0.0000     0.0000     0.0000 </r>
        <r>    -2.3023     0.0000     0.0000     0.0000     0.0000     0.0000     0.0000     0.0000     0.0000     0.0000 </r>
        <r>    -2.2105     0.0000     0.0000     0.0000     0.0000     0.0000     0.0000     0.0000     0.0000     0.0000 </r>
        <r>    -2.1186     0.0000     0.0000     0.0000     0.0000     0.0000     0.0000     0.0000     0.0000     0.0000 </r>
        <r>    -2.0268    -0.0029     0.0000     0.0000     0.0000     0.0000     0.0000     0.0000     0.0000     0.0000 </r>
        <r>    -1.9349     0.0772     0.0007     0.0007     0.0007     0.0000     0.0000     0.0000     0.0000     0.0000 </r>
        <r>    -1.8431     0.0093     0.0001     0.0001     0.0001     0.0000     0.0000     0.0000     0.0000     0.0000 </r>
        <r>    -1.7512    -0.0002     0.0000     0.0000     0.0000     0.0000     0.0000     0.0000     0.0000     0.0000 </r>
        <r>    -1.6594     0.0000     0.0000     0.0000     0.0000     0.0000     0.0000     0.0000     0.0000     0.0000 </r>
        <r>    -1.5675     0.0000     0.0000     0.0000     0.0000     0.0000     0.0000     0.0000     0.0000     0.0000 </r>
        <r>    -1.4757     0.0000     0.0000     0.0000     0.0000     0.0000     0.0000     0.0000     0.0000     0.0000 </r>
        <r>    -1.3838    -0.0002     0.0000     0.0000     0.0000     0.0000     0.0000     0.0000     0.0000     0.0000 </r>
        <r>    -1.2920     0.0083     0.0001     0.0001     0.0006     0.0000     0.0000     0.0000     0.0000     0.0000 </r>
        <r>    -1.2001     0.2361     0.0019     0.0019     0.0182     0.0007     0.0001     0.0002     0.0007     0.0007 </r>
        <r>    -1.1083    -0.0079    -0.0001    -0.0001    -0.0006     0.0000     0.0000     0.0000     0.0000     0.0000 </r>
        <r>    -1.0164     0.0000     0.0000     0.0000     0.0000     0.0000     0.0000     0.0000     0.0000     0.0000 </r>
        <r>    -0.9246     0.0000     0.0000     0.0000     0.0000     0.0000     0.0000     0.0000     0.0000     0.0000 </r>
        <r>    -0.8327     0.0000     0.0000     0.0000     0.0000     0.0000     0.0000     0.0000     0.0000     0.0000 </r>
        <r>    -0.7409    -0.0005     0.0000     0.0000     0.0000     0.0000     0.0000     0.0000     0.0000     0.0000 </r>
        <r>    -0.6490     0.0295     0.0021     0.0021     0.0002     0.0001     0.0008     0.0000     0.0001     0.0001 </r>
        <r>    -0.5572     0.2009     0.0146     0.0146     0.0013     0.0010     0.0054     0.0001     0.0010     0.0004 </r>
        <r>    -0.4653    -0.0075    -0.0005    -0.0005     0.0000     0.0000    -0.0002     0.0000     0.0000     0.0000 </r>
        <r>    -0.3735     0.0000     0.0000     0.0000     0.0000     0.0000     0.0000     0.0000     0.0000     0.0000 </r>
        <r>    -0.2816     0.0000     0.0000     0.0000     0.0000     0.0000     0.0000     0.0000     0.0000     0.0000 </r>
        <r>    -0.1898    -0.0023    -0.0001    -0.0001    -0.0001    -0.0001    -0.0001     0.0000    -0.0001     0.0000 </r>
        <r>    -0.0979     0.0660     0.0040     0.0034     0.0040     0.0031     0.0031    -0.0002     0.0031     0.0000 </r>
        <r>    -0.0061     0.1153     0.0010     0.0247     0.0010     0.0003     0.0010     0.0064     0.0010     0.0000 </r>
        <r>     0.0857     0.0967     0.0007     0.0210     0.0007     0.0002     0.0007     0.0055     0.0007     0.0000 </r>
        <r>     0.1776    -0.0023     0.0000    -0.0005     0.0000     0.0000     0.0000    -0.0001     0.0000     0.0000 </r>
        <r>     0.2694     0.0000     0.0000     0.0000     0.0000     0.0000     0.0000     0.0000     0.0000     0.0000 </r>
        <r>     0.3613     0.0000     0.0000     0.0000     0.0000     0.0000     0.0000     0.0000     0.0000     0.0000 </r>
        <r>     0.4531    -0.0129    -0.0009    -0.0001    -0.0027    -0.0010    -0.0002    -0.0002    -0.0002    -0.0003 </r>
        <r>     0.5450     0.3831     0.0253     0.0015     0.0794     0.0284     0.0054     0.0052     0.0053     0.0076 </r>
        <r>     0.6368     0.0134     0.0009     0.0000     0.0028     0.0010     0.0001     0.0002     0.0001     0.0003 </r>
        <r>     0.7287     0.0297     0.0010     0.0011     0.0049     0.0036     0.0034     0.0001     0.0036     0.0004 </r>
[...]
        <r>  0.0005 </r>
       </set>
       <set comment="band 3">
        <r>  0.0017 </r>
       </set>
       <set comment="band 4">
        <r>  0.0000 </r>
       </set>
       <set comment="band 5">
        <r>  0.0000 </r>
       </set>
       <set comment="band 6">
        <r>  0.0924 </r>
       </set>
       <set comment="band 7">
        <r>  0.3982 </r>
       </set>
       <set comment="band 8">
        <r> 43.9990 </r>
       </set>
       <set comment="band 9">
        <r>  0.0010 </r>
       </set>
      </set>
     </set>
     <set comment="spin2">
      <set comment="kpoint 1">
       <set comment="band 1">
        <r>  0.8289 </r>
       </set>
       <set comment="band 2">
        <r>  0.0000 </r>
       </set>
       <set comment="band 3">
        <r>  0.0000 </r>
       </set>
       <set comment="band 4">
        <r>  0.0000 </r>
       </set>
       <set comment="band 5">
        <r>  0.0000 </r>
       </set>
       <set comment="band 6">
        <r>  0.0000 </r>
       </set>
       <set comment="band 7">
        <r>  0.0001 </r>
       </set>
       <set comment="band 8">
        <r> 43.8228 </r>
       </set>
       <set comment="band 9">
        <r>  0.0668 </r>
       </set>
      </set>
      <set comment="kpoint 2">
       <set comment="band 1">
        <r>  0.7367 </r>
       </set>
       <set comment="band 2">
        <r>  0.0014 </r>
       </set>
       <set comment="band 3">
        <r>  0.0000 </r>
       </set>
       <set comment="band 4">
        <r>  0.0000 </r>
       </set>
       <set comment="band 5">
        <r>  0.0000 </r>
       </set>
       <set comment="band 6">
        <r>  0.0041 </r>
       </set>
       <set comment="band 7">
        <r> 39.5493 </r>
       </set>
       <set comment="band 8">
        <r>  4.3270 </r>
       </set>
       <set comment="band 9">
        <r>  0.0454 </r>
       </set>
      </set>
      <set comment="kpoint 3">
       <set comment="band 1">
        <r>  0.4718 </r>
       </set>
       <set comment="band 2">
        <r>  0.0371 </r>
       </set>
       <set comment="band 3">
        <r>  0.0043 </r>
       </set>
       <set comment="band 4">
        <r>  0.0000 </r>
       </set>
       <set comment="band 5">
        <r>  0.0000 </r>
       </set>
       <set comment="band 6">
        <r>  0.0113 </r>
       </set>
       <set comment="band 7">
        <r>  0.1725 </r>
       </set>
       <set comment="band 8">
        <r> 43.0448 </r>
       </set>
       <set comment="band 9">
        <r>  1.0769 </r>
       </set>
      </set>
      <set comment="kpoint 4">
       <set comment="band 1">
        <r>  0.3450 </r>
       </set>
       <set comment="band 2">
        <r>  0.0004 </r>
       </set>
       <set comment="band 3">
        <r>  0.0000 </r>
       </set>
       <set comment="band 4">
        <r>  0.0058 </r>
       </set>
       <set comment="band 5">
        <r>  0.0000 </r>
       </set>
       <set comment="band 6">
        <r>  0.0000 </r>
       </set>
       <set comment="band 7">
        <r>  0.4498 </r>
       </set>
       <set comment="band 8">
        <r>  0.0054 </r>
       </set>
       <set comment="band 9">
        <r> 44.0312 </r>
       </set>
      </set>
      <set comment="kpoint 5">
       <set comment="band 1">
        <r>  0.5751 </r>
       </set>
       <set comment="band 2">
        <r>  0.0228 </r>
       </set>
       <set comment="band 3">
        <r>  0.0035 </r>
       </set>
       <set comment="band 4">
        <r>  0.0000 </r>
       </set>
       <set comment="band 5">
        <r>  0.0080 </r>
       </set>
       <set comment="band 6">
        <r>  0.0000 </r>
       </set>
       <set comment="band 7">
        <r>  0.0905 </r>
       </set>
       <set comment="band 8">
        <r> 43.7441 </r>
       </set>
       <set comment="band 9">
        <r>  0.3269 </r>
       </set>
      </set>
      <set comment="kpoint 6">
       <set comment="band 1">
        <r>  0.7826 </r>
       </set>
       <set comment="band 2">
        <r>  0.0002 </r>
       </set>
       <set comment="band 3">
        <r>  0.0000 </r>
       </set>
       <set comment="band 4">
        <r>  0.0000 </r>
       </set>
       <set comment="band 5">
        <r>  0.0033 </r>
       </set>
       <set comment="band 6">
        <r>  0.0000 </r>
       </set>
       <set comment="band 7">
        <r> 43.7068 </r>
       </set>
       <set comment="band 8">
        <r>  0.0364 </r>
       </set>
       <set comment="band 9">
        <r>  0.1508 </r>
       </set>
      </set>
      <set comment="kpoint 7">
       <set comment="band 1">
        <r>  0.6774 </r>
       </set>
       <set comment="band 2">
        <r>  0.0003 </r>
       </set>
       <set comment="band 3">
        <r>  0.0154 </r>
       </set>
       <set comment="band 4">
        <r>  0.0000 </r>
       </set>
       <set comment="band 5">
        <r>  0.0105 </r>
       </set>
       <set comment="band 6">
        <r>  0.0000 </r>
       </set>
       <set comment="band 7">
        <r> 43.6418 </r>
       </set>
       <set comment="band 8">
        <r>  0.2203 </r>
       </set>
       <set comment="band 9">
        <r>  0.0123 </r>
       </set>
      </set>
      <set comment="kpoint 8">
       <set comment="band 1">
        <r>  0.4497 </r>
       </set>
       <set comment="band 2">
        <r>  0.0032 </r>
       </set>
       <set comment="band 3">
        <r>  0.0507 </r>
       </set>
       <set comment="band 4">
        <r>  0.0039 </r>
       </set>
       <set comment="band 5">
        <r>  0.0076 </r>
       </set>
       <set comment="band 6">
        <r>  0.0223 </r>
       </set>
       <set comment="band 7">
        <r>  0.6929 </r>
       </set>
       <set comment="band 8">
        <r> 43.3851 </r>
       </set>
       <set comment="band 9">
        <r>  0.0842 </r>
       </set>
      </set>
      <set comment="kpoint 9">
       <set comment="band 1">
        <r>  0.2322 </r>
       </set>
       <set comment="band 2">
        <r>  0.0012 </r>
       </set>
       <set comment="band 3">
        <r>  0.0152 </r>
       </set>
       <set comment="band 4">
        <r>  0.0011 </r>
       </set>
       <set comment="band 5">
        <r>  0.0344 </r>
       </set>
       <set comment="band 6">
        <r>  0.0028 </r>
       </set>
       <set comment="band 7">
        <r>  0.4805 </r>
       </set>
       <set comment="band 8">
        <r> 43.9263 </r>
       </set>
       <set comment="band 9">
        <r>  0.0262 </r>
       </set>
      </set>
      <set comment="kpoint 10">
       <set comment="band 1">
        <r>  0.3864 </r>
       </set>
       <set comment="band 2">
        <r>  0.0043 </r>
       </set>
       <set comment="band 3">
        <r>  0.0186 </r>
       </set>
       <set comment="band 4">
        <r>  0.0010 </r>
       </set>
       <set comment="band 5">
        <r>  0.0001 </r>
       </set>
       <set comment="band 6">
        <r>  0.1057 </r>
       </set>
       <set comment="band 7">
        <r>  0.2136 </r>
       </set>
       <set comment="band 8">
        <r> 44.0135 </r>
       </set>
       <set comment="band 9">
        <r>  0.0003 </r>
       </set>
      </set>
      <set comment="kpoint 11">
       <set comment="band 1">
        <r>  0.6358 </r>
       </set>
       <set comment="band 2">
        <r>  0.0030 </r>
       </set>
       <set comment="band 3">
        <r>  0.0043 </r>
       </set>
       <set comment="band 4">
        <r>  0.0012 </r>
       </set>
       <set comment="band 5">
        <r>  0.0059 </r>
       </set>
       <set comment="band 6">
        <r>  0.0097 </r>
       </set>
       <set comment="band 7">
        <r> 20.0131 </r>
       </set>
       <set comment="band 8">
        <r> 23.8961 </r>
       </set>
       <set comment="band 9">
        <r>  0.0890 </r>
       </set>
      </set>
      <set comment="kpoint 12">
       <set comment="band 1">
        <r>  0.2221 </r>
       </set>
       <set comment="band 2">
        <r>  0.0001 </r>
       </set>
       <set comment="band 3">
        <r>  0.1544 </r>
       </set>
       <set comment="band 4">
        <r>  0.0000 </r>
       </set>
       <set comment="band 5">
        <r>  0.0114 </r>
       </set>
       <set comment="band 6">
        <r>  0.0000 </r>
       </set>
       <set comment="band 7">
        <r>  0.1665 </r>
       </set>
       <set comment="band 8">
        <r> 43.4852 </r>
       </set>
       <set comment="band 9">
        <r>  0.0000 </r>
       </set>
      </set>
      <set comment="kpoint 13">
       <set comment="band 1">
        <r>  0.0933 </r>
       </set>
       <set comment="band 2">
        <r>  0.0002 </r>
       </set>
       <set comment="band 3">
        <r>  0.0345 </r>
       </set>
       <set comment="band 4">
        <r>  0.0319 </r>
       </set>
       <set comment="band 5">
        <r>  0.0103 </r>
       </set>
       <set comment="band 6">
        <r>  0.0190 </r>
       </set>
       <set comment="band 7">
        <r>  0.3873 </r>
       </set>
       <set comment="band 8">
        <r>  0.0760 </r>
       </set>
       <set comment="band 9">
        <r> 43.4072 </r>
       </set>
      </set>
      <set comment="kpoint 14">
       <set comment="band 1">
        <r>  0.1037 </r>
       </set>
       <set comment="band 2">
        <r>  0.0425 </r>
       </set>
       <set comment="band 3">
        <r>  0.0015 </r>
       </set>
       <set comment="band 4">
        <r>  0.0248 </r>
       </set>
       <set comment="band 5">
        <r>  0.0220 </r>
       </set>
       <set comment="band 6">
        <r>  0.4136 </r>
       </set>
       <set comment="band 7">
        <r>  0.1007 </r>
       </set>
       <set comment="band 8">
        <r> 17.8246 </r>
       </set>
       <set comment="band 9">
        <r> 26.2389 </r>
       </set>
      </set>
      <set comment="kpoint 15">
       <set comment="band 1">
        <r>  0.3514 </r>
       </set>
       <set comment="band 2">
        <r>  0.0041 </r>
       </set>
       <set comment="band 3">
        <r>  0.0287 </r>
       </set>
       <set comment="band 4">
        <r>  0.0004 </r>
       </set>
       <set comment="band 5">
        <r>  0.0000 </r>
       </set>
       <set comment="band 6">
        <r>  0.0309 </r>
       </set>
       <set comment="band 7">
        <r>  0.3495 </r>
       </set>
       <set comment="band 8">
        <r> 43.6146 </r>
       </set>
       <set comment="band 9">
        <r>  0.4126 </r>
       </set>
      </set>
      <set comment="kpoint 16">
       <set comment="band 1">
        <r>  0.1240 </r>
       </set>
       <set comment="band 2">
        <r>  0.0000 </r>
       </set>
       <set comment="band 3">
        <r>  0.0373 </r>
       </set>
       <set comment="band 4">
        <r>  0.0000 </r>
       </set>
       <set comment="band 5">
        <r>  0.0000 </r>
       </set>
       <set comment="band 6">
        <r>  0.0017 </r>
       </set>
       <set comment="band 7">
        <r>  0.2437 </r>
       </set>
       <set comment="band 8">
        <r>  0.0000 </r>
       </set>
       <set comment="band 9">
        <r>  8.8990 </r>
       </set>
      </set>
      <set comment="kpoint 17">
       <set comment="band 1">
        <r>  0.1961 </r>
       </set>
       <set comment="band 2">
        <r>  0.0001 </r>
       </set>
       <set comment="band 3">
        <r>  0.1249 </r>
       </set>
       <set comment="band 4">
        <r>  0.0003 </r>
       </set>
       <set comment="band 5">
        <r>  0.0000 </r>
       </set>
       <set comment="band 6">
        <r>  0.0528 </r>
       </set>
       <set comment="band 7">
        <r>  0.2682 </r>
       </set>
       <set comment="band 8">
        <r> 43.6170 </r>
       </set>
       <set comment="band 9">
        <r>  0.2820 </r>
       </set>
      </set>
      <set comment="kpoint 18">
       <set comment="band 1">
        <r>  0.4718 </r>
       </set>
       <set comment="band 2">
        <r>  0.0003 </r>
       </set>
       <set comment="band 3">
        <r>  0.0918 </r>
       </set>
       <set comment="band 4">
        <r>  0.0000 </r>
       </set>
       <set comment="band 5">
        <r>  0.0117 </r>
       </set>
       <set comment="band 6">
        <r>  0.0000 </r>
       </set>
       <set comment="band 7">
        <r> 43.3513 </r>
       </set>
       <set comment="band 8">
        <r>  0.5017 </r>
       </set>
       <set comment="band 9">
        <r>  0.0000 </r>
       </set>
      </set>
      <set comment="kpoint 19">
       <set comment="band 1">
        <r>  0.6841 </r>
       </set>
       <set comment="band 2">
        <r>  0.0113 </r>
       </set>
       <set comment="band 3">
        <r>  0.0000 </r>
       </set>
       <set comment="band 4">
        <r>  0.0000 </r>
       </set>
       <set comment="band 5">
        <r>  0.0000 </r>
       </set>
       <set comment="band 6">
        <r>  0.0000 </r>
       </set>
       <set comment="band 7">
        <r>  0.0584 </r>
       </set>
       <set comment="band 8">
        <r> 43.8028 </r>
       </set>
       <set comment="band 9">
        <r>  0.1296 </r>
       </set>
      </set>
      <set comment="kpoint 20">
       <set comment="band 1">
        <r>  0.5416 </r>
       </set>
       <set comment="band 2">
        <r>  0.0085 </r>
       </set>
       <set comment="band 3">
        <r>  0.0013 </r>
       </set>
       <set comment="band 4">
        <r>  0.0000 </r>
       </set>
       <set comment="band 5">
        <r>  0.0000 </r>
       </set>
       <set comment="band 6">
        <r>  0.0350 </r>
       </set>
       <set comment="band 7">
        <r>  0.2912 </r>
       </set>
       <set comment="band 8">
        <r> 43.7396 </r>
       </set>
       <set comment="band 9">
        <r>  0.1705 </r>
       </set>
      </set>
      <set comment="kpoint 21">
       <set comment="band 1">
        <r>  0.2673 </r>
       </set>
       <set comment="band 2">
        <r>  0.0017 </r>
       </set>
       <set comment="band 3">
        <r>  0.0057 </r>
       </set>
       <set comment="band 4">
        <r>  0.0000 </r>
       </set>
       <set comment="band 5">
        <r>  0.0000 </r>
       </set>
       <set comment="band 6">
        <r>  0.3111 </r>
       </set>
       <set comment="band 7">
        <r>  0.1652 </r>
       </set>
       <set comment="band 8">
        <r> 43.9264 </r>
       </set>
       <set comment="band 9">
        <r>  0.0929 </r>
       </set>
      </set>
      <set comment="kpoint 22">
       <set comment="band 1">
        <r>  0.2058 </r>
       </set>
       <set comment="band 2">
        <r>  0.0000 </r>
       </set>
       <set comment="band 3">
        <r>  0.0855 </r>
       </set>
       <set comment="band 4">
        <r>  0.0000 </r>
       </set>
       <set comment="band 5">
        <r>  0.0000 </r>
       </set>
       <set comment="band 6">
        <r>  0.0004 </r>
       </set>
       <set comment="band 7">
        <r>  0.4236 </r>
       </set>
       <set comment="band 8">
        <r> 43.8775 </r>
       </set>
       <set comment="band 9">
        <r>  0.1141 </r>
       </set>
      </set>
      <set comment="kpoint 23">
       <set comment="band 1">
        <r>  0.4068 </r>
       </set>
       <set comment="band 2">
        <r>  0.0136 </r>
       </set>
       <set comment="band 3">
        <r>  0.0431 </r>
       </set>
       <set comment="band 4">
        <r>  0.0000 </r>
       </set>
       <set comment="band 5">
        <r>  0.0169 </r>
       </set>
       <set comment="band 6">
        <r>  0.0000 </r>
       </set>
       <set comment="band 7">
        <r>  0.2236 </r>
       </set>
       <set comment="band 8">
        <r> 43.8959 </r>
       </set>
       <set comment="band 9">
        <r>  0.1657 </r>
       </set>
      </set>
      <set comment="kpoint 24">
       <set comment="band 1">
        <r>  0.1465 </r>
       </set>
       <set comment="band 2">
        <r>  0.0271 </r>
       </set>
       <set comment="band 3">
        <r>  0.0658 </r>
       </set>
       <set comment="band 4">
        <r>  0.0091 </r>
       </set>
       <set comment="band 5">
        <r>  0.0126 </r>
       </set>
       <set comment="band 6">
        <r>  0.2461 </r>
       </set>
       <set comment="band 7">
        <r>  0.2139 </r>
       </set>
       <set comment="band 8">
        <r> 42.5025 </r>
       </set>
       <set comment="band 9">
        <r>  1.5026 </r>
       </set>
      </set>
      <set comment="kpoint 25">
       <set comment="band 1">
        <r>  0.0255 </r>
       </set>
       <set comment="band 2">
        <r>  0.0176 </r>
       </set>
       <set comment="band 3">
        <r>  0.0286 </r>
       </set>
       <set comment="band 4">
        <r>  0.1220 </r>
       </set>
       <set comment="band 5">
        <r>  0.0176 </r>
       </set>
       <set comment="band 6">
        <r>  0.4224 </r>
       </set>
       <set comment="band 7">
        <r>  0.0199 </r>
       </set>
       <set comment="band 8">
        <r>  0.0934 </r>
       </set>
       <set comment="band 9">
        <r> 44.0330 </r>
       </set>
      </set>
      <set comment="kpoint 26">
       <set comment="band 1">
        <r>  0.0946 </r>
       </set>
       <set comment="band 2">
        <r>  0.0050 </r>
       </set>
       <set comment="band 3">
        <r>  0.0221 </r>
       </set>
       <set comment="band 4">
        <r>  0.0000 </r>
       </set>
       <set comment="band 5">
        <r>  0.0000 </r>
       </set>
       <set comment="band 6">
        <r>  0.4443 </r>
       </set>
       <set comment="band 7">
        <r>  0.0780 </r>
       </set>
       <set comment="band 8">
        <r> 39.9040 </r>
       </set>
       <set comment="band 9">
        <r>  4.2323 </r>
       </set>
      </set>
      <set comment="kpoint 27">
       <set comment="band 1">
        <r>  0.4040 </r>
       </set>
       <set comment="band 2">
        <r>  0.0340 </r>
       </set>
       <set comment="band 3">
        <r>  0.0000 </r>
       </set>
       <set comment="band 4">
        <r>  0.0000 </r>
       </set>
       <set comment="band 5">
        <r>  0.0000 </r>
       </set>
       <set comment="band 6">
        <r>  0.0000 </r>
       </set>
       <set comment="band 7">
        <r>  0.2770 </r>
       </set>
       <set comment="band 8">
        <r>  0.1213 </r>
       </set>
       <set comment="band 9">
        <r> 44.0211 </r>
       </set>
      </set>
      <set comment="kpoint 28">
       <set comment="band 1">
        <r>  0.2931 </r>
       </set>
       <set comment="band 2">
        <r>  0.0005 </r>
       </set>
       <set comment="band 3">
        <r>  0.0017 </r>
       </set>
       <set comment="band 4">
        <r>  0.0000 </r>
       </set>
       <set comment="band 5">
        <r>  0.0000 </r>
       </set>
       <set comment="band 6">
        <r>  0.0930 </r>
       </set>
       <set comment="band 7">
        <r>  0.4030 </r>
       </set>
       <set comment="band 8">
        <r> 43.9913 </r>
       </set>
       <set comment="band 9">
        <r>  0.0009 </r>
       </set>
      </set>
     </set>
    </set>
   </array>
  </projected>
 </calculation>
 <structure name="finalpos" >
  <crystal>
   <varray name="basis" >
    <v>       0.00000000       2.09500000       2.09500000 </v>
    <v>       2.09500000       0.00000000       2.09500000 </v>
    <v>       2.09500000       2.09500000       0.00000000 </v>
   </varray>
   <i name="volume">     18.39001475 </i>
   <varray name="rec_basis" >
    <v>      -0.23866348       0.23866348       0.23866348 </v>
    <v>       0.23866348      -0.23866348       0.23866348 </v>
    <v>       0.23866348       0.23866348      -0.23866348 </v>
   </varray>
  </crystal>
  <varray name="positions" >
   <v>       0.00000000       0.00000000       0.00000000 </v>
  </varray>
 </structure>
</modeling>
