   1   1   0   0
  0.1813235E+02  0.2866544E-09  0.2866544E-09  0.2866544E-09  0.5000000E-15
  1.000000000000000E-004
  CAR 
 unknown system                          
     16.49430131     -2.44960667  301      5.60819473      1.00000000
     -2.450  0.0000E+00  0.0000E+00
     -2.386  0.0000E+00  0.0000E+00
     -2.323  0.0000E+00  0.0000E+00
     -2.260  0.0000E+00  0.0000E+00
     -2.197  0.0000E+00  0.0000E+00
     -2.134  0.0000E+00  0.0000E+00
     -2.071  0.0000E+00  0.0000E+00
     -2.008 -0.6471E-30 -0.4086E-31
     -1.944 -0.1743E-21 -0.1101E-22
     -1.881 -0.1823E-14 -0.1151E-15
     -1.818 -0.7527E-09 -0.4753E-10
     -1.755 -0.1157E-04 -0.7306E-06
     -1.692 -0.5627E-02 -0.3560E-03
     -1.629  0.1357E-01  0.5009E-03
     -1.566  0.7372E+00  0.4705E-01
     -1.502  0.1502E+00  0.5653E-01
     -1.439 -0.1539E-01  0.5556E-01
     -1.376 -0.8927E-04  0.5556E-01
     -1.313 -0.1451E-07  0.5556E-01
     -1.250 -0.8537E-13  0.5556E-01
     -1.187  0.0000E+00  0.5556E-01
     -1.124  0.0000E+00  0.5556E-01
     -1.060  0.0000E+00  0.5556E-01
     -0.997  0.0000E+00  0.5556E-01
     -0.934 -0.1695E-27  0.5556E-01
     -0.871 -0.2002E-19  0.5556E-01
     -0.808 -0.9096E-13  0.5556E-01
     -0.745 -0.1629E-07  0.5556E-01
     -0.682 -0.1060E-03  0.5555E-01
     -0.618 -0.1950E-01  0.5432E-01
     -0.555  0.1851E+00  0.6600E-01
     -0.492  0.9906E+00  0.1286E+00
     -0.429  0.2504E-01  0.1301E+00
     -0.366 -0.8048E-02  0.1296E+00
     -0.303 -0.1758E-04  0.1296E+00
     -0.239 -0.1209E-08  0.1296E+00
     -0.176 -0.3126E-14  0.1296E+00
     -0.113 -0.3726E-35  0.1296E+00
     -0.050 -0.7161E-26  0.1296E+00
      0.013 -0.5522E-18  0.1296E+00
      0.076 -0.1632E-11  0.1296E+00
      0.139 -0.1894E-06  0.1296E+00
      0.203 -0.7866E-03  0.1296E+00
      0.266 -0.8432E-01  0.1243E+00
      0.329  0.9615E+00  0.1850E+00
      0.392  0.2710E+01  0.3561E+00
      0.455 -0.5401E-01  0.3527E+00
      0.518 -0.1331E-01  0.3519E+00
      0.581 -0.1798E-04  0.3519E+00
      0.645 -0.7953E-09  0.3519E+00
      0.708 -0.1563E-14  0.3519E+00
      0.771  0.0000E+00  0.3519E+00
      0.834  0.0000E+00  0.3519E+00
      0.897  0.0000E+00  0.3519E+00
      0.960  0.0000E+00  0.3519E+00
      1.023  0.0000E+00  0.3519E+00
      1.087  0.0000E+00  0.3519E+00
      1.150 -0.3176E-33  0.3519E+00
      1.213 -0.3262E-24  0.3519E+00
      1.276 -0.1345E-16  0.3519E+00
      1.339 -0.2127E-10  0.3519E+00
      1.402 -0.1340E-05  0.3519E+00
      1.465 -0.3105E-02  0.3517E+00
      1.529 -0.1830E+00  0.3401E+00
      1.592  0.2352E+01  0.4886E+00
      1.655  0.4989E+01  0.8037E+00
      1.718 -0.9186E-01  0.7979E+00
      1.781 -0.2522E-01  0.7963E+00
      1.844 -0.1484E-02  0.7962E+00
      1.907 -0.7661E-01  0.7914E+00
      1.971  0.1030E+01  0.8564E+00
      2.034  0.1764E+01  0.9678E+00
      2.097 -0.7052E-01  0.9633E+00
      2.160 -0.8824E-01  0.9577E+00
      2.223  0.8644E+00  0.1012E+01
      2.286  0.3339E+01  0.1223E+01
      2.350  0.4289E+00  0.1250E+01
      2.413  0.7090E+00  0.1295E+01
      2.476  0.2671E-01  0.1297E+01
      2.539 -0.6682E-02  0.1296E+01
      2.602 -0.1597E-04  0.1296E+01
      2.665 -0.5588E-04  0.1296E+01
      2.728 -0.2499E-01  0.1295E+01
      2.792  0.5191E-01  0.1298E+01
      2.855  0.3172E+01  0.1498E+01
      2.918  0.3573E+01  0.1724E+01
      2.981  0.2315E+00  0.1739E+01
      3.044  0.1432E+01  0.1829E+01
      3.107  0.9726E+00  0.1890E+01
      3.170  0.3878E+00  0.1915E+01
      3.234  0.3011E+01  0.2105E+01
      3.297  0.1248E+00  0.2113E+01
      3.360 -0.2796E-01  0.2111E+01
      3.423 -0.6961E-04  0.2111E+01
      3.486 -0.5805E-08  0.2111E+01
      3.549 -0.1135E-04  0.2111E+01
      3.612 -0.1021E-01  0.2110E+01
      3.676 -0.8469E-01  0.2105E+01
      3.739  0.2558E+01  0.2267E+01
      3.802  0.1152E+01  0.2339E+01
      3.865 -0.9507E-01  0.2333E+01
      3.928 -0.1122E-02  0.2333E+01
      3.991 -0.8553E-03  0.2333E+01
      4.054 -0.5355E-01  0.2330E+01
      4.118  0.6999E+00  0.2374E+01
      4.181  0.1172E+01  0.2448E+01
      4.244 -0.1012E+00  0.2442E+01
      4.307  0.3254E+00  0.2462E+01
      4.370  0.3545E+01  0.2686E+01
      4.433  0.3027E+01  0.2877E+01
      4.496  0.2380E+01  0.3027E+01
      4.560  0.2224E+01  0.3168E+01
      4.623  0.1358E+01  0.3254E+01
      4.686  0.4996E+01  0.3569E+01
      4.749  0.7344E+00  0.3616E+01
      4.812  0.5998E+00  0.3653E+01
      4.875  0.1658E+00  0.3664E+01
      4.939  0.4872E+00  0.3695E+01
      5.002  0.4300E+01  0.3966E+01
      5.065  0.3757E+01  0.4203E+01
      5.128  0.2182E+01  0.4341E+01
      5.191 -0.1167E+00  0.4334E+01
      5.254 -0.6948E-02  0.4333E+01
      5.317 -0.5471E-03  0.4333E+01
      5.381 -0.7387E-01  0.4329E+01
      5.444  0.7155E+00  0.4374E+01
      5.507  0.3476E+01  0.4593E+01
      5.570  0.2925E+01  0.4778E+01
      5.633  0.5345E+01  0.5116E+01
      5.696  0.5934E+00  0.5153E+01
      5.759 -0.7706E-01  0.5148E+01
      5.823 -0.4584E-03  0.5148E+01
      5.886 -0.6173E-02  0.5148E+01
      5.949 -0.1144E+00  0.5141E+01
      6.012  0.2239E+01  0.5282E+01
      6.075  0.1515E+01  0.5378E+01
      6.138 -0.1117E+00  0.5371E+01
      6.201 -0.2059E-02  0.5370E+01
      6.265 -0.1282E-02  0.5370E+01
      6.328 -0.5817E-01  0.5367E+01
      6.391  0.8154E+00  0.5418E+01
      6.454  0.1130E+01  0.5489E+01
      6.517  0.8969E+00  0.5546E+01
      6.580  0.1072E+01  0.5614E+01
      6.643  0.8970E+00  0.5670E+01
      6.707 -0.8444E-01  0.5665E+01
      6.770  0.6119E+00  0.5704E+01
      6.833  0.2392E+00  0.5719E+01
      6.896  0.8015E+00  0.5769E+01
      6.959  0.3161E+01  0.5969E+01
      7.022  0.1396E+01  0.6057E+01
      7.085 -0.1674E-01  0.6056E+01
      7.149 -0.8946E-02  0.6056E+01
      7.212 -0.1514E-04  0.6056E+01
      7.275 -0.8265E-09  0.6056E+01
      7.338 -0.6332E-11  0.6056E+01
      7.401 -0.5234E-06  0.6056E+01
      7.464 -0.1528E-02  0.6055E+01
      7.528 -0.1040E+00  0.6049E+01
      7.591  0.1331E+01  0.6133E+01
      7.654  0.2404E+01  0.6285E+01
      7.717 -0.1032E+00  0.6278E+01
      7.780 -0.7965E-02  0.6278E+01
      7.843 -0.7453E-05  0.6278E+01
      7.906 -0.2341E-09  0.6278E+01
      7.970 -0.1457E-07  0.6278E+01
      8.033 -0.1390E-03  0.6278E+01
      8.096 -0.3973E-01  0.6275E+01
      8.159  0.2831E+00  0.6293E+01
      8.222  0.2944E+01  0.6479E+01
      8.285  0.1689E+01  0.6586E+01
      8.348  0.2280E+01  0.6730E+01
      8.412 -0.1101E+00  0.6723E+01
      8.475 -0.1420E-01  0.6722E+01
      8.538  0.1474E-01  0.6723E+01
      8.601  0.9784E+00  0.6784E+01
      8.664  0.1889E+00  0.6796E+01
      8.727  0.1872E+00  0.6808E+01
      8.790  0.5861E+00  0.6845E+01
      8.854  0.1400E+01  0.6934E+01
      8.917  0.3551E+01  0.7158E+01
      8.980  0.3142E+01  0.7356E+01
      9.043  0.2815E+01  0.7534E+01
      9.106  0.7036E+00  0.7578E+01
      9.169 -0.6940E-01  0.7574E+01
      9.232 -0.4744E-03  0.7574E+01
      9.296 -0.7964E-04  0.7574E+01
      9.359 -0.2456E-01  0.7573E+01
      9.422  0.1632E+00  0.7583E+01
      9.485  0.2034E+01  0.7711E+01
      9.548  0.1422E+00  0.7720E+01
      9.611  0.5315E+00  0.7754E+01
      9.674  0.2970E+01  0.7941E+01
      9.738  0.5936E-01  0.7945E+01
      9.801  0.3872E-01  0.7948E+01
      9.864  0.1506E+01  0.8043E+01
      9.927  0.2283E+00  0.8057E+01
      9.990 -0.4731E-01  0.8054E+01
     10.053  0.5975E+00  0.8092E+01
     10.117  0.6059E+00  0.8130E+01
     10.180  0.2908E+01  0.8314E+01
     10.243  0.2404E+01  0.8465E+01
     10.306  0.1458E+01  0.8558E+01
     10.369  0.1004E+01  0.8621E+01
     10.432  0.3680E+01  0.8853E+01
     10.495  0.3027E+01  0.9044E+01
     10.559  0.1165E+01  0.9118E+01
     10.622  0.3083E+01  0.9313E+01
     10.685  0.3139E+01  0.9511E+01
     10.748  0.2314E+01  0.9657E+01
     10.811  0.4454E+00  0.9685E+01
     10.874 -0.7304E-01  0.9681E+01
     10.937  0.8163E+00  0.9732E+01
     11.001  0.2771E+01  0.9907E+01
     11.064  0.2868E+00  0.9925E+01
     11.127  0.3034E+01  0.1012E+02
     11.190  0.2386E+00  0.1013E+02
     11.253 -0.3640E-01  0.1013E+02
     11.316 -0.1164E-03  0.1013E+02
     11.379 -0.1128E-07  0.1013E+02
     11.443 -0.4063E-13  0.1013E+02
     11.506 -0.6741E-28  0.1013E+02
     11.569 -0.8805E-20  0.1013E+02
     11.632 -0.4427E-13  0.1013E+02
     11.695 -0.8793E-08  0.1013E+02
     11.758 -0.6370E-04  0.1013E+02
     11.821 -0.1387E-01  0.1013E+02
     11.885  0.3147E-01  0.1013E+02
     11.948  0.1468E+01  0.1022E+02
     12.011  0.5409E+01  0.1056E+02
     12.074  0.6280E+01  0.1096E+02
     12.137  0.1948E+01  0.1108E+02
     12.200 -0.1623E+00  0.1107E+02
     12.263 -0.3063E-02  0.1107E+02
     12.327 -0.1561E-04  0.1107E+02
     12.390 -0.1160E-01  0.1107E+02
     12.453 -0.7145E-01  0.1107E+02
     12.516  0.2632E+01  0.1124E+02
     12.579  0.1032E+01  0.1130E+02
     12.642  0.4876E+00  0.1133E+02
     12.706  0.3508E+00  0.1135E+02
     12.769  0.1902E+00  0.1137E+02
     12.832  0.9051E-01  0.1137E+02
     12.895 -0.7648E-02  0.1137E+02
     12.958 -0.8378E-04  0.1137E+02
     13.021 -0.2292E-07  0.1137E+02
     13.084 -0.2233E-12  0.1137E+02
     13.148  0.0000E+00  0.1137E+02
     13.211  0.0000E+00  0.1137E+02
     13.274  0.0000E+00  0.1137E+02
     13.337  0.0000E+00  0.1137E+02
     13.400  0.0000E+00  0.1137E+02
     13.463  0.0000E+00  0.1137E+02
     13.526  0.0000E+00  0.1137E+02
     13.590  0.0000E+00  0.1137E+02
     13.653  0.0000E+00  0.1137E+02
     13.716  0.0000E+00  0.1137E+02
     13.779  0.0000E+00  0.1137E+02
     13.842  0.0000E+00  0.1137E+02
     13.905  0.0000E+00  0.1137E+02
     13.968  0.0000E+00  0.1137E+02
     14.032 -0.1757E-27  0.1137E+02
     14.095 -0.2201E-19  0.1137E+02
     14.158 -0.1061E-12  0.1137E+02
     14.221 -0.2018E-07  0.1137E+02
     14.284 -0.1396E-03  0.1137E+02
     14.347 -0.2761E-01  0.1137E+02
     14.410  0.2533E+00  0.1138E+02
     14.474  0.1497E+01  0.1148E+02
     14.537  0.4996E-01  0.1148E+02
     14.600 -0.1303E-01  0.1148E+02
     14.663 -0.3045E-04  0.1148E+02
     14.726 -0.2225E-08  0.1148E+02
     14.789 -0.1322E-09  0.1148E+02
     14.852 -0.4921E-05  0.1148E+02
     14.916 -0.6211E-02  0.1148E+02
     14.979 -0.1142E+00  0.1147E+02
     15.042  0.2243E+01  0.1162E+02
     15.105  0.1510E+01  0.1171E+02
     15.168 -0.1129E+00  0.1170E+02
     15.231 -0.1015E+00  0.1170E+02
     15.295  0.1237E+01  0.1178E+02
     15.358  0.2486E+01  0.1193E+02
     15.421 -0.9451E-01  0.1193E+02
     15.484 -0.9194E-02  0.1193E+02
     15.547 -0.2053E-01  0.1192E+02
     15.610  0.2002E+00  0.1194E+02
     15.673  0.9829E+00  0.1200E+02
     15.737  0.1809E-01  0.1200E+02
     15.800 -0.7502E-02  0.1200E+02
     15.863 -0.1543E-04  0.1200E+02
     15.926 -0.1004E-08  0.1200E+02
     15.989 -0.2605E-14  0.1200E+02
     16.052  0.0000E+00  0.1200E+02
     16.115  0.0000E+00  0.1200E+02
     16.179  0.0000E+00  0.1200E+02
     16.242  0.0000E+00  0.1200E+02
     16.305  0.0000E+00  0.1200E+02
     16.368  0.0000E+00  0.1200E+02
     16.431  0.0000E+00  0.1200E+02
     16.494  0.0000E+00  0.1200E+02
