   1   1   1   0
  0.1813235E+02  0.2866544E-09  0.2866544E-09  0.2866544E-09  0.5000000E-15
  1.000000000000000E-004
  CAR 
 unknown system                          
     16.54416731     -2.50857716  301      5.62904889      1.00000000
     -2.509  0.0000E+00  0.0000E+00  0.0000E+00  0.0000E+00
     -2.445  0.0000E+00  0.0000E+00  0.0000E+00  0.0000E+00
     -2.382  0.0000E+00  0.0000E+00  0.0000E+00  0.0000E+00
     -2.318  0.0000E+00  0.0000E+00  0.0000E+00  0.0000E+00
     -2.255  0.0000E+00  0.0000E+00  0.0000E+00  0.0000E+00
     -2.191  0.0000E+00  0.0000E+00  0.0000E+00  0.0000E+00
     -2.128  0.0000E+00  0.0000E+00  0.0000E+00  0.0000E+00
     -2.064 -0.1440E-30  0.0000E+00 -0.9146E-32  0.0000E+00
     -2.001 -0.4860E-22  0.0000E+00 -0.3087E-23  0.0000E+00
     -1.937 -0.6062E-15 -0.5305E-28 -0.3850E-16 -0.3369E-29
     -1.873 -0.2953E-09 -0.7102E-20 -0.1875E-10 -0.4511E-21
     -1.810 -0.5096E-05 -0.3525E-13 -0.3237E-06 -0.2239E-14
     -1.746 -0.2686E-02 -0.6643E-08 -0.1709E-03 -0.4219E-09
     -1.683  0.6129E-02 -0.4371E-04  0.2183E-03 -0.2776E-05
     -1.619  0.3677E+00 -0.7735E-02  0.2357E-01 -0.4940E-03
     -1.556  0.7380E-01  0.7780E-01  0.2825E-01  0.4447E-02
     -1.492 -0.7471E-02  0.3654E+00  0.2778E-01  0.2766E-01
     -1.429 -0.4033E-04  0.4471E-02  0.2778E-01  0.2794E-01
     -1.365 -0.5897E-08 -0.2556E-02  0.2778E-01  0.2778E-01
     -1.302 -0.3020E-13 -0.4650E-05  0.2778E-01  0.2778E-01
     -1.238  0.0000E+00 -0.2593E-09  0.2778E-01  0.2778E-01
     -1.175  0.0000E+00 -0.4856E-15  0.2778E-01  0.2778E-01
     -1.111  0.0000E+00  0.0000E+00  0.2778E-01  0.2778E-01
     -1.048 -0.9888E-37  0.0000E+00  0.2778E-01  0.2778E-01
     -0.984 -0.2750E-27  0.0000E+00  0.2778E-01  0.2778E-01
     -0.921 -0.2959E-19 -0.7845E-34  0.2778E-01  0.2778E-01
     -0.857 -0.1178E-12 -0.8460E-25  0.2778E-01  0.2778E-01
     -0.794 -0.1777E-07 -0.3520E-17  0.2778E-01  0.2778E-01
     -0.730 -0.9292E-04 -0.5366E-11  0.2777E-01  0.2778E-01
     -0.667 -0.1249E-01 -0.3069E-06  0.2698E-01  0.2778E-01
     -0.603  0.1377E+00 -0.5838E-03  0.3573E-01  0.2774E-01
     -0.540  0.4654E+00 -0.1998E-01  0.6529E-01  0.2647E-01
     -0.476 -0.4923E-02  0.3162E+00  0.6497E-01  0.4655E-01
     -0.413 -0.2511E-02  0.3080E+00  0.6482E-01  0.6611E-01
     -0.349 -0.3572E-05 -0.1990E-01  0.6481E-01  0.6485E-01
     -0.286 -0.1589E-09 -0.5419E-03  0.6481E-01  0.6481E-01
     -0.222 -0.2590E-15 -0.2724E-06  0.6481E-01  0.6481E-01
     -0.159 -0.3598E-34 -0.4563E-11  0.6481E-01  0.6481E-01
     -0.095 -0.5086E-25  0.0000E+00  0.6481E-01  0.6481E-01
     -0.032 -0.2776E-17 -0.3223E-31  0.6481E-01  0.6481E-01
      0.032 -0.5567E-11 -0.1683E-22  0.6481E-01  0.6481E-01
      0.095 -0.4203E-06 -0.3384E-15  0.6481E-01  0.6481E-01
      0.159 -0.1070E-02 -0.2471E-09  0.6475E-01  0.6481E-01
      0.222 -0.5646E-01 -0.6700E-05  0.6116E-01  0.6481E-01
      0.286  0.7886E+00 -0.5766E-02  0.1112E+00  0.6445E-01
      0.349  0.1080E+01 -0.3409E-01  0.1798E+00  0.6228E-01
      0.413 -0.5864E-01  0.1326E+01  0.1761E+00  0.1465E+00
      0.476 -0.2604E-02  0.5064E+00  0.1759E+00  0.1787E+00
      0.540 -0.1755E-05 -0.4306E-01  0.1759E+00  0.1760E+00
      0.603 -0.3882E-10 -0.4056E-03  0.1759E+00  0.1759E+00
      0.667  0.0000E+00 -0.9397E-07  0.1759E+00  0.1759E+00
      0.730  0.0000E+00 -0.7494E-12  0.1759E+00  0.1759E+00
      0.794  0.0000E+00  0.0000E+00  0.1759E+00  0.1759E+00
      0.857  0.0000E+00  0.0000E+00  0.1759E+00  0.1759E+00
      0.921  0.0000E+00  0.0000E+00  0.1759E+00  0.1759E+00
      0.984  0.0000E+00  0.0000E+00  0.1759E+00  0.1759E+00
      1.048  0.0000E+00  0.0000E+00  0.1759E+00  0.1759E+00
      1.111 -0.4118E-31  0.0000E+00  0.1759E+00  0.1759E+00
      1.175 -0.2078E-22  0.0000E+00  0.1759E+00  0.1759E+00
      1.238 -0.4052E-15 -0.3339E-28  0.1759E+00  0.1759E+00
      1.302 -0.2898E-09 -0.6038E-20  0.1759E+00  0.1759E+00
      1.365 -0.7892E-05 -0.4093E-13  0.1759E+00  0.1759E+00
      1.429 -0.7316E-02 -0.1073E-07  0.1755E+00  0.1759E+00
      1.492 -0.8851E-01 -0.1032E-03  0.1698E+00  0.1759E+00
      1.556  0.2173E+01 -0.3116E-01  0.3079E+00  0.1739E+00
      1.620  0.1526E+01  0.1861E+00  0.4048E+00  0.1858E+00
      1.683 -0.1015E+00  0.2928E+01  0.3983E+00  0.3717E+00
      1.747 -0.2680E-02  0.4674E+00  0.3981E+00  0.4014E+00
      1.810 -0.3620E-02 -0.5079E-01  0.3979E+00  0.3982E+00
      1.874 -0.3044E-01 -0.3607E-03  0.3960E+00  0.3981E+00
      1.937  0.9322E+00 -0.1670E-01  0.4552E+00  0.3971E+00
      2.001  0.4501E+00  0.1389E+00  0.4838E+00  0.4059E+00
      2.064 -0.3822E-01  0.1123E+01  0.4814E+00  0.4772E+00
      2.128 -0.6209E-01  0.7993E-01  0.4774E+00  0.4823E+00
      2.191  0.1076E+01 -0.2627E-01  0.5458E+00  0.4806E+00
      2.255  0.1154E+01  0.4470E-01  0.6191E+00  0.4834E+00
      2.318  0.1752E+00  0.1711E+01  0.6302E+00  0.5921E+00
      2.382  0.2962E+00  0.4983E+00  0.6490E+00  0.6237E+00
      2.445 -0.1257E-01  0.3358E+00  0.6482E+00  0.6451E+00
      2.509 -0.1004E-02  0.5483E-01  0.6481E+00  0.6485E+00
      2.572 -0.1000E-05 -0.6239E-02  0.6481E+00  0.6481E+00
      2.636 -0.4186E-03 -0.2701E-04  0.6481E+00  0.6481E+00
      2.699 -0.4398E-01 -0.4061E-05  0.6453E+00  0.6481E+00
      2.763  0.4702E+00 -0.4315E-02  0.6752E+00  0.6479E+00
      2.826  0.1851E+01 -0.5549E-01  0.7928E+00  0.6443E+00
      2.890  0.1263E+01  0.1228E+01  0.8730E+00  0.7223E+00
      2.953 -0.1247E-01  0.2012E+01  0.8722E+00  0.8501E+00
      3.017  0.9879E+00  0.3168E+00  0.9349E+00  0.8702E+00
      3.080  0.1062E+00  0.5590E+00  0.9417E+00  0.9057E+00
      3.144  0.1017E+01  0.6401E+00  0.1006E+01  0.9464E+00
      3.207  0.8352E+00 -0.1003E-01  0.1059E+01  0.9457E+00
      3.271 -0.5789E-01  0.1476E+01  0.1056E+01  0.1039E+01
      3.334 -0.1238E-02  0.2828E+00  0.1056E+01  0.1057E+01
      3.398 -0.5294E-06 -0.2906E-01  0.1056E+01  0.1056E+01
      3.461 -0.1113E-07 -0.1514E-03  0.1056E+01  0.1056E+01
      3.525 -0.9682E-04 -0.2155E-07  0.1056E+01  0.1056E+01
      3.588 -0.2371E-01 -0.3094E-05  0.1054E+01  0.1056E+01
      3.652  0.2038E+00 -0.3665E-02  0.1067E+01  0.1055E+01
      3.715  0.1510E+01 -0.5271E-01  0.1163E+01  0.1052E+01
      3.779  0.7362E-01  0.1190E+01  0.1168E+01  0.1128E+01
      3.842 -0.1446E-01  0.6678E+00  0.1167E+01  0.1170E+01
      3.906 -0.5669E-04 -0.5155E-01  0.1167E+01  0.1167E+01
      3.969 -0.7862E-02 -0.7220E-03  0.1166E+01  0.1167E+01
      4.033  0.4540E-01 -0.2112E-03  0.1169E+01  0.1167E+01
      4.096  0.7584E+00 -0.2183E-01  0.1217E+01  0.1165E+01
      4.160  0.8711E-01  0.2584E+00  0.1223E+01  0.1182E+01
      4.223 -0.7175E-01  0.6590E+00  0.1218E+01  0.1224E+01
      4.287  0.1041E+01 -0.3597E-01  0.1284E+01  0.1221E+01
      4.350  0.1832E+01  0.9248E-01  0.1401E+01  0.1227E+01
      4.414  0.1029E+01  0.1764E+01  0.1466E+01  0.1339E+01
      4.477  0.1773E+01  0.1570E+01  0.1579E+01  0.1439E+01
      4.541  0.1927E+00  0.1047E+01  0.1591E+01  0.1505E+01
      4.604  0.2181E+01  0.1243E+01  0.1729E+01  0.1584E+01
      4.668  0.1263E+01  0.5842E+00  0.1810E+01  0.1621E+01
      4.731  0.2986E-01  0.2530E+01  0.1812E+01  0.1782E+01
      4.795  0.3419E+00  0.4167E+00  0.1833E+01  0.1809E+01
      4.858 -0.4372E-01  0.3210E+00  0.1830E+01  0.1829E+01
      4.922  0.1385E+01  0.4900E-01  0.1918E+01  0.1832E+01
      4.986  0.2086E+01  0.1954E+00  0.2051E+01  0.1844E+01
      5.049  0.1719E+01  0.2235E+01  0.2160E+01  0.1986E+01
      5.113  0.1244E+00  0.1824E+01  0.2168E+01  0.2102E+01
      5.176 -0.2014E-01  0.1076E+01  0.2167E+01  0.2171E+01
      5.240 -0.9718E-04 -0.5826E-01  0.2167E+01  0.2167E+01
      5.303 -0.1304E-01 -0.3203E-02  0.2166E+01  0.2167E+01
      5.367  0.4140E-01 -0.3445E-03  0.2168E+01  0.2167E+01
      5.430  0.1567E+01 -0.4098E-01  0.2268E+01  0.2164E+01
      5.494  0.1334E+01  0.4274E+00  0.2353E+01  0.2191E+01
      5.557  0.2457E+01  0.1743E+01  0.2509E+01  0.2302E+01
      5.621  0.1109E+01  0.1520E+01  0.2579E+01  0.2398E+01
      5.684 -0.7804E-01  0.2639E+01  0.2574E+01  0.2566E+01
      5.748 -0.2093E-02  0.1547E+00  0.2574E+01  0.2576E+01
      5.811 -0.2750E-03 -0.2769E-01  0.2574E+01  0.2574E+01
      5.875 -0.3721E-01 -0.1090E-03  0.2572E+01  0.2574E+01
      5.938  0.4090E+00 -0.4855E-02  0.2598E+01  0.2574E+01
      6.002  0.1399E+01 -0.4294E-01  0.2687E+01  0.2571E+01
      6.065 -0.1370E-01  0.1277E+01  0.2686E+01  0.2652E+01
      6.129 -0.7627E-02  0.5674E+00  0.2685E+01  0.2688E+01
      6.192 -0.1778E-03 -0.4647E-01  0.2685E+01  0.2685E+01
      6.256 -0.2006E-01 -0.5099E-03  0.2684E+01  0.2685E+01
      6.319  0.2261E+00 -0.1441E-02  0.2698E+01  0.2685E+01
      6.383  0.6745E+00 -0.2877E-01  0.2741E+01  0.2683E+01
      6.446  0.4247E+00  0.5474E+00  0.2768E+01  0.2718E+01
      6.510  0.3664E+00  0.4589E+00  0.2791E+01  0.2747E+01
      6.573  0.6750E+00  0.4417E+00  0.2834E+01  0.2775E+01
      6.637 -0.2560E-01  0.5843E+00  0.2833E+01  0.2812E+01
      6.700  0.2291E+00  0.3554E+00  0.2847E+01  0.2835E+01
      6.764  0.2130E+00 -0.2151E-01  0.2861E+01  0.2834E+01
      6.827  0.1598E+00  0.3654E+00  0.2871E+01  0.2857E+01
      6.891  0.1593E+01  0.1872E-01  0.2972E+01  0.2858E+01
      6.954  0.8475E+00  0.7433E+00  0.3026E+01  0.2905E+01
      7.018  0.3992E-01  0.1452E+01  0.3028E+01  0.2997E+01
      7.081 -0.8623E-02  0.5110E+00  0.3028E+01  0.3030E+01
      7.145 -0.2495E-04 -0.3079E-01  0.3028E+01  0.3028E+01
      7.208 -0.2124E-08 -0.1561E-02  0.3028E+01  0.3028E+01
      7.272 -0.2646E-12 -0.1181E-05  0.3028E+01  0.3028E+01
      7.335 -0.4204E-07 -0.2920E-10  0.3028E+01  0.3028E+01
      7.399 -0.2379E-03 -0.8046E-10  0.3028E+01  0.3028E+01
      7.462 -0.3518E-01 -0.2982E-05  0.3026E+01  0.3028E+01
      7.526  0.3768E+00 -0.3586E-02  0.3049E+01  0.3028E+01
      7.589  0.1421E+01 -0.5327E-01  0.3140E+01  0.3024E+01
      7.653 -0.4771E-02  0.1183E+01  0.3139E+01  0.3099E+01
      7.716 -0.8385E-02  0.6756E+00  0.3139E+01  0.3142E+01
      7.780 -0.1297E-04 -0.5191E-01  0.3139E+01  0.3139E+01
      7.843 -0.6238E-09 -0.7411E-03  0.3139E+01  0.3139E+01
      7.907 -0.6252E-09 -0.2369E-06  0.3139E+01  0.3139E+01
      7.970 -0.1300E-04 -0.1097E-10  0.3139E+01  0.3139E+01
      8.034 -0.8392E-02 -0.5695E-06  0.3138E+01  0.3139E+01
      8.097 -0.5027E-02 -0.1296E-02  0.3138E+01  0.3139E+01
      8.161  0.1381E+01 -0.5830E-01  0.3226E+01  0.3135E+01
      8.224  0.8405E+00  0.8420E+00  0.3279E+01  0.3189E+01
      8.288  0.1324E+01  0.1013E+01  0.3363E+01  0.3253E+01
      8.351 -0.2652E-01  0.1355E+01  0.3362E+01  0.3339E+01
      8.415 -0.9766E-02  0.3849E+00  0.3361E+01  0.3363E+01
      8.479  0.4095E-02 -0.3595E-01  0.3361E+01  0.3361E+01
      8.542  0.4845E+00 -0.1391E-01  0.3392E+01  0.3360E+01
      8.606  0.1044E+00  0.1570E+00  0.3399E+01  0.3370E+01
      8.669  0.1430E-01  0.4493E+00  0.3399E+01  0.3399E+01
      8.733  0.3327E+00 -0.1159E-01  0.3421E+01  0.3398E+01
      8.796  0.5505E+00  0.3385E+00  0.3456E+01  0.3420E+01
      8.860  0.1965E+01  0.1313E+00  0.3580E+01  0.3428E+01
      8.923  0.1508E+01  0.1452E+01  0.3676E+01  0.3520E+01
      8.987  0.1247E+01  0.1802E+01  0.3755E+01  0.3634E+01
      9.050  0.5460E+00  0.1316E+01  0.3790E+01  0.3718E+01
      9.114 -0.4571E-01  0.1142E+01  0.3787E+01  0.3791E+01
      9.177 -0.4833E-03 -0.5274E-01  0.3787E+01  0.3787E+01
      9.241 -0.9205E-05 -0.3757E-02  0.3787E+01  0.3787E+01
      9.304 -0.5743E-02 -0.5572E-05  0.3787E+01  0.3787E+01
      9.368 -0.1337E-02 -0.2638E-02  0.3787E+01  0.3787E+01
      9.431  0.9514E+00 -0.3370E-01  0.3847E+01  0.3785E+01
      9.495  0.2253E+00  0.8097E+00  0.3861E+01  0.3836E+01
      9.558  0.1253E+00  0.4194E+00  0.3869E+01  0.3863E+01
      9.622  0.1522E+01 -0.4844E-01  0.3966E+01  0.3860E+01
      9.685  0.1125E+00  0.1395E+01  0.3973E+01  0.3948E+01
      9.749 -0.1692E-01  0.4125E+00  0.3972E+01  0.3975E+01
      9.812  0.7170E+00 -0.6588E-01  0.4018E+01  0.3970E+01
      9.876  0.1780E+00  0.5639E+00  0.4029E+01  0.4006E+01
      9.939 -0.3199E-01  0.3678E+00  0.4027E+01  0.4030E+01
     10.003  0.2360E+00 -0.4197E-01  0.4042E+01  0.4027E+01
     10.066  0.3008E+00  0.2106E+00  0.4061E+01  0.4040E+01
     10.130  0.1442E+01  0.2258E+00  0.4152E+01  0.4055E+01
     10.193  0.1051E+01  0.1302E+01  0.4219E+01  0.4137E+01
     10.257  0.9494E+00  0.1121E+01  0.4279E+01  0.4208E+01
     10.320  0.5828E+00  0.1131E+01  0.4317E+01  0.4280E+01
     10.384  0.1692E+01  0.2615E-01  0.4424E+01  0.4282E+01
     10.447  0.1365E+01  0.1789E+01  0.4511E+01  0.4396E+01
     10.511  0.7351E+00  0.1702E+01  0.4557E+01  0.4504E+01
     10.574  0.1398E+01  0.8225E+00  0.4646E+01  0.4556E+01
     10.638  0.1852E+01  0.1265E+01  0.4764E+01  0.4636E+01
     10.701  0.1001E+01  0.1418E+01  0.4827E+01  0.4726E+01
     10.765  0.2297E+00  0.1421E+01  0.4842E+01  0.4817E+01
     10.828 -0.2103E-01  0.4073E+00  0.4841E+01  0.4843E+01
     10.892  0.3554E+00 -0.1575E-01  0.4863E+01  0.4842E+01
     10.955  0.1406E+01  0.1519E+00  0.4952E+01  0.4851E+01
     11.019  0.2517E+00  0.1514E+01  0.4968E+01  0.4947E+01
     11.082  0.1484E+01  0.8711E-01  0.5063E+01  0.4953E+01
     11.146  0.4571E-01  0.1352E+01  0.5066E+01  0.5039E+01
     11.209 -0.1238E-01  0.4511E+00  0.5065E+01  0.5067E+01
     11.273 -0.2654E-04 -0.3979E-01  0.5065E+01  0.5065E+01
     11.336 -0.1719E-08 -0.3263E-03  0.5065E+01  0.5065E+01
     11.400 -0.4273E-14 -0.6758E-07  0.5065E+01  0.5065E+01
     11.463 -0.2230E-26 -0.4840E-12  0.5065E+01  0.5065E+01
     11.527 -0.1626E-18 -0.3051E-30  0.5065E+01  0.5065E+01
     11.590 -0.4369E-12 -0.9177E-22  0.5065E+01  0.5065E+01
     11.654 -0.4435E-07 -0.1036E-14  0.5065E+01  0.5065E+01
     11.717 -0.1543E-03 -0.4418E-09  0.5065E+01  0.5065E+01
     11.781 -0.1382E-01 -0.6769E-05  0.5064E+01  0.5065E+01
     11.844  0.8170E-01 -0.3179E-02  0.5069E+01  0.5065E+01
     11.908  0.1227E+01 -0.7192E-02  0.5147E+01  0.5064E+01
     11.972  0.2793E+01  0.4251E+00  0.5324E+01  0.5091E+01
     12.035  0.2956E+01  0.2383E+01  0.5512E+01  0.5242E+01
     12.099  0.4418E+00  0.3017E+01  0.5540E+01  0.5434E+01
     12.162 -0.4983E-01  0.1725E+01  0.5537E+01  0.5544E+01
     12.226 -0.3563E-03 -0.1001E+00  0.5537E+01  0.5537E+01
     12.289 -0.6870E-04 -0.4518E-02  0.5537E+01  0.5537E+01
     12.353 -0.2011E-01 -0.5682E-05  0.5536E+01  0.5537E+01
     12.416  0.1521E+00 -0.2820E-02  0.5545E+01  0.5537E+01
     12.480  0.1518E+01 -0.5774E-01  0.5642E+01  0.5533E+01
     12.543  0.1303E+00  0.1106E+01  0.5650E+01  0.5603E+01
     12.607  0.3573E+00  0.7509E+00  0.5673E+01  0.5651E+01
     12.670  0.7239E-01  0.5503E-01  0.5677E+01  0.5655E+01
     12.734  0.1191E+00  0.3390E+00  0.5685E+01  0.5676E+01
     12.797  0.4825E-02  0.4194E-01  0.5685E+01  0.5679E+01
     12.861 -0.1110E-02  0.1046E+00  0.5685E+01  0.5685E+01
     12.924 -0.2540E-05 -0.3589E-02  0.5685E+01  0.5685E+01
     12.988 -0.1745E-09 -0.4037E-03  0.5685E+01  0.5685E+01
     13.051 -0.4208E-15 -0.4136E-06  0.5685E+01  0.5685E+01
     13.115  0.0000E+00 -0.1357E-10  0.5685E+01  0.5685E+01
     13.178  0.0000E+00 -0.3237E-16  0.5685E+01  0.5685E+01
     13.242  0.0000E+00  0.0000E+00  0.5685E+01  0.5685E+01
     13.305  0.0000E+00  0.0000E+00  0.5685E+01  0.5685E+01
     13.369  0.0000E+00  0.0000E+00  0.5685E+01  0.5685E+01
     13.432  0.0000E+00  0.0000E+00  0.5685E+01  0.5685E+01
     13.496  0.0000E+00  0.0000E+00  0.5685E+01  0.5685E+01
     13.559  0.0000E+00  0.0000E+00  0.5685E+01  0.5685E+01
     13.623  0.0000E+00  0.0000E+00  0.5685E+01  0.5685E+01
     13.686  0.0000E+00  0.0000E+00  0.5685E+01  0.5685E+01
     13.750  0.0000E+00  0.0000E+00  0.5685E+01  0.5685E+01
     13.813  0.0000E+00  0.0000E+00  0.5685E+01  0.5685E+01
     13.877  0.0000E+00  0.0000E+00  0.5685E+01  0.5685E+01
     13.940 -0.2484E-33  0.0000E+00  0.5685E+01  0.5685E+01
     14.004 -0.2403E-24  0.0000E+00  0.5685E+01  0.5685E+01
     14.067 -0.8967E-17 -0.1712E-27  0.5685E+01  0.5685E+01
     14.131 -0.1225E-10 -0.2123E-19  0.5685E+01  0.5685E+01
     14.194 -0.6264E-06 -0.9749E-13  0.5685E+01  0.5685E+01
     14.258 -0.1059E-02 -0.1700E-07  0.5685E+01  0.5685E+01
     14.321 -0.2995E-01 -0.1032E-03  0.5683E+01  0.5685E+01
     14.385  0.5058E+00 -0.1659E-01  0.5715E+01  0.5684E+01
     14.448  0.4299E+00  0.1728E+00  0.5743E+01  0.5695E+01
     14.512 -0.2926E-01  0.7206E+00  0.5741E+01  0.5741E+01
     14.575 -0.6680E-03  0.2580E-02  0.5741E+01  0.5741E+01
     14.639 -0.2987E-06 -0.4602E-02  0.5741E+01  0.5741E+01
     14.702 -0.4625E-11 -0.7676E-05  0.5741E+01  0.5741E+01
     14.766 -0.2776E-07 -0.3954E-09  0.5741E+01  0.5741E+01
     14.829 -0.1801E-03 -0.1054E-10  0.5741E+01  0.5741E+01
     14.893 -0.3133E-01 -0.6737E-06  0.5739E+01  0.5741E+01
     14.956  0.3172E+00 -0.1441E-02  0.5759E+01  0.5741E+01
     15.020  0.1458E+01 -0.5906E-01  0.5852E+01  0.5737E+01
     15.083  0.1552E-01  0.8844E+00  0.5852E+01  0.5793E+01
     15.147 -0.1853E-01  0.9876E+00  0.5851E+01  0.5856E+01
     15.210 -0.3507E-02 -0.6139E-01  0.5851E+01  0.5852E+01
     15.274  0.1424E+01 -0.6065E-01  0.5942E+01  0.5848E+01
     15.337  0.3726E+00  0.8667E+00  0.5965E+01  0.5903E+01
     15.401 -0.3491E-01  0.1005E+01  0.5963E+01  0.5967E+01
     15.465 -0.1989E-02 -0.5996E-01  0.5963E+01  0.5963E+01
     15.528 -0.1301E-01 -0.2131E-02  0.5962E+01  0.5963E+01
     15.592  0.4336E+00 -0.9962E-02  0.5990E+01  0.5962E+01
     15.655  0.1795E+00  0.9839E-01  0.6001E+01  0.5969E+01
     15.719 -0.1496E-01  0.4902E+00  0.6000E+01  0.6000E+01
     15.782 -0.1525E-03  0.8172E-02  0.6000E+01  0.6000E+01
     15.846 -0.3763E-07 -0.3582E-02  0.6000E+01  0.6000E+01
     15.909 -0.3188E-12 -0.6795E-05  0.6000E+01  0.6000E+01
     15.973  0.0000E+00 -0.3937E-09  0.6000E+01  0.6000E+01
     16.036  0.0000E+00 -0.7769E-15  0.6000E+01  0.6000E+01
     16.100  0.0000E+00  0.0000E+00  0.6000E+01  0.6000E+01
     16.163  0.0000E+00  0.0000E+00  0.6000E+01  0.6000E+01
     16.227  0.0000E+00  0.0000E+00  0.6000E+01  0.6000E+01
     16.290  0.0000E+00  0.0000E+00  0.6000E+01  0.6000E+01
     16.354  0.0000E+00  0.0000E+00  0.6000E+01  0.6000E+01
     16.417  0.0000E+00  0.0000E+00  0.6000E+01  0.6000E+01
     16.481  0.0000E+00  0.0000E+00  0.6000E+01  0.6000E+01
     16.544  0.0000E+00  0.0000E+00  0.6000E+01  0.6000E+01
     16.54416731     -2.50857716  301      5.62904889      1.00000000
     -2.509  0.0000E+00  0.0000E+00  0.0000E+00  0.0000E+00  0.0000E+00  0.0000E+00  0.0000E+00  0.0000E+00  0.0000E+00  0.0000E+00  0.0000E+00  0.0000E+00  0.0000E+00  0.0000E+00  0.0000E+00  0.0000E+00  0.0000E+00  0.0000E+00
     -2.445  0.0000E+00  0.0000E+00  0.0000E+00  0.0000E+00  0.0000E+00  0.0000E+00  0.0000E+00  0.0000E+00  0.0000E+00  0.0000E+00  0.0000E+00  0.0000E+00  0.0000E+00  0.0000E+00  0.0000E+00  0.0000E+00  0.0000E+00  0.0000E+00
     -2.382  0.0000E+00  0.0000E+00  0.0000E+00  0.0000E+00  0.0000E+00  0.0000E+00  0.0000E+00  0.0000E+00  0.0000E+00  0.0000E+00  0.0000E+00  0.0000E+00  0.0000E+00  0.0000E+00  0.0000E+00  0.0000E+00  0.0000E+00  0.0000E+00
     -2.318  0.0000E+00  0.0000E+00  0.0000E+00  0.0000E+00  0.0000E+00  0.0000E+00  0.0000E+00  0.0000E+00  0.0000E+00  0.0000E+00  0.0000E+00  0.0000E+00  0.0000E+00  0.0000E+00  0.0000E+00  0.0000E+00  0.0000E+00  0.0000E+00
     -2.255  0.0000E+00  0.0000E+00  0.0000E+00  0.0000E+00  0.0000E+00  0.0000E+00  0.0000E+00  0.0000E+00  0.0000E+00  0.0000E+00  0.0000E+00  0.0000E+00  0.0000E+00  0.0000E+00  0.0000E+00  0.0000E+00  0.0000E+00  0.0000E+00
     -2.191  0.0000E+00  0.0000E+00  0.0000E+00  0.0000E+00  0.0000E+00  0.0000E+00  0.0000E+00  0.0000E+00  0.0000E+00  0.0000E+00  0.0000E+00  0.0000E+00  0.0000E+00  0.0000E+00  0.0000E+00  0.0000E+00  0.0000E+00  0.0000E+00
     -2.128  0.0000E+00  0.0000E+00  0.0000E+00  0.0000E+00  0.0000E+00  0.0000E+00  0.0000E+00  0.0000E+00  0.0000E+00  0.0000E+00  0.0000E+00  0.0000E+00  0.0000E+00  0.0000E+00  0.0000E+00  0.0000E+00  0.0000E+00  0.0000E+00
     -2.064 -0.1177E-30  0.0000E+00 -0.1098E-32  0.0000E+00 -0.3295E-32  0.0000E+00 -0.2196E-32  0.0000E+00 -0.4320E-34  0.0000E+00 -0.6478E-34  0.0000E+00 -0.1619E-34  0.0000E+00 -0.1296E-33  0.0000E+00 -0.5400E-35  0.0000E+00
     -2.001 -0.3973E-22  0.0000E+00 -0.3707E-24  0.0000E+00 -0.1112E-23  0.0000E+00 -0.7413E-24  0.0000E+00 -0.1458E-25  0.0000E+00 -0.2186E-25  0.0000E+00 -0.5465E-26  0.0000E+00 -0.4374E-25  0.0000E+00 -0.1822E-26  0.0000E+00
     -1.937 -0.4955E-15 -0.4331E-28 -0.4623E-17 -0.4046E-30 -0.1387E-16 -0.1214E-29 -0.9246E-17 -0.8092E-30 -0.1818E-18 -0.1597E-31 -0.2727E-18 -0.2395E-31 -0.6816E-19 -0.5988E-32 -0.5455E-18 -0.4790E-31 -0.2273E-19 -0.1996E-32
     -1.873 -0.2414E-09 -0.5798E-20 -0.2252E-11 -0.5417E-22 -0.6756E-11 -0.1625E-21 -0.4504E-11 -0.1083E-21 -0.8858E-13 -0.2138E-23 -0.1328E-12 -0.3207E-23 -0.3321E-13 -0.8016E-24 -0.2657E-12 -0.6414E-23 -0.1107E-13 -0.2672E-24
     -1.810 -0.4166E-05 -0.2878E-13 -0.3886E-07 -0.2689E-15 -0.1166E-06 -0.8067E-15 -0.7773E-07 -0.5378E-15 -0.1529E-08 -0.1061E-16 -0.2292E-08 -0.1592E-16 -0.5730E-09 -0.3979E-17 -0.4586E-08 -0.3184E-16 -0.1911E-09 -0.1326E-17
     -1.746 -0.2196E-02 -0.5424E-08 -0.2049E-04 -0.5067E-10 -0.6146E-04 -0.1520E-09 -0.4097E-04 -0.1013E-09 -0.8058E-06 -0.2000E-11 -0.1208E-05 -0.2999E-11 -0.3021E-06 -0.7498E-12 -0.2417E-05 -0.5999E-11 -0.1007E-06 -0.2500E-12
     -1.683  0.5010E-02 -0.3568E-04  0.4674E-04 -0.3334E-06  0.1402E-03 -0.1000E-05  0.9348E-04 -0.6668E-06  0.1838E-05 -0.1316E-07  0.2757E-05 -0.1973E-07  0.6892E-06 -0.4933E-08  0.5515E-05 -0.3947E-07  0.2298E-06 -0.1645E-08
     -1.619  0.3005E+00 -0.6315E-02  0.2804E-02 -0.5900E-04  0.8412E-02 -0.1770E-03  0.5608E-02 -0.1180E-03  0.1103E-03 -0.2328E-05  0.1654E-03 -0.3492E-05  0.4134E-04 -0.8730E-06  0.3309E-03 -0.6985E-05  0.1379E-04 -0.2910E-06
     -1.556  0.6032E-01  0.6352E-01  0.5628E-03  0.5934E-03  0.1688E-02  0.1780E-02  0.1126E-02  0.1187E-02  0.2214E-04  0.2342E-04  0.3319E-04  0.3513E-04  0.8298E-05  0.8782E-05  0.6641E-04  0.7026E-04  0.2767E-05  0.2927E-05
     -1.492 -0.6107E-02  0.2984E+00 -0.5697E-04  0.2787E-02 -0.1709E-03  0.8362E-02 -0.1139E-03  0.5575E-02 -0.2241E-05  0.1100E-03 -0.3360E-05  0.1650E-03 -0.8400E-06  0.4125E-04 -0.6723E-05  0.3300E-03 -0.2801E-06  0.1375E-04
     -1.429 -0.3297E-04  0.3650E-02 -0.3076E-06  0.3410E-04 -0.9228E-06  0.1023E-03 -0.6152E-06  0.6821E-04 -0.1210E-07  0.1346E-05 -0.1814E-07  0.2019E-05 -0.4535E-08  0.5047E-06 -0.3629E-07  0.4038E-05 -0.1512E-08  0.1682E-06
     -1.365 -0.4820E-08 -0.2087E-02 -0.4497E-10 -0.1949E-04 -0.1349E-09 -0.5848E-04 -0.8994E-10 -0.3899E-04 -0.1769E-11 -0.7693E-06 -0.2653E-11 -0.1154E-05 -0.6631E-12 -0.2885E-06 -0.5307E-11 -0.2308E-05 -0.2211E-12 -0.9617E-07
     -1.302 -0.2469E-13 -0.3796E-05 -0.2303E-15 -0.3546E-07 -0.6910E-15 -0.1064E-06 -0.4607E-15 -0.7093E-07 -0.9060E-17 -0.1400E-08 -0.1359E-16 -0.2099E-08 -0.3396E-17 -0.5248E-09 -0.2718E-16 -0.4199E-08 -0.1133E-17 -0.1750E-09
     -1.238  0.0000E+00 -0.2117E-09  0.0000E+00 -0.1978E-11  0.0000E+00 -0.5934E-11  0.0000E+00 -0.3956E-11  0.0000E+00 -0.7806E-13  0.0000E+00 -0.1171E-12  0.0000E+00 -0.2927E-13  0.0000E+00 -0.2342E-12  0.0000E+00 -0.9758E-14
     -1.175  0.0000E+00 -0.3964E-15  0.0000E+00 -0.3704E-17  0.0000E+00 -0.1111E-16  0.0000E+00 -0.7407E-17  0.0000E+00 -0.1462E-18  0.0000E+00 -0.2192E-18  0.0000E+00 -0.5481E-19  0.0000E+00 -0.4385E-18  0.0000E+00 -0.1827E-19
     -1.111  0.0000E+00  0.0000E+00  0.0000E+00  0.0000E+00  0.0000E+00  0.0000E+00  0.0000E+00  0.0000E+00  0.0000E+00  0.0000E+00  0.0000E+00  0.0000E+00  0.0000E+00  0.0000E+00  0.0000E+00  0.0000E+00  0.0000E+00  0.0000E+00
     -1.048 -0.7360E-37  0.0000E+00 -0.2536E-38  0.0000E+00 -0.7609E-38  0.0000E+00 -0.1268E-38  0.0000E+00 -0.1905E-39  0.0000E+00 -0.1143E-38  0.0000E+00 -0.6430E-39  0.0000E+00 -0.5716E-39  0.0000E+00 -0.2382E-40  0.0000E+00
     -0.984 -0.2047E-27  0.0000E+00 -0.7054E-29  0.0000E+00 -0.2116E-28  0.0000E+00 -0.3527E-29  0.0000E+00 -0.5300E-30  0.0000E+00 -0.3180E-29  0.0000E+00 -0.1789E-29  0.0000E+00 -0.1590E-29  0.0000E+00 -0.6624E-31  0.0000E+00
     -0.921 -0.2203E-19 -0.5831E-34 -0.7590E-21 -0.2013E-35 -0.2277E-20 -0.6038E-35 -0.3795E-21 -0.1006E-35 -0.5702E-22 -0.1510E-36 -0.3421E-21 -0.9060E-36 -0.1924E-21 -0.5096E-36 -0.1711E-21 -0.4530E-36 -0.7127E-23 -0.1888E-37
     -0.857 -0.8768E-13 -0.6288E-25 -0.3021E-14 -0.2171E-26 -0.9064E-14 -0.6512E-26 -0.1511E-14 -0.1085E-26 -0.2270E-15 -0.1628E-27 -0.1362E-14 -0.9771E-27 -0.7660E-15 -0.5496E-27 -0.6809E-15 -0.4885E-27 -0.2837E-16 -0.2036E-28
     -0.794 -0.1323E-07 -0.2616E-17 -0.4558E-09 -0.9031E-19 -0.1367E-08 -0.2709E-18 -0.2279E-09 -0.4516E-19 -0.3424E-10 -0.6775E-20 -0.2055E-09 -0.4065E-19 -0.1156E-09 -0.2287E-19 -0.1027E-09 -0.2033E-19 -0.4280E-11 -0.8469E-21
     -0.730 -0.6916E-04 -0.3989E-11 -0.2383E-05 -0.1377E-12 -0.7149E-05 -0.4131E-12 -0.1192E-05 -0.6884E-13 -0.1790E-06 -0.1033E-13 -0.1074E-05 -0.6198E-13 -0.6042E-06 -0.3486E-13 -0.5371E-06 -0.3099E-13 -0.2238E-07 -0.1291E-14
     -0.667 -0.9296E-02 -0.2281E-06 -0.3203E-03 -0.7875E-08 -0.9610E-03 -0.2362E-07 -0.1602E-03 -0.3937E-08 -0.2406E-04 -0.5908E-09 -0.1444E-03 -0.3545E-08 -0.8122E-04 -0.1994E-08 -0.7219E-04 -0.1772E-08 -0.3008E-05 -0.7385E-10
     -0.603  0.1025E+00 -0.4339E-03  0.3533E-02 -0.1498E-04  0.1060E-01 -0.4494E-04  0.1766E-02 -0.7489E-05  0.2654E-03 -0.1124E-05  0.1592E-02 -0.6742E-05  0.8958E-03 -0.3793E-05  0.7962E-03 -0.3371E-05  0.3318E-04 -0.1405E-06
     -0.540  0.3465E+00 -0.1485E-01  0.1194E-01 -0.5125E-03  0.3581E-01 -0.1538E-02  0.5969E-02 -0.2563E-03  0.8968E-03 -0.3845E-04  0.5381E-02 -0.2307E-03  0.3027E-02 -0.1298E-03  0.2691E-02 -0.1154E-03  0.1121E-03 -0.4807E-05
     -0.476 -0.3664E-02  0.2350E+00 -0.1263E-03  0.8113E-02 -0.3788E-03  0.2434E-01 -0.6313E-04  0.4056E-02 -0.9485E-05  0.6086E-03 -0.5691E-04  0.3652E-02 -0.3201E-04  0.2054E-02 -0.2846E-04  0.1826E-02 -0.1186E-05  0.7608E-04
     -0.413 -0.1869E-02  0.2289E+00 -0.6441E-04  0.7903E-02 -0.1932E-03  0.2371E-01 -0.3221E-04  0.3952E-02 -0.4839E-05  0.5929E-03 -0.2903E-04  0.3557E-02 -0.1633E-04  0.2001E-02 -0.1452E-04  0.1779E-02 -0.6049E-06  0.7411E-04
     -0.349 -0.2659E-05 -0.1479E-01 -0.9162E-07 -0.5105E-03 -0.2749E-06 -0.1532E-02 -0.4581E-07 -0.2553E-03 -0.6883E-08 -0.3830E-04 -0.4130E-07 -0.2298E-03 -0.2323E-07 -0.1293E-03 -0.2065E-07 -0.1149E-03 -0.8603E-09 -0.4787E-05
     -0.286 -0.1183E-09 -0.4028E-03 -0.4076E-11 -0.1391E-04 -0.1223E-10 -0.4172E-04 -0.2038E-11 -0.6953E-05 -0.3062E-12 -0.1043E-05 -0.1837E-11 -0.6259E-05 -0.1033E-11 -0.3521E-05 -0.9186E-12 -0.3130E-05 -0.3827E-13 -0.1304E-06
     -0.222 -0.1928E-15 -0.2025E-06 -0.6642E-17 -0.6989E-08 -0.1993E-16 -0.2097E-07 -0.3321E-17 -0.3494E-08 -0.4990E-18 -0.5243E-09 -0.2994E-17 -0.3146E-08 -0.1684E-17 -0.1770E-08 -0.1497E-17 -0.1573E-08 -0.6238E-19 -0.6554E-10
     -0.159 -0.2343E-34 -0.3392E-11 -0.1644E-35 -0.1171E-12 -0.8251E-36 -0.3512E-12 -0.3287E-35 -0.5854E-13 -0.2019E-35 -0.8783E-14 -0.1255E-36 -0.5270E-13 -0.7060E-36 -0.2964E-13 -0.2509E-36 -0.2635E-13 -0.2524E-36 -0.1098E-14
     -0.095 -0.3312E-25  0.0000E+00 -0.2323E-26  0.0000E+00 -0.1166E-26  0.0000E+00 -0.4646E-26  0.0000E+00 -0.2854E-26  0.0000E+00 -0.1773E-27  0.0000E+00 -0.9980E-27  0.0000E+00 -0.3547E-27  0.0000E+00 -0.3568E-27  0.0000E+00
     -0.032 -0.1808E-17 -0.2095E-31 -0.1268E-18 -0.1473E-32 -0.6366E-19 -0.7389E-33 -0.2536E-18 -0.2946E-32 -0.1558E-18 -0.1813E-32 -0.9678E-20 -0.1129E-33 -0.5447E-19 -0.6300E-33 -0.1936E-19 -0.2258E-33 -0.1947E-19 -0.2266E-33
      0.032 -0.3625E-11 -0.1094E-22 -0.2543E-12 -0.7693E-24 -0.1277E-12 -0.3859E-24 -0.5086E-12 -0.1539E-23 -0.3124E-12 -0.9466E-24 -0.1941E-13 -0.5895E-25 -0.1092E-12 -0.3290E-24 -0.3883E-13 -0.1179E-24 -0.3906E-13 -0.1183E-24
      0.095 -0.2737E-06 -0.2200E-15 -0.1920E-07 -0.1547E-16 -0.9638E-08 -0.7758E-17 -0.3840E-07 -0.3093E-16 -0.2359E-07 -0.1903E-16 -0.1465E-08 -0.1185E-17 -0.8247E-08 -0.6615E-17 -0.2931E-08 -0.2370E-17 -0.2948E-08 -0.2379E-17
      0.159 -0.6965E-03 -0.1606E-09 -0.4886E-04 -0.1129E-10 -0.2453E-04 -0.5665E-11 -0.9772E-04 -0.2259E-10 -0.6003E-04 -0.1390E-10 -0.3729E-05 -0.8654E-12 -0.2099E-04 -0.4830E-11 -0.7460E-05 -0.1731E-11 -0.7503E-05 -0.1737E-11
      0.222 -0.3677E-01 -0.4355E-05 -0.2579E-02 -0.3062E-06 -0.1295E-02 -0.1536E-06 -0.5158E-02 -0.6124E-06 -0.3169E-02 -0.3768E-06 -0.1969E-03 -0.2346E-07 -0.1108E-02 -0.1310E-06 -0.3938E-03 -0.4693E-07 -0.3961E-03 -0.4710E-07
      0.286  0.5135E+00 -0.3748E-02  0.3602E-01 -0.2635E-03  0.1808E-01 -0.1322E-03  0.7204E-01 -0.5270E-03  0.4425E-01 -0.3242E-03  0.2749E-02 -0.2019E-04  0.1547E-01 -0.1127E-03  0.5500E-02 -0.4038E-04  0.5532E-02 -0.4053E-04
      0.349  0.7031E+00 -0.2215E-01  0.4932E-01 -0.1558E-02  0.2476E-01 -0.7814E-03  0.9865E-01 -0.3115E-02  0.6060E-01 -0.1917E-02  0.3765E-02 -0.1194E-03  0.2119E-01 -0.6662E-03  0.7530E-02 -0.2387E-03  0.7575E-02 -0.2396E-03
      0.413 -0.3819E-01  0.8621E+00 -0.2679E-02  0.6062E-01 -0.1345E-02  0.3041E-01 -0.5358E-02  0.1212E+00 -0.3291E-02  0.7459E-01 -0.2045E-03  0.4645E-02 -0.1151E-02  0.2592E-01 -0.4090E-03  0.9290E-02 -0.4114E-03  0.9324E-02
      0.476 -0.1696E-02  0.3292E+00 -0.1190E-03  0.2314E-01 -0.5973E-04  0.1161E-01 -0.2379E-03  0.4628E-01 -0.1462E-03  0.2848E-01 -0.9081E-05  0.1773E-02 -0.5111E-04  0.9898E-02 -0.1816E-04  0.3547E-02 -0.1827E-04  0.3560E-02
      0.540 -0.1143E-05 -0.2799E-01 -0.8016E-07 -0.1968E-02 -0.4024E-07 -0.9871E-03 -0.1603E-06 -0.3935E-02 -0.9848E-07 -0.2421E-02 -0.6119E-08 -0.1508E-03 -0.3444E-07 -0.8416E-03 -0.1224E-07 -0.3016E-03 -0.1231E-07 -0.3027E-03
      0.603 -0.2528E-10 -0.2636E-03 -0.1773E-11 -0.1854E-04 -0.8903E-12 -0.9299E-05 -0.3547E-11 -0.3707E-04 -0.2179E-11 -0.2281E-04 -0.1354E-12 -0.1420E-05 -0.7618E-12 -0.7928E-05 -0.2707E-12 -0.2841E-05 -0.2723E-12 -0.2851E-05
      0.667  0.0000E+00 -0.6108E-07  0.0000E+00 -0.4294E-08  0.0000E+00 -0.2154E-08  0.0000E+00 -0.8589E-08  0.0000E+00 -0.5284E-08  0.0000E+00 -0.3291E-09  0.0000E+00 -0.1837E-08  0.0000E+00 -0.6582E-09  0.0000E+00 -0.6605E-09