    1    1    1    2
  0.1813235E+02  0.2866544E-09  0.2866544E-09  0.2866544E-09  0.5000000E-15
  1.000000000000000E-004
  CAR 
 unknown system                          
    5   14    6
 
  0.8333333E-01  0.8333333E-01  0.8333333E-01  0.3703704E-01
   1       -0.585192     -0.476692
   2        5.461735      5.565803
   3        5.461735      5.565803
   4        8.520277      8.621404
   5        9.411191      9.484808
   6        9.411191      9.484808
 
  0.2500000E+00  0.8333333E-01  0.8333333E-01  0.1111111E+00
   1        1.540725      1.647638
   2        4.441612      4.547422
   3        5.018421      5.119815
   4        9.588907      9.667097
   5       10.195548     10.265581
   6       11.909492     12.004326
 
  0.4166667E+00  0.8333333E-01  0.8333333E-01  0.5555556E-01
   1        1.929187      2.033763
   2        4.067474      4.174074
   3        6.526799      6.629729
   4        9.791800      9.869098
   5       10.603201     10.670195
   6       14.382327     14.469242
 
 -0.8333333E-01  0.8333333E-01  0.8333333E-01  0.2777778E-01
   1       -1.642543     -1.533566
   2        6.335619      6.440159
   3        6.335624      6.440162
   4        6.700428      6.804436
   5        8.702849      8.777120
   6       10.000394     10.068384
 
  0.2500000E+00  0.2500000E+00  0.8333333E-01  0.1111111E+00
   1        3.140397      3.247092
   2        4.281320      4.382853
   3        4.906202      5.010199
   4       10.101224     10.176607
   5       10.555386     10.625292
   6       14.978547     15.085175
 
 -0.2500000E+00  0.2500000E+00  0.8333333E-01  0.1111111E+00
   1        0.290705      0.398273
   2        5.404133      5.509772
   3        5.559177      5.656910
   4        8.141372      8.227318
   5        8.876420      8.976748
   6       10.442406     10.510751
 
 -0.4166667E+00  0.4166667E+00  0.8333333E-01  0.1111111E+00
   1        1.559462      1.663859
   2        4.569998      4.676397
   3        5.956416      6.052781
   4        8.973699      9.059297
   5       10.912196     10.985686
   6       12.446589     12.537290
 
 -0.2500000E+00  0.4166667E+00  0.8333333E-01  0.1111111E+00
   1        2.186557      2.291725
   2        4.344875      4.439459
   3        5.524692      5.628852
   4        8.240618      8.332330
   5       10.361664     10.441235
   6       12.018786     12.108394
 
 -0.4166667E+00 -0.4166667E+00  0.8333333E-01  0.1111111E+00
   1        2.776952      2.878826
   2        4.612950      4.715391
   3        4.959729      5.053473
   4        8.808569      8.898313
   5       11.044059     11.129252
   6       15.254233     15.339797
 
  0.2500000E+00  0.2500000E+00  0.2500000E+00  0.9259259E-02
   1        4.430370      4.535050
   2        4.430374      4.535057
   3        4.430374      4.535057
   4       10.731441     10.797568
   5       10.731441     10.797568
   6       12.696409     12.809477
 
 -0.2500000E+00  0.2500000E+00  0.2500000E+00  0.2777778E-01
   1        1.918571      2.021927
   2        4.750214      4.836156
   3        6.921099      7.024777
   4        6.921102      7.024778
   5        8.857435      8.957464
   6       10.667070     10.743496
 
 -0.4166667E+00  0.4166667E+00  0.2500000E+00  0.1111111E+00
   1        2.839859      2.934772
   2        3.679388      3.769917
   3        6.855875      6.959519
   4        7.545444      7.644239
   5       11.944402     12.036387
   6       11.992520     12.086939
 
 -0.4166667E+00 -0.4166667E+00  0.2500000E+00  0.3703704E-01
   1        2.991437      3.081600
   2        2.991437      3.081602
   3        6.429516      6.534857
   4       10.635910     10.732293
   5       10.635911     10.732297
   6       15.578120     15.678133
 
 -0.4166667E+00  0.4166667E+00  0.4166667E+00  0.2777778E-01
   1        2.231400      2.321104
   2        2.328139      2.418508
   3       10.308613     10.407709
   4       10.308613     10.407711
   5       11.855014     11.946166
   6       12.579540     12.687091
