    1    1    1    1
  0.1813235E+02  0.2866544E-09  0.2866544E-09  0.2866544E-09  0.5000000E-15
  1.000000000000000E-004
  CAR 
 unknown system                          
    5   14    6
 
  0.8333333E-01  0.8333333E-01  0.8333333E-01  0.3703704E-01
   1       -0.531212
   2        5.519452
   3        5.519452
   4        8.578574
   5        9.454376
   6        9.454376
 
  0.2500000E+00  0.8333333E-01  0.8333333E-01  0.1111111E+00
   1        1.595021
   2        4.499518
   3        5.072275
   4        9.635267
   5       10.237746
   6       11.965518
 
  0.4166667E+00  0.8333333E-01  0.8333333E-01  0.5555556E-01
   1        1.983527
   2        4.125594
   3        6.579371
   4        9.837669
   5       10.644514
   6       14.435628
 
 -0.8333333E-01  0.8333333E-01  0.8333333E-01  0.2777778E-01
   1       -1.588520
   2        6.394648
   3        6.394649
   4        6.759617
   5        8.745237
   6       10.041112
 
  0.2500000E+00  0.2500000E+00  0.8333333E-01  0.1111111E+00
   1        3.196657
   2        4.335340
   3        4.961058
   4       10.146515
   5       10.598062
   6       15.035793
 
 -0.2500000E+00  0.2500000E+00  0.8333333E-01  0.1111111E+00
   1        0.344479
   2        5.462856
   3        5.612128
   4        8.190168
   5        8.934585
   6       10.483879
 
 -0.4166667E+00  0.4166667E+00  0.8333333E-01  0.1111111E+00
   1        1.613273
   2        4.628524
   3        6.005937
   4        9.022651
   5       10.955764
   6       12.502230
 
 -0.2500000E+00  0.4166667E+00  0.8333333E-01  0.1111111E+00
   1        2.240195
   2        4.395203
   3        5.581393
   4        8.292773
   5       10.408906
   6       12.071623
 
 -0.4166667E+00 -0.4166667E+00  0.8333333E-01  0.1111111E+00
   1        2.830223
   2        4.668385
   3        5.008476
   4        8.859677
   5       11.094187
   6       15.305255
 
  0.2500000E+00  0.2500000E+00  0.2500000E+00  0.9259259E-02
   1        4.486086
   2        4.486087
   3        4.486087
   4       10.772500
   5       10.772500
   6       12.755387
 
 -0.2500000E+00  0.2500000E+00  0.2500000E+00  0.2777778E-01
   1        1.970487
   2        4.795888
   3        6.978837
   4        6.978838
   5        8.915559
   6       10.711889
 
 -0.4166667E+00  0.4166667E+00  0.2500000E+00  0.1111111E+00
   1        2.889021
   2        3.726529
   3        6.913576
   4        7.599790
   5       12.000199
   6       12.044142
 
 -0.4166667E+00 -0.4166667E+00  0.2500000E+00  0.3703704E-01
   1        3.038431
   2        3.038432
   3        6.486831
   4       10.691195
   5       10.691195
   6       15.633215
 
 -0.4166667E+00  0.4166667E+00  0.4166667E+00  0.2777778E-01
   1        2.278070
   2        2.375058
   3       10.364901
   4       10.364901
   5       11.910599
   6       12.634939
