Automatically generated mesh
      14
Reciprocal lattice
    0.08333333333333    0.08333333333333    0.08333333333333             8
    0.25000000000000    0.08333333333333    0.08333333333333            24
    0.41666666666667    0.08333333333333    0.08333333333333            12
   -0.08333333333333    0.08333333333333    0.08333333333333             6
    0.25000000000000    0.25000000000000    0.08333333333333            24
   -0.25000000000000    0.25000000000000    0.08333333333333            24
   -0.41666666666667    0.41666666666667    0.08333333333333            24
   -0.25000000000000    0.41666666666667    0.08333333333333            24
   -0.41666666666667   -0.41666666666667    0.08333333333333            24
    0.25000000000000    0.25000000000000    0.25000000000000             2
   -0.25000000000000    0.25000000000000    0.25000000000000             6
   -0.41666666666667    0.41666666666667    0.25000000000000            24
   -0.41666666666667   -0.41666666666667    0.25000000000000             8
   -0.41666666666667    0.41666666666667    0.41666666666667             6
