       N       E                     dE             d eps       ncg     rms          rms(c)
DAV:   1    -0.262025383356E+01   -0.26203E+01   -0.13731E+03   174   0.419E+02
DAV:   2    -0.122650644941E+02   -0.96448E+01   -0.89194E+01   294   0.670E+01
DAV:   3    -0.123218136820E+02   -0.56749E-01   -0.53790E-01   168   0.733E+00
DAV:   4    -0.123219478827E+02   -0.13420E-03   -0.13419E-03   240   0.293E-01
DAV:   5    -0.123219482666E+02   -0.38391E-06   -0.38446E-06   138   0.807E-03    0.308E+00
DAV:   6    -0.120208279931E+02    0.30112E+00   -0.19832E-01   186   0.323E+00    0.169E+00
DAV:   7    -0.118820497391E+02    0.13878E+00   -0.27917E-01   198   0.386E+00    0.151E-01
DAV:   8    -0.118810657694E+02    0.98397E-03   -0.68787E-04   192   0.228E-01    0.427E-02
DAV:   9    -0.118810402055E+02    0.25564E-04   -0.86222E-05   144   0.656E-02
   1 F= -.11881040E+02 E0= -.11880442E+02  d E =-.179578E-02
