       N       E                     dE             d eps       ncg     rms          rms(c)
DAV:   1     0.116029359009E+02    0.11603E+02   -0.19452E+03   360   0.549E+02
DAV:   2    -0.123396584067E+01   -0.12837E+02   -0.11339E+02   600   0.761E+01
DAV:   3    -0.133658282045E+01   -0.10262E+00   -0.10253E+00   342   0.964E+00
DAV:   4    -0.133702418619E+01   -0.44137E-03   -0.44136E-03   468   0.423E-01
DAV:   5    -0.133702642870E+01   -0.22425E-05   -0.22416E-05   312   0.214E-02    0.799E+00
DAV:   6    -0.117811914219E+02   -0.10444E+02   -0.38085E+00   360   0.960E+00    0.377E+00
DAV:   7    -0.118659540076E+02   -0.84763E-01   -0.34027E-02   366   0.171E+00    0.303E+00
DAV:   8    -0.114463016015E+02    0.41965E+00   -0.22284E-01   390   0.380E+00    0.436E+00
DAV:   9    -0.118419043879E+02   -0.39560E+00   -0.30548E-01   384   0.473E+00    0.133E+00
DAV:  10    -0.118616923490E+02   -0.19788E-01   -0.17626E-03   354   0.392E-01    0.103E+00
DAV:  11    -0.118615060488E+02    0.18630E-03   -0.18929E-05   270   0.347E-02    0.104E+00
DAV:  12    -0.118823787189E+02   -0.20873E-01   -0.27166E-02   360   0.123E+00    0.176E-01
DAV:  13    -0.118827246475E+02   -0.34593E-03   -0.11244E-03   384   0.291E-01    0.547E-02
DAV:  14    -0.118827999374E+02   -0.75290E-04   -0.58818E-05   186   0.552E-02
   1 F= -.11882800E+02 E0= -.11882686E+02  d E =-.341070E-03  mag=     0.1634
