 vasp.5.2.12 11Nov11 complex                                                    
  
 executed on             LinuxIFC date 2012.10.17  10:14:53
 running on    1 nodes
 distr:  one band on    1 nodes,    1 groups


--------------------------------------------------------------------------------------------------------


 INCAR:
 POTCAR:    PAW_PBE Ta 17Jan2003                  
 POTCAR:    PAW_PBE Ta 17Jan2003                  
   VRHFIN =Ta:  6s5d                                                            
   LEXCH  = PE                                                                  
   EATOM  =   130.6506 eV,    9.6025 Ry                                         
                                                                                
   TITEL  = PAW_PBE Ta 17Jan2003                                                
   LULTRA =        F    use ultrasoft PP ?                                      
   IUNSCR =        1    unscreen: 0-lin 1-nonlin 2-no                           
   RPACOR =    2.330    partial core radius                                     
   POMASS =  180.948; ZVAL   =    5.000    mass and valenz                      
   RCORE  =    2.900    outmost cutoff radius                                   
   RWIGS  =    2.840; RWIGS  =    1.503    wigner-seitz radius (au A)           
   ENMAX  =  223.667; ENMIN  =  167.750 eV                                      
   RCLOC  =    2.205    cutoff for local pot                                    
   LCOR   =        T    correct aug charges                                     
   LPAW   =        T    paw PP                                                  
   EAUG   =  332.075                                                            
   DEXC   =    -.049                                                            
   RMAX   =    3.083    core radius for proj-oper                               
   RAUG   =    1.300    factor for augmentation sphere                          
   RDEP   =    3.060    radius for radial grids                                 
   QCUT   =   -4.055; QGAM   =    8.109    optimization parameters              
                                                                                
   Description                                                                  
     l     E      TYP  RCUT    TYP  RCUT                                        
     2   .000     23  2.500                                                     
     2   .000     23  2.500                                                     
     0   .000     23  2.500                                                     
     0   .000     23  2.500                                                     
     1   .000     23  2.900                                                     
     1  2.000     23  2.900                                                     
     3   .000      7   .000                                                     
  local pseudopotential read in
  partial core-charges read in
  atomic valenz-charges read in
  non local Contribution for L=           2  read in
    real space projection operators read in
  non local Contribution for L=           2  read in
    real space projection operators read in
  non local Contribution for L=           0  read in
    real space projection operators read in
  non local Contribution for L=           0  read in
    real space projection operators read in
  non local Contribution for L=           1  read in
    real space projection operators read in
  non local Contribution for L=           1  read in
    real space projection operators read in
    PAW grid and wavefunctions read in
 
   number of l-projection  operators is LMAX  =           6
   number of lm-projection operators is LMMAX =          18
 
  PAW_PBE Ta 17Jan2003                  :
 energy of atom  1       EATOM= -130.6506
 kinetic energy error for atom=    0.0044 (will be added to EATOM!!)
 
 
 POSCAR: Ta                                      
  positions in cartesian coordinates
  No initial velocities read in
 exchange correlation table for  LEXCH =        8
   RHO(1)=    0.500       N(1)  =     2000
   RHO(2)=  100.500       N(2)  =     4000
 


--------------------------------------------------------------------------------------------------------


 ion  position               nearest neighbor table
   1  0.000  0.000  0.000-
 
  LATTYP: Found a body centered cubic cell.
 ALAT       =     3.3100000000
  
  Lattice vectors:
  
 A1 = (   2.8665440865,   0.0000000000,   0.0000000000)
 A2 = (  -0.9555146955,   2.7026036829,   0.0000000000)
 A3 = (  -0.9555146955,  -1.3513018414,   2.3405234457)
 Subroutine PRICEL returns:
 Original cell was already a primitive cell.
 

Analysis of symmetry for initial positions (statically):

 Routine SETGRP: Setting up the symmetry group for a 
 body centered cubic supercell.


 Subroutine GETGRP returns: Found 48 space group operations
 (whereof 48 operations were pure point group operations)
 out of a pool of 48 trial point group operations.


The static configuration has the point symmetry O_h .

Analysis of symmetry for dynamics (positions and initial velocities):

 Subroutine DYNSYM returns: Found 48 space group operations
 (whereof 48 operations were pure point group operations)
 out of a pool of 48 trial space group operations
 (whereof 48 operations were pure point group operations)
 and found also     1 'primitive' translations


The dynamic configuration has the point symmetry O_h .

Analysis of magnetic symmetry:

 Subroutine MAGSYM returns: Found 48 space group operations
 (whereof 48 operations were pure point group operations)
 out of a pool of 48 trial space group operations
 (whereof 48 operations were pure point group operations)
 and found also     1 'primitive' translations


The magnetic configuration has the point symmetry O_h .
 
 
 KPOINTS: KPOINTS created by Atomic Simulation Env

Automatic generation of k-mesh.
 
 Subroutine IBZKPT returns following result:
 ===========================================
 
 Found     14 irreducible k-points:
 
 Following reciprocal coordinates:
            Coordinates               Weight
  0.083333  0.083333  0.083333      8.000000
  0.250000  0.083333  0.083333     24.000000
  0.416667  0.083333  0.083333     12.000000
 -0.083333  0.083333  0.083333      6.000000
  0.250000  0.250000  0.083333     24.000000
 -0.250000  0.250000  0.083333     24.000000
 -0.416667  0.416667  0.083333     24.000000
 -0.250000  0.416667  0.083333     24.000000
 -0.416667 -0.416667  0.083333     24.000000
  0.250000  0.250000  0.250000      2.000000
 -0.250000  0.250000  0.250000      6.000000
 -0.416667  0.416667  0.250000     24.000000
 -0.416667 -0.416667  0.250000      8.000000
 -0.416667  0.416667  0.416667      6.000000
 
 Following cartesian coordinates:
            Coordinates               Weight
  0.029071  0.041113  0.071209      8.000000
  0.087213  0.061669  0.106814     24.000000
  0.145355  0.082225  0.142418     12.000000
 -0.029071  0.020556  0.035605      6.000000
  0.087213  0.123338  0.142418     24.000000
 -0.087213  0.061669  0.035605     24.000000
 -0.145355  0.102782  0.035605     24.000000
 -0.087213  0.123338  0.071209     24.000000
 -0.145355 -0.205563 -0.142418     24.000000
  0.087213  0.123338  0.213627      2.000000
 -0.087213  0.061669  0.106814      6.000000
 -0.145355  0.102782  0.106814     24.000000
 -0.145355 -0.205563 -0.071209      8.000000
 -0.145355  0.102782  0.178023      6.000000
 


--------------------------------------------------------------------------------------------------------




 Dimension of arrays:
   k-points           NKPTS =     14   k-points in BZ     NKDIM =     14   number of bands    NBANDS=      6
   number of dos      NEDOS =    301   number of ions     NIONS =      1
   non local maximal  LDIM  =      6   non local SUM 2l+1 LMDIM =     18
   total plane-waves  NPLWV =   5832
   max r-space proj   IRMAX =      1   max aug-charges    IRDMAX=  22091
   dimension x,y,z NGX =    18 NGY =   18 NGZ =   18
   dimension x,y,z NGXF=    36 NGYF=   36 NGZF=   36
   support grid    NGXF=    36 NGYF=   36 NGZF=   36
   ions per type =               1
 NGX,Y,Z   is equivalent  to a cutoff of  10.44, 10.44, 10.44 a.u.
 NGXF,Y,Z  is equivalent  to a cutoff of  20.88, 20.88, 20.88 a.u.


 I would recommend the setting:
   dimension x,y,z NGX =    17 NGY =   17 NGZ =   17
 SYSTEM =  unknown system                          
 POSCAR =  Ta                                      

 Startparameter for this run:
   NWRITE =      2    write-flag & timer
   PREC   = accura    normal or accurate (medium, high low for compatibility)
   ISTART =      0    job   : 0-new  1-cont  2-samecut
   ICHARG =      2    charge: 1-file 2-atom 10-const
   ISPIN  =      2    spin polarized calculation?
   LNONCOLLINEAR =      F non collinear calculations
   LSORBIT =      F    spin-orbit coupling
   INIWAV =      1    electr: 0-lowe 1-rand  2-diag
   LASPH  =      F    aspherical Exc in radial PAW
   METAGGA=      F    non-selfconsistent MetaGGA calc.

 Electronic Relaxation 1
   ENCUT  =  350.0 eV  25.72 Ry    5.07 a.u.   4.37  4.37  4.37*2*pi/ulx,y,z
   ENINI  =  350.0     initial cutoff
   ENAUG  =  332.1 eV  augmentation charge cutoff
   NELM   =     60;   NELMIN=  2; NELMDL= -5     # of ELM steps 
   EDIFF  = 0.1E-03   stopping-criterion for ELM
   LREAL  =      F    real-space projection
   NLSPLINE    = F    spline interpolate recip. space projectors
   LCOMPAT=      F    compatible to vasp.4.4
   GGA_COMPAT  = T    GGA compatible to vasp.4.4-vasp.4.6
   LMAXPAW     = -100 max onsite density
   LMAXMIX     =    2 max onsite mixed and CHGCAR
   VOSKOWN=      0    Vosko Wilk Nusair interpolation
   ROPT   =    0.00000
 Ionic relaxation
   EDIFFG = 0.1E-02   stopping-criterion for IOM
   NSW    =      0    number of steps for IOM
   NBLOCK =      1;   KBLOCK =      1    inner block; outer block 
   IBRION =     -1    ionic relax: 0-MD 1-quasi-New 2-CG
   NFREE  =      0    steps in history (QN), initial steepest desc. (CG)
   ISIF   =      2    stress and relaxation
   IWAVPR =     10    prediction:  0-non 1-charg 2-wave 3-comb
   ISYM   =      2    0-nonsym 1-usesym 2-fastsym
   LCORR  =      T    Harris-Foulkes like correction to forces

   POTIM  = 0.5000    time-step for ionic-motion
   TEIN   =    0.0    initial temperature
   TEBEG  =    0.0;   TEEND  =   0.0 temperature during run
   SMASS  =  -3.00    Nose mass-parameter (am)
   estimated Nose-frequenzy (Omega)   =  0.10E-29 period in steps =****** mass=  -0.188E-27a.u.
   SCALEE = 1.0000    scale energy and forces
   NPACO  =    256;   APACO  = 16.0  distance and # of slots for P.C.
   PSTRESS=    0.0 pullay stress

  Mass of Ions in am
   POMASS = 180.95
  Ionic Valenz
   ZVAL   =   5.00
  Atomic Wigner-Seitz radii
   RWIGS  =  -1.00
  virtual crystal weights 
   VCA    =   1.00
   NELECT =       5.0000    total number of electrons
   NUPDOWN=      -1.0000    fix difference up-down

 DOS related values:
   EMIN   =  10.00;   EMAX   =-10.00  energy-range for DOS
   EFERMI =   0.00
   ISMEAR =     1;   SIGMA  =   0.05  broadening in eV -4-tet -1-fermi 0-gaus

 Electronic relaxation 2 (details)
   IALGO  =     38    algorithm
   LDIAG  =      T    sub-space diagonalisation (order eigenvalues)
   LSUBROT=      T    optimize rotation matrix (better conditioning)
   TURBO    =      0    0=normal 1=particle mesh
   IRESTART =      0    0=no restart 2=restart with 2 vectors
   NREBOOT  =      0    no. of reboots
   NMIN     =      0    reboot dimension
   EREF     =   0.00    reference energy to select bands
   IMIX   =      4    mixing-type and parameters
     AMIX     =   0.40;   BMIX     =  1.00
     AMIX_MAG =   1.60;   BMIX_MAG =  1.00
     AMIN     =   0.10
     WC   =   100.;   INIMIX=   1;  MIXPRE=   1

 Intra band minimization:
   WEIMIN = 0.0000     energy-eigenvalue tresh-hold
   EBREAK =  0.42E-05  absolut break condition
   DEPER  =   0.30     relativ break condition  

   TIME   =   0.40     timestep for ELM

  volume/ion in A,a.u.               =      18.13       122.36
  Fermi-wavevector in a.u.,A,eV,Ry     =   1.065566  2.013627 15.448462  1.135430
  Thomas-Fermi vector in A             =   2.201121
 
 Write flags
   LWAVE  =      T    write WAVECAR
   LCHARG =      T    write CHGCAR
   LVTOT  =      F    write LOCPOT, total local potential
   LVHAR  =      F    write LOCPOT, Hartree potential only
   LELF   =      F    write electronic localiz. function (ELF)
   LORBIT =     11    0 simple, 1 ext, 2 COOP (PROOUT)


 Dipole corrections
   LMONO  =      F    monopole corrections only (constant potential shift)
   LDIPOL =      F    correct potential (dipole corrections)
   IDIPOL =      0    1-x, 2-y, 3-z, 4-all directions 
   EPSILON=  1.0000000 bulk dielectric constant

 Exchange correlation treatment:
   GGA     =    --    GGA type
   LEXCH   =     8    internal setting for exchange type
   VOSKOWN=      0    Vosko Wilk Nusair interpolation
   LHFCALC =     F    Hartree Fock is set to
   LHFONE  =     F    Hartree Fock one center treatment
   AEXX    =    0.0000 exact exchange contribution

 Linear response parameters
   LEPSILON=     F    determine dielectric tensor
   LRPA    =     F    only Hartree local field effects (RPA)
   LNABLA  =     F    use nabla operator in PAW spheres
   LVEL    =     F    velocity operator in full k-point grid
   LINTERFAST=   F  fast interpolation
   KINTER  =     0    interpolate to denser k-point grid
   CSHIFT  =0.1000    complex shift for real part using Kramers Kronig
   OMEGAMAX=  -1.0    maximum frequency
   RTIME   =    0.100 relaxation time in fs

 Orbital magnetization related:
   ORBITALMAG=     F  switch on orbital magnetization
   LCHIMAG   =     F  perturbation theory with respect to B field
   DQ        =  0.001000  dq finite difference perturbation B field



--------------------------------------------------------------------------------------------------------


 Static calculation
 charge density and potential will be updated during run
 spin polarized calculation
 Variant of blocked Davidson
 Davidson routine will perform the subspace rotation
 perform sub-space diagonalisation
    after iterative eigenvector-optimisation
 modified Broyden-mixing scheme, WC =      100.0
 initial mixing is a Kerker type mixing with AMIX =  0.4000 and BMIX =      1.0000
 Hartree-type preconditioning will be used
 using additional bands            3
 reciprocal scheme for non local part
 use partial core corrections
 calculate Harris-corrections to forces 
   (improved forces if not selfconsistent)
 use gradient corrections 
 use of overlap-Matrix (Vanderbilt PP)
 Methfessel and Paxton  Order N= 1 SIGMA  =   0.05


--------------------------------------------------------------------------------------------------------


  energy-cutoff  :      350.00
  volume of cell :       18.13
      direct lattice vectors                 reciprocal lattice vectors
     2.866544087  0.000000000  0.000000000     0.348852126  0.123337852  0.213627426
    -0.955514696  2.702603683  0.000000000     0.000000000  0.370013556  0.213627426
    -0.955514696 -1.351301841  2.340523446     0.000000000  0.000000000  0.427254853

  length of vectors
     2.866544087  2.866544087  2.866544087     0.427254853  0.427254853  0.427254853


 
 k-points in units of 2pi/SCALE and weight: KPOINTS created by Atomic Simulation Env
   0.02907101  0.04111262  0.07120914       0.037
   0.08721303  0.06166893  0.10681371       0.111
   0.14535505  0.08222523  0.14241828       0.056
  -0.02907101  0.02055631  0.03560457       0.028
   0.08721303  0.12333785  0.14241828       0.111
  -0.08721303  0.06166893  0.03560457       0.111
  -0.14535505  0.10278154  0.03560457       0.111
  -0.08721303  0.12333785  0.07120914       0.111
  -0.14535505 -0.20556309 -0.14241828       0.111
   0.08721303  0.12333785  0.21362743       0.009
  -0.08721303  0.06166893  0.10681371       0.028
  -0.14535505  0.10278154  0.10681371       0.111
  -0.14535505 -0.20556309 -0.07120914       0.037
  -0.14535505  0.10278154  0.17802286       0.028
 
 k-points in reciprocal lattice and weights: KPOINTS created by Atomic Simulation Env
   0.08333333  0.08333333  0.08333333       0.037
   0.25000000  0.08333333  0.08333333       0.111
   0.41666667  0.08333333  0.08333333       0.056
  -0.08333333  0.08333333  0.08333333       0.028
   0.25000000  0.25000000  0.08333333       0.111
  -0.25000000  0.25000000  0.08333333       0.111
  -0.41666667  0.41666667  0.08333333       0.111
  -0.25000000  0.41666667  0.08333333       0.111
  -0.41666667 -0.41666667  0.08333333       0.111
   0.25000000  0.25000000  0.25000000       0.009
  -0.25000000  0.25000000  0.25000000       0.028
  -0.41666667  0.41666667  0.25000000       0.111
  -0.41666667 -0.41666667  0.25000000       0.037
  -0.41666667  0.41666667  0.41666667       0.028
 
 position of ions in fractional coordinates (direct lattice) 
   0.00000000  0.00000000  0.00000000
 
 position of ions in cartesian coordinates  (Angst):
   0.00000000  0.00000000  0.00000000
 


--------------------------------------------------------------------------------------------------------


 k-point  1 :  0.08330.08330.0833  plane waves:     276
 k-point  2 :  0.25000.08330.0833  plane waves:     269
 k-point  3 :  0.41670.08330.0833  plane waves:     268
 k-point  4 :  -.08330.08330.0833  plane waves:     269
 k-point  5 :  0.25000.25000.0833  plane waves:     272
 k-point  6 :  -.25000.25000.0833  plane waves:     273
 k-point  7 :  -.41670.41670.0833  plane waves:     272
 k-point  8 :  -.25000.41670.0833  plane waves:     270
 k-point  9 :  -.4167-.41670.0833  plane waves:     272
 k-point 10 :  0.25000.25000.2500  plane waves:     276
 k-point 11 :  -.25000.25000.2500  plane waves:     277
 k-point 12 :  -.41670.41670.2500  plane waves:     263
 k-point 13 :  -.4167-.41670.2500  plane waves:     267
 k-point 14 :  -.41670.41670.4167  plane waves:     261

 maximum and minimum number of plane-waves per node :       277      261

 maximum number of plane-waves:       277
 maximum index in each direction: 
   IXMAX=    4   IYMAX=    4   IZMAX=    4
   IXMIN=   -4   IYMIN=   -4   IZMIN=   -4

 NGX is ok and might be reduce to  18
 NGY is ok and might be reduce to  18
 NGZ is ok and might be reduce to  18

 serial   3D FFT for wavefunctions
 parallel 3D FFT for charge:
    minimum data exchange during FFTs selected (reduces bandwidth)


 total amount of memory used by VASP on root node    37042. kBytes
========================================================================

   base      :      30000. kBytes
   nonl-proj :        562. kBytes
   fftplans  :       1676. kBytes
   grid      :       3981. kBytes
   one-center:         31. kBytes
   wavefun   :        792. kBytes
 
 Broyden mixing: mesh for mixing (old mesh)
   NGX =  9   NGY =  9   NGZ =  9
  (NGX  = 36   NGY  = 36   NGZ  = 36)
  gives a total of    729 points

 initial charge density was supplied:
 charge density of overlapping atoms calculated
 number of electron       5.0000000 magnetization       6.0000000
 keeping initial charge density in first step


--------------------------------------------------------------------------------------------------------


 Maximum index for augmentation-charges        21187 (set IRDMAX)


--------------------------------------------------------------------------------------------------------


 First call to EWALD:  gamma=   0.675
 Maximum number of real-space cells 3x 3x 3
 Maximum number of reciprocal cells 3x 3x 3

    FEWALD:  cpu time    0.00: real time    0.00


----------------------------------------- Iteration    1(   1)  ---------------------------------------


    POTLOK:  cpu time    0.14: real time    0.14
    SETDIJ:  cpu time    0.03: real time    0.05
     EDDAV:  cpu time    0.33: real time    0.33
       DOS:  cpu time    0.00: real time    0.00
    --------------------------------------------
      LOOP:  cpu time    0.51: real time    0.55

 eigenvalue-minimisations  :   360
 total energy-change (2. order) : 0.1160294E+02  (-0.1945219E+03)
 number of electron       5.0000000 magnetization       6.0000000
 augmentation part        5.0000000 magnetization       6.0000000

 Free energy of the ion-electron system (eV)
  ---------------------------------------------------
  alpha Z        PSCENC =        30.58334069
  Ewald energy   TEWEN  =      -197.90100875
  -1/2 Hartree   DENC   =        -2.50452612
  -exchange  EXHF       =         0.00000000
  -V(xc)+E(xc)   XCENC  =       -60.69825643
  PAW double counting   =       143.51874798      -69.33493833
  entropy T*S    EENTRO =        -0.00066584
  eigenvalues    EBANDS =        37.29402789
  atomic energy  EATOM  =       130.64621481
  ---------------------------------------------------
  free energy    TOTEN  =        11.60293590 eV

  energy without entropy =       11.60360174  energy(sigma->0) =       11.60315785


--------------------------------------------------------------------------------------------------------




----------------------------------------- Iteration    1(   2)  ---------------------------------------


     EDDAV:  cpu time    0.51: real time    0.51
       DOS:  cpu time    0.00: real time    0.00
    --------------------------------------------
      LOOP:  cpu time    0.52: real time    0.57

 eigenvalue-minimisations  :   600
 total energy-change (2. order) :-0.1283690E+02  (-0.1133937E+02)
 number of electron       5.0000000 magnetization       6.0000000
 augmentation part        5.0000000 magnetization       6.0000000

 Free energy of the ion-electron system (eV)
  ---------------------------------------------------
  alpha Z        PSCENC =        30.58334069
  Ewald energy   TEWEN  =      -197.90100875
  -1/2 Hartree   DENC   =        -2.50452612
  -exchange  EXHF       =         0.00000000
  -V(xc)+E(xc)   XCENC  =       -60.69825643
  PAW double counting   =       143.51874798      -69.33493833
  entropy T*S    EENTRO =        -0.00130649
  eigenvalues    EBANDS =        24.45776680
  atomic energy  EATOM  =       130.64621481
  ---------------------------------------------------
  free energy    TOTEN  =        -1.23396584 eV

  energy without entropy =       -1.23265935  energy(sigma->0) =       -1.23353034


--------------------------------------------------------------------------------------------------------




----------------------------------------- Iteration    1(   3)  ---------------------------------------


     EDDAV:  cpu time    0.33: real time    0.33
       DOS:  cpu time    0.00: real time    0.00
    --------------------------------------------
      LOOP:  cpu time    0.33: real time    0.33

 eigenvalue-minimisations  :   342
 total energy-change (2. order) :-0.1026170E+00  (-0.1025255E+00)
 number of electron       5.0000000 magnetization       6.0000000
 augmentation part        5.0000000 magnetization       6.0000000

 Free energy of the ion-electron system (eV)
  ---------------------------------------------------
  alpha Z        PSCENC =        30.58334069
  Ewald energy   TEWEN  =      -197.90100875
  -1/2 Hartree   DENC   =        -2.50452612
  -exchange  EXHF       =         0.00000000
  -V(xc)+E(xc)   XCENC  =       -60.69825643
  PAW double counting   =       143.51874798      -69.33493833
  entropy T*S    EENTRO =        -0.00127571
  eigenvalues    EBANDS =        24.35511904
  atomic energy  EATOM  =       130.64621481
  ---------------------------------------------------
  free energy    TOTEN  =        -1.33658282 eV

  energy without entropy =       -1.33530711  energy(sigma->0) =       -1.33615758


--------------------------------------------------------------------------------------------------------




----------------------------------------- Iteration    1(   4)  ---------------------------------------


     EDDAV:  cpu time    0.42: real time    0.42
       DOS:  cpu time    0.00: real time    0.00
    --------------------------------------------
      LOOP:  cpu time    0.42: real time    0.43

 eigenvalue-minimisations  :   468
 total energy-change (2. order) :-0.4413657E-03  (-0.4413622E-03)
 number of electron       5.0000000 magnetization       6.0000000
 augmentation part        5.0000000 magnetization       6.0000000

 Free energy of the ion-electron system (eV)
  ---------------------------------------------------
  alpha Z        PSCENC =        30.58334069
  Ewald energy   TEWEN  =      -197.90100875
  -1/2 Hartree   DENC   =        -2.50452612
  -exchange  EXHF       =         0.00000000
  -V(xc)+E(xc)   XCENC  =       -60.69825643
  PAW double counting   =       143.51874798      -69.33493833
  entropy T*S    EENTRO =        -0.00127608
  eigenvalues    EBANDS =        24.35467805
  atomic energy  EATOM  =       130.64621481
  ---------------------------------------------------
  free energy    TOTEN  =        -1.33702419 eV

  energy without entropy =       -1.33574810  energy(sigma->0) =       -1.33659883


--------------------------------------------------------------------------------------------------------




----------------------------------------- Iteration    1(   5)  ---------------------------------------


     EDDAV:  cpu time    0.30: real time    0.30
       DOS:  cpu time    0.00: real time    0.00
    CHARGE:  cpu time    0.06: real time    0.06
    MIXING:  cpu time    0.00: real time    0.00
    --------------------------------------------
      LOOP:  cpu time    0.37: real time    0.40

 eigenvalue-minimisations  :   312
 total energy-change (2. order) :-0.2242508E-05  (-0.2241586E-05)
 number of electron       5.0000001 magnetization       1.7939902
 augmentation part        0.4515324 magnetization      -0.9078858

 Broyden mixing:
  rms(total) = 0.79862E+00    rms(broyden)= 0.79861E+00
  rms(prec ) = 0.10107E+01
  weight for this iteration     100.00

 Free energy of the ion-electron system (eV)
  ---------------------------------------------------
  alpha Z        PSCENC =        30.58334069
  Ewald energy   TEWEN  =      -197.90100875
  -1/2 Hartree   DENC   =        -2.50452612
  -exchange  EXHF       =         0.00000000
  -V(xc)+E(xc)   XCENC  =       -60.69825643
  PAW double counting   =       143.51874798      -69.33493833
  entropy T*S    EENTRO =        -0.00127608
  eigenvalues    EBANDS =        24.35467581
  atomic energy  EATOM  =       130.64621481
  ---------------------------------------------------
  free energy    TOTEN  =        -1.33702643 eV

  energy without entropy =       -1.33575035  energy(sigma->0) =       -1.33660107


--------------------------------------------------------------------------------------------------------




----------------------------------------- Iteration    1(   6)  ---------------------------------------


    POTLOK:  cpu time    0.15: real time    0.15
    SETDIJ:  cpu time    0.04: real time    0.04
     EDDAV:  cpu time    0.33: real time    0.33
       DOS:  cpu time    0.00: real time    0.00
    CHARGE:  cpu time    0.06: real time    0.06
    MIXING:  cpu time    0.00: real time    0.00
    --------------------------------------------
      LOOP:  cpu time    0.58: real time    0.59

 eigenvalue-minimisations  :   360
 total energy-change (2. order) :-0.1044416E+02  (-0.3808496E+00)
 number of electron       5.0000001 magnetization       1.4591365
 augmentation part        0.3658952 magnetization       0.8458455

 Broyden mixing:
  rms(total) = 0.37730E+00    rms(broyden)= 0.37729E+00
  rms(prec ) = 0.11552E+01
  weight for this iteration     100.00

 eigenvalues of (default mixing * dielectric matrix)
  average eigenvalue GAMMA=   1.4072
  1.4072

 Free energy of the ion-electron system (eV)
  ---------------------------------------------------
  alpha Z        PSCENC =        30.58334069
  Ewald energy   TEWEN  =      -197.90100875
  -1/2 Hartree   DENC   =        -1.98823025
  -exchange  EXHF       =         0.00000000
  -V(xc)+E(xc)   XCENC  =       -66.22315435
  PAW double counting   =       163.99490525      -90.04683264
  entropy T*S    EENTRO =         0.00008057
  eigenvalues    EBANDS =        19.15349324
  atomic energy  EATOM  =       130.64621481
  ---------------------------------------------------
  free energy    TOTEN  =       -11.78119142 eV

  energy without entropy =      -11.78127199  energy(sigma->0) =      -11.78121828


--------------------------------------------------------------------------------------------------------




----------------------------------------- Iteration    1(   7)  ---------------------------------------


    POTLOK:  cpu time    0.14: real time    0.14
    SETDIJ:  cpu time    0.04: real time    0.04
     EDDAV:  cpu time    0.34: real time    0.34
       DOS:  cpu time    0.00: real time    0.00
    CHARGE:  cpu time    0.06: real time    0.06
    MIXING:  cpu time    0.00: real time    0.00
    --------------------------------------------
      LOOP:  cpu time    0.58: real time    1.10

 eigenvalue-minimisations  :   366
 total energy-change (2. order) :-0.8476259E-01  (-0.3402662E-02)
 number of electron       5.0000001 magnetization       2.3200658
 augmentation part        0.3671092 magnetization       1.7078044

 Broyden mixing:
  rms(total) = 0.30326E+00    rms(broyden)= 0.30326E+00
  rms(prec ) = 0.10406E+01
  weight for this iteration     100.00

 eigenvalues of (default mixing * dielectric matrix)
  average eigenvalue GAMMA=   0.9530
  0.9530  0.9530

 Free energy of the ion-electron system (eV)
  ---------------------------------------------------
  alpha Z        PSCENC =        30.58334069
  Ewald energy   TEWEN  =      -197.90100875
  -1/2 Hartree   DENC   =        -1.80735755
  -exchange  EXHF       =         0.00000000
  -V(xc)+E(xc)   XCENC  =       -66.28856341
  PAW double counting   =       166.90742614      -93.01479965
  entropy T*S    EENTRO =         0.00077520
  eigenvalues    EBANDS =        19.00801850
  atomic energy  EATOM  =       130.64621481
  ---------------------------------------------------
  free energy    TOTEN  =       -11.86595401 eV

  energy without entropy =      -11.86672921  energy(sigma->0) =      -11.86621241


--------------------------------------------------------------------------------------------------------




----------------------------------------- Iteration    1(   8)  ---------------------------------------


    POTLOK:  cpu time    0.15: real time    0.15
    SETDIJ:  cpu time    0.04: real time    0.19
     EDDAV:  cpu time    0.35: real time    0.36
       DOS:  cpu time    0.00: real time    0.00
    CHARGE:  cpu time    0.06: real time    0.06
    MIXING:  cpu time    0.00: real time    0.00
    --------------------------------------------
      LOOP:  cpu time    0.61: real time    0.78

 eigenvalue-minimisations  :   390
 total energy-change (2. order) : 0.4196524E+00  (-0.2228369E-01)
 number of electron       5.0000001 magnetization       0.6277901
 augmentation part        0.3869218 magnetization       0.0203846

 Broyden mixing:
  rms(total) = 0.43550E+00    rms(broyden)= 0.43550E+00
  rms(prec ) = 0.63861E+00
  weight for this iteration     100.00

 eigenvalues of (default mixing * dielectric matrix)
  average eigenvalue GAMMA=   1.2322
  2.0203  0.9559  0.7205

 Free energy of the ion-electron system (eV)
  ---------------------------------------------------
  alpha Z        PSCENC =        30.58334069
  Ewald energy   TEWEN  =      -197.90100875
  -1/2 Hartree   DENC   =        -1.03294970
  -exchange  EXHF       =         0.00000000
  -V(xc)+E(xc)   XCENC  =       -65.70095177
  PAW double counting   =       173.35184757      -99.73932908
  entropy T*S    EENTRO =         0.00016756
  eigenvalues    EBANDS =        18.34636707
  atomic energy  EATOM  =       130.64621481
  ---------------------------------------------------
  free energy    TOTEN  =       -11.44630160 eV

  energy without entropy =      -11.44646916  energy(sigma->0) =      -11.44635746


--------------------------------------------------------------------------------------------------------




----------------------------------------- Iteration    1(   9)  ---------------------------------------


    POTLOK:  cpu time    0.14: real time    0.14
    SETDIJ:  cpu time    0.04: real time    0.04
     EDDAV:  cpu time    0.35: real time    0.35
       DOS:  cpu time    0.00: real time    0.00
    CHARGE:  cpu time    0.06: real time    0.06
    MIXING:  cpu time    0.00: real time    0.00
    --------------------------------------------
      LOOP:  cpu time    0.60: real time    0.61

 eigenvalue-minimisations  :   384
 total energy-change (2. order) :-0.3956028E+00  (-0.3054782E-01)
 number of electron       5.0000001 magnetization       0.5038567
 augmentation part        0.4108833 magnetization       0.3689875

 Broyden mixing:
  rms(total) = 0.13294E+00    rms(broyden)= 0.13294E+00
  rms(prec ) = 0.22694E+00
  weight for this iteration     100.00

 eigenvalues of (default mixing * dielectric matrix)
  average eigenvalue GAMMA=   1.0316
  2.0764  0.9056  0.5721  0.5721

 Free energy of the ion-electron system (eV)
  ---------------------------------------------------
  alpha Z        PSCENC =        30.58334069
  Ewald energy   TEWEN  =      -197.90100875
  -1/2 Hartree   DENC   =        -0.47388063
  -exchange  EXHF       =         0.00000000
  -V(xc)+E(xc)   XCENC  =       -65.89397500
  PAW double counting   =       189.47518234     -116.08893594
  entropy T*S    EENTRO =        -0.00091242
  eigenvalues    EBANDS =        17.81207052
  atomic energy  EATOM  =       130.64621481
  ---------------------------------------------------
  free energy    TOTEN  =       -11.84190439 eV

  energy without entropy =      -11.84099196  energy(sigma->0) =      -11.84160025


--------------------------------------------------------------------------------------------------------




----------------------------------------- Iteration    1(  10)  ---------------------------------------


    POTLOK:  cpu time    0.14: real time    0.14
    SETDIJ:  cpu time    0.04: real time    0.04
     EDDAV:  cpu time    0.33: real time    0.33
       DOS:  cpu time    0.00: real time    0.00
    CHARGE:  cpu time    0.06: real time    0.06
    MIXING:  cpu time    0.00: real time    0.00
    --------------------------------------------
      LOOP:  cpu time    0.58: real time    0.60

 eigenvalue-minimisations  :   354
 total energy-change (2. order) :-0.1978796E-01  (-0.1762599E-03)
 number of electron       5.0000001 magnetization       0.5056446
 augmentation part        0.4104132 magnetization       0.3728378

 Broyden mixing:
  rms(total) = 0.10332E+00    rms(broyden)= 0.10332E+00
  rms(prec ) = 0.20186E+00
  weight for this iteration     100.00

 eigenvalues of (default mixing * dielectric matrix)
  average eigenvalue GAMMA=   1.0348
  1.3696  1.3696  0.8926  0.8926  0.6499

 Free energy of the ion-electron system (eV)
  ---------------------------------------------------
  alpha Z        PSCENC =        30.58334069
  Ewald energy   TEWEN  =      -197.90100875
  -1/2 Hartree   DENC   =        -0.48428717
  -exchange  EXHF       =         0.00000000
  -V(xc)+E(xc)   XCENC  =       -65.91387959
  PAW double counting   =       189.78877442     -116.39956918
  entropy T*S    EENTRO =        -0.00102238
  eigenvalues    EBANDS =        17.81974481
  atomic energy  EATOM  =       130.64621481
  ---------------------------------------------------
  free energy    TOTEN  =       -11.86169235 eV

  energy without entropy =      -11.86066996  energy(sigma->0) =      -11.86135155


--------------------------------------------------------------------------------------------------------




----------------------------------------- Iteration    1(  11)  ---------------------------------------


    POTLOK:  cpu time    0.14: real time    0.14
    SETDIJ:  cpu time    0.04: real time    0.04
     EDDAV:  cpu time    0.28: real time    0.28
       DOS:  cpu time    0.00: real time    0.00
    CHARGE:  cpu time    0.06: real time    0.06
    MIXING:  cpu time    0.00: real time    0.00
    --------------------------------------------
      LOOP:  cpu time    0.53: real time    0.54

 eigenvalue-minimisations  :   270
 total energy-change (2. order) : 0.1863002E-03  (-0.1892870E-05)
 number of electron       5.0000001 magnetization       0.1920075
 augmentation part        0.4104100 magnetization       0.0592457

 Broyden mixing:
  rms(total) = 0.10386E+00    rms(broyden)= 0.10386E+00
  rms(prec ) = 0.20305E+00
  weight for this iteration     100.00

 eigenvalues of (default mixing * dielectric matrix)
  average eigenvalue GAMMA=   1.1966
  2.2839  1.2807  1.2807  0.8531  0.8531  0.6279

 Free energy of the ion-electron system (eV)
  ---------------------------------------------------
  alpha Z        PSCENC =        30.58334069
  Ewald energy   TEWEN  =      -197.90100875
  -1/2 Hartree   DENC   =        -0.48334388
  -exchange  EXHF       =         0.00000000
  -V(xc)+E(xc)   XCENC  =       -65.91308125
  PAW double counting   =       189.77463243     -116.38576626
  entropy T*S    EENTRO =        -0.00102155
  eigenvalues    EBANDS =        17.81852770
  atomic energy  EATOM  =       130.64621481
  ---------------------------------------------------
  free energy    TOTEN  =       -11.86150605 eV

  energy without entropy =      -11.86048450  energy(sigma->0) =      -11.86116553


--------------------------------------------------------------------------------------------------------




----------------------------------------- Iteration    1(  12)  ---------------------------------------


    POTLOK:  cpu time    0.14: real time    0.14
    SETDIJ:  cpu time    0.04: real time    0.04
     EDDAV:  cpu time    0.33: real time    0.33
       DOS:  cpu time    0.00: real time    0.00
    CHARGE:  cpu time    0.06: real time    0.06
    MIXING:  cpu time    0.00: real time    0.00
    --------------------------------------------
      LOOP:  cpu time    0.58: real time    0.60

 eigenvalue-minimisations  :   360
 total energy-change (2. order) :-0.2087267E-01  (-0.2716575E-02)
 number of electron       5.0000001 magnetization       0.1685412
 augmentation part        0.4067600 magnetization       0.0347827

 Broyden mixing:
  rms(total) = 0.17631E-01    rms(broyden)= 0.17631E-01
  rms(prec ) = 0.47012E-01
  weight for this iteration     100.00

 eigenvalues of (default mixing * dielectric matrix)
  average eigenvalue GAMMA=   1.1763
  2.6437  1.4063  1.4063  0.8668  0.8668  0.6342  0.4101

 Free energy of the ion-electron system (eV)
  ---------------------------------------------------
  alpha Z        PSCENC =        30.58334069
  Ewald energy   TEWEN  =      -197.90100875
  -1/2 Hartree   DENC   =        -0.60519425
  -exchange  EXHF       =         0.00000000
  -V(xc)+E(xc)   XCENC  =       -65.99518156
  PAW double counting   =       196.37921051     -122.95352133
  entropy T*S    EENTRO =        -0.00065565
  eigenvalues    EBANDS =        17.96441679
  atomic energy  EATOM  =       130.64621481
  ---------------------------------------------------
  free energy    TOTEN  =       -11.88237872 eV

  energy without entropy =      -11.88172307  energy(sigma->0) =      -11.88216017


--------------------------------------------------------------------------------------------------------




----------------------------------------- Iteration    1(  13)  ---------------------------------------


    POTLOK:  cpu time    0.14: real time    0.14
    SETDIJ:  cpu time    0.04: real time    0.04
     EDDAV:  cpu time    0.35: real time    0.35
       DOS:  cpu time    0.00: real time    0.00
    CHARGE:  cpu time    0.06: real time    0.06
    MIXING:  cpu time    0.00: real time    0.00
    --------------------------------------------
      LOOP:  cpu time    0.60: real time    0.61

 eigenvalue-minimisations  :   384
 total energy-change (2. order) :-0.3459287E-03  (-0.1124396E-03)
 number of electron       5.0000001 magnetization       0.1505702
 augmentation part        0.4056774 magnetization       0.0137808

 Broyden mixing:
  rms(total) = 0.54710E-02    rms(broyden)= 0.54709E-02
  rms(prec ) = 0.12206E-01
  weight for this iteration     100.00

 eigenvalues of (default mixing * dielectric matrix)
  average eigenvalue GAMMA=   1.1967
  2.6131  1.5994  1.5994  0.8218  0.8218  0.7414  0.7414  0.6351

 Free energy of the ion-electron system (eV)
  ---------------------------------------------------
  alpha Z        PSCENC =        30.58334069
  Ewald energy   TEWEN  =      -197.90100875
  -1/2 Hartree   DENC   =        -0.63724757
  -exchange  EXHF       =         0.00000000
  -V(xc)+E(xc)   XCENC  =       -66.01199716
  PAW double counting   =       196.68294099     -123.24493946
  entropy T*S    EENTRO =        -0.00046870
  eigenvalues    EBANDS =        18.00044049
  atomic energy  EATOM  =       130.64621481
  ---------------------------------------------------
  free energy    TOTEN  =       -11.88272465 eV

  energy without entropy =      -11.88225595  energy(sigma->0) =      -11.88256842


--------------------------------------------------------------------------------------------------------




----------------------------------------- Iteration    1(  14)  ---------------------------------------


    POTLOK:  cpu time    0.14: real time    0.14
    SETDIJ:  cpu time    0.04: real time    0.04
     EDDAV:  cpu time    0.22: real time    0.22
       DOS:  cpu time    0.00: real time    0.00
    --------------------------------------------
      LOOP:  cpu time    0.40: real time    0.42

 eigenvalue-minimisations  :   186
 total energy-change (2. order) :-0.7528990E-04  (-0.5881789E-05)
 number of electron       5.0000001 magnetization       0.1505702
 augmentation part        0.4056774 magnetization       0.0137808

 Free energy of the ion-electron system (eV)
  ---------------------------------------------------
  alpha Z        PSCENC =        30.58334069
  Ewald energy   TEWEN  =      -197.90100875
  -1/2 Hartree   DENC   =        -0.63587625
  -exchange  EXHF       =         0.00000000
  -V(xc)+E(xc)   XCENC  =       -66.01159731
  PAW double counting   =       196.08581506     -122.64683269
  entropy T*S    EENTRO =        -0.00034107
  eigenvalues    EBANDS =        17.99748557
  atomic energy  EATOM  =       130.64621481
  ---------------------------------------------------
  free energy    TOTEN  =       -11.88279994 eV

  energy without entropy =      -11.88245887  energy(sigma->0) =      -11.88268625


--------------------------------------------------------------------------------------------------------




 average (electrostatic) potential at core
  the test charge radii are     1.2538
  (the norm of the test charge is              1.0000)
       1 -34.9798
 
 
 
 E-fermi :   5.6290     XC(G=0): -12.3627     alpha+bet :-13.5035


 spin component 1

 k-point   1 :       0.0833    0.0833    0.0833
  band No.  band energies     occupation 
      1      -0.5852      1.00000
      2       5.4617      1.00001
      3       5.4617      1.00001
      4       8.5203      0.00000
      5       9.4112      0.00000
      6       9.4112      0.00000

 k-point   2 :       0.2500    0.0833    0.0833
  band No.  band energies     occupation 
      1       1.5407      1.00000
      2       4.4416      1.00000
      3       5.0184      1.00000
      4       9.5889      0.00000
      5      10.1955      0.00000
      6      11.9095      0.00000

 k-point   3 :       0.4167    0.0833    0.0833
  band No.  band energies     occupation 
      1       1.9292      1.00000
      2       4.0675      1.00000
      3       6.5268      0.00000
      4       9.7918      0.00000
      5      10.6032      0.00000
      6      14.3823      0.00000

 k-point   4 :      -0.0833    0.0833    0.0833
  band No.  band energies     occupation 
      1      -1.6425      1.00000
      2       6.3356      0.00000
      3       6.3356      0.00000
      4       6.7004      0.00000
      5       8.7028      0.00000
      6      10.0004      0.00000

 k-point   5 :       0.2500    0.2500    0.0833
  band No.  band energies     occupation 
      1       3.1404      1.00000
      2       4.2813      1.00000
      3       4.9062      1.00000
      4      10.1012      0.00000
      5      10.5554      0.00000
      6      14.9785      0.00000

 k-point   6 :      -0.2500    0.2500    0.0833
  band No.  band energies     occupation 
      1       0.2907      1.00000
      2       5.4041      1.00000
      3       5.5592      1.03187
      4       8.1414      0.00000
      5       8.8764      0.00000
      6      10.4424      0.00000

 k-point   7 :      -0.4167    0.4167    0.0833
  band No.  band energies     occupation 
      1       1.5595      1.00000
      2       4.5700      1.00000
      3       5.9564      0.00000
      4       8.9737      0.00000
      5      10.9122      0.00000
      6      12.4466      0.00000

 k-point   8 :      -0.2500    0.4167    0.0833
  band No.  band energies     occupation 
      1       2.1866      1.00000
      2       4.3449      1.00000
      3       5.5247      1.00597
      4       8.2406      0.00000
      5      10.3617      0.00000
      6      12.0188      0.00000

 k-point   9 :      -0.4167   -0.4167    0.0833
  band No.  band energies     occupation 
      1       2.7770      1.00000
      2       4.6130      1.00000
      3       4.9597      1.00000
      4       8.8086      0.00000
      5      11.0441      0.00000
      6      15.2542      0.00000

 k-point  10 :       0.2500    0.2500    0.2500
  band No.  band energies     occupation 
      1       4.4304      1.00000
      2       4.4304      1.00000
      3       4.4304      1.00000
      4      10.7314      0.00000
      5      10.7314      0.00000
      6      12.6964      0.00000

 k-point  11 :      -0.2500    0.2500    0.2500
  band No.  band energies     occupation 
      1       1.9186      1.00000
      2       4.7502      1.00000
      3       6.9211      0.00000
      4       6.9211      0.00000
      5       8.8574      0.00000
      6      10.6671      0.00000

 k-point  12 :      -0.4167    0.4167    0.2500
  band No.  band energies     occupation 
      1       2.8399      1.00000
      2       3.6794      1.00000
      3       6.8559      0.00000
      4       7.5454      0.00000
      5      11.9444      0.00000
      6      11.9925      0.00000

 k-point  13 :      -0.4167   -0.4167    0.2500
  band No.  band energies     occupation 
      1       2.9914      1.00000
      2       2.9914      1.00000
      3       6.4295      0.00000
      4      10.6359      0.00000
      5      10.6359      0.00000
      6      15.5781      0.00000

 k-point  14 :      -0.4167    0.4167    0.4167
  band No.  band energies     occupation 
      1       2.2314      1.00000
      2       2.3281      1.00000
      3      10.3086      0.00000
      4      10.3086      0.00000
      5      11.8550      0.00000
      6      12.5795      0.00000

 spin component 2

 k-point   1 :       0.0833    0.0833    0.0833
  band No.  band energies     occupation 
      1      -0.4767      1.00000
      2       5.5658      1.03522
      3       5.5658      1.03522
      4       8.6214      0.00000
      5       9.4848      0.00000
      6       9.4848      0.00000

 k-point   2 :       0.2500    0.0833    0.0833
  band No.  band energies     occupation 
      1       1.6476      1.00000
      2       4.5474      1.00000
      3       5.1198      1.00000
      4       9.6671      0.00000
      5      10.2656      0.00000
      6      12.0043      0.00000

 k-point   3 :       0.4167    0.0833    0.0833
  band No.  band energies     occupation 
      1       2.0338      1.00000
      2       4.1741      1.00000
      3       6.6297      0.00000
      4       9.8691      0.00000
      5      10.6702      0.00000
      6      14.4692      0.00000

 k-point   4 :      -0.0833    0.0833    0.0833
  band No.  band energies     occupation 
      1      -1.5336      1.00000
      2       6.4402      0.00000
      3       6.4402      0.00000
      4       6.8044      0.00000
      5       8.7771      0.00000
      6      10.0684      0.00000

 k-point   5 :       0.2500    0.2500    0.0833
  band No.  band energies     occupation 
      1       3.2471      1.00000
      2       4.3829      1.00000
      3       5.0102      1.00000
      4      10.1766      0.00000
      5      10.6253      0.00000
      6      15.0852      0.00000

 k-point   6 :      -0.2500    0.2500    0.0833
  band No.  band energies     occupation 
      1       0.3983      1.00000
      2       5.5098      1.00190
      3       5.6569      0.10011
      4       8.2273      0.00000
      5       8.9767      0.00000
      6      10.5108      0.00000

 k-point   7 :      -0.4167    0.4167    0.0833
  band No.  band energies     occupation 
      1       1.6639      1.00000
      2       4.6764      1.00000
      3       6.0528      0.00000
      4       9.0593      0.00000
      5      10.9857      0.00000
      6      12.5373      0.00000

 k-point   8 :      -0.2500    0.4167    0.0833
  band No.  band energies     occupation 
      1       2.2917      1.00000
      2       4.4395      1.00000
      3       5.6289      0.50333
      4       8.3323      0.00000
      5      10.4412      0.00000
      6      12.1084      0.00000

 k-point   9 :      -0.4167   -0.4167    0.0833
  band No.  band energies     occupation 
      1       2.8788      1.00000
      2       4.7154      1.00000
      3       5.0535      1.00000
      4       8.8983      0.00000
      5      11.1293      0.00000
      6      15.3398      0.00000

 k-point  10 :       0.2500    0.2500    0.2500
  band No.  band energies     occupation 
      1       4.5351      1.00000
      2       4.5351      1.00000
      3       4.5351      1.00000
      4      10.7976      0.00000
      5      10.7976      0.00000
      6      12.8095      0.00000

 k-point  11 :      -0.2500    0.2500    0.2500
  band No.  band energies     occupation 
      1       2.0219      1.00000
      2       4.8362      1.00000
      3       7.0248      0.00000
      4       7.0248      0.00000
      5       8.9575      0.00000
      6      10.7435      0.00000

 k-point  12 :      -0.4167    0.4167    0.2500
  band No.  band energies     occupation 
      1       2.9348      1.00000
      2       3.7699      1.00000
      3       6.9595      0.00000
      4       7.6442      0.00000
      5      12.0364      0.00000
      6      12.0869      0.00000

 k-point  13 :      -0.4167   -0.4167    0.2500
  band No.  band energies     occupation 
      1       3.0816      1.00000
      2       3.0816      1.00000
      3       6.5349      0.00000
      4      10.7323      0.00000
      5      10.7323      0.00000
      6      15.6781      0.00000

 k-point  14 :      -0.4167    0.4167    0.4167
  band No.  band energies     occupation 
      1       2.3211      1.00000
      2       2.4185      1.00000
      3      10.4077      0.00000
      4      10.4077      0.00000
      5      11.9462      0.00000
      6      12.6871      0.00000


--------------------------------------------------------------------------------------------------------


 soft charge-density along one line, spin component           1
         0         1         2         3         4         5         6         7         8         9
 total charge-density along one line
 
 soft charge-density along one line, spin component           2
         0         1         2         3         4         5         6         7         8         9
 total charge-density along one line
 
 pseudopotential strength for first ion, spin component:           1
 -6.574   0.000   0.004   0.000   0.002   0.090   0.000   0.000
  0.000  -6.571   0.000   0.004   0.000   0.000   0.090   0.000
  0.004   0.000  -6.570   0.000  -0.001   0.000   0.000   0.090
  0.000   0.004   0.000  -6.574   0.000   0.000   0.000   0.000
  0.002   0.000  -0.001   0.000  -6.569   0.000   0.000   0.000
  0.090   0.000   0.000   0.000   0.000   0.071   0.000   0.000
  0.000   0.090   0.000   0.000   0.000   0.000   0.071   0.000
  0.000   0.000   0.090   0.000   0.000   0.000   0.000   0.071
  0.000   0.000   0.000   0.090   0.000   0.000   0.000   0.000
  0.000   0.000   0.000   0.000   0.090   0.000   0.000   0.000
  0.000   0.000   0.000   0.000   0.000   0.000   0.000   0.000
  0.000   0.000   0.000   0.000   0.000   0.000   0.000   0.000
  0.000   0.000   0.000   0.000   0.000   0.000   0.000   0.000
  0.000   0.000   0.000   0.000   0.000   0.000   0.000   0.000
  0.000   0.000   0.000   0.000   0.000   0.000   0.000   0.000
  0.000   0.000   0.000   0.000   0.000   0.000   0.000   0.000
  0.000   0.000   0.000   0.000   0.000   0.000   0.000   0.000
  0.000   0.000   0.000   0.000   0.000   0.000   0.000   0.000
 pseudopotential strength for first ion, spin component:           2
 -6.572   0.000   0.004   0.000   0.003   0.090   0.000   0.000
  0.000  -6.569   0.000   0.005   0.000   0.000   0.090   0.000
  0.004   0.000  -6.568   0.000  -0.002   0.000   0.000   0.090
  0.000   0.005   0.000  -6.572   0.000   0.000   0.000   0.000
  0.003   0.000  -0.002   0.000  -6.566   0.000   0.000   0.000
  0.090   0.000   0.000   0.000   0.000   0.071   0.000   0.000
  0.000   0.090   0.000   0.000   0.000   0.000   0.071   0.000
  0.000   0.000   0.090   0.000   0.000   0.000   0.000   0.071
  0.000   0.000   0.000   0.090   0.000   0.000   0.000   0.000
  0.000   0.000   0.000   0.000   0.090   0.000   0.000   0.000
  0.000   0.000   0.000   0.000   0.000   0.000   0.000   0.000
  0.000   0.000   0.000   0.000   0.000   0.000   0.000   0.000
  0.000   0.000   0.000   0.000   0.000   0.000   0.000   0.000
  0.000   0.000   0.000   0.000   0.000   0.000   0.000   0.000
  0.000   0.000   0.000   0.000   0.000   0.000   0.000   0.000
  0.000   0.000   0.000   0.000   0.000   0.000   0.000   0.000
  0.000   0.000   0.000   0.000   0.000   0.000   0.000   0.000
  0.000   0.000   0.000   0.000   0.000   0.000   0.000   0.000
 total augmentation occupancy for first ion, spin component:           1
  0.636   0.000   0.101   0.000   0.058  -0.520   0.000  -0.030   0.000  -0.017   0.000   0.000   0.000   0.000   0.000   0.000
  0.000   0.718   0.000   0.117   0.000   0.000  -0.544   0.000  -0.034   0.000   0.000   0.000   0.000   0.000   0.000   0.000
  0.101   0.000   0.739   0.000  -0.036  -0.030   0.000  -0.550   0.000   0.011   0.000   0.000   0.000   0.000   0.000   0.000
  0.000   0.117   0.000   0.636   0.000   0.000  -0.034   0.000  -0.520   0.000   0.000   0.000   0.000   0.000   0.000   0.000
  0.058   0.000  -0.036   0.000   0.780  -0.017   0.000   0.011   0.000  -0.563   0.000   0.000   0.000   0.000   0.000   0.000
 -0.520   0.000  -0.030   0.000  -0.017   0.469   0.000  -0.010   0.000  -0.006   0.000   0.000   0.000   0.000   0.000   0.000
  0.000  -0.544   0.000  -0.034   0.000   0.000   0.461   0.000  -0.012   0.000   0.000   0.000   0.000   0.000   0.000   0.000
 -0.030   0.000  -0.550   0.000   0.011  -0.010   0.000   0.459   0.000   0.004   0.000   0.000   0.000   0.000   0.000   0.000
  0.000  -0.034   0.000  -0.520   0.000   0.000  -0.012   0.000   0.469   0.000   0.000   0.000   0.000   0.000   0.000   0.000
 -0.017   0.000   0.011   0.000  -0.563  -0.006   0.000   0.004   0.000   0.455   0.000   0.000   0.000   0.000   0.000   0.000
  0.000   0.000   0.000   0.000   0.000   0.000   0.000   0.000   0.000   0.000   1.389  -0.275   0.000   0.000   0.000   0.000
  0.000   0.000   0.000   0.000   0.000   0.000   0.000   0.000   0.000   0.000  -0.275   0.058   0.000   0.000   0.000   0.000
  0.000   0.000   0.000   0.000   0.000   0.000   0.000   0.000   0.000   0.000   0.000   0.000   0.289   0.000   0.000   0.011
  0.000   0.000   0.000   0.000   0.000   0.000   0.000   0.000   0.000   0.000   0.000   0.000   0.000   0.289   0.000   0.000
  0.000   0.000   0.000   0.000   0.000   0.000   0.000   0.000   0.000   0.000   0.000   0.000   0.000   0.000   0.289   0.000
  0.000   0.000   0.000   0.000   0.000   0.000   0.000   0.000   0.000   0.000   0.000   0.000   0.011   0.000   0.000   0.000
  0.000   0.000   0.000   0.000   0.000   0.000   0.000   0.000   0.000   0.000   0.000   0.000   0.000   0.011   0.000   0.000
  0.000   0.000   0.000   0.000   0.000   0.000   0.000   0.000   0.000   0.000   0.000   0.000   0.000   0.000   0.011   0.000
 total augmentation occupancy for first ion, spin component:           2
  0.022   0.000   0.008   0.000   0.004  -0.012   0.000  -0.003   0.000  -0.002   0.000   0.000   0.000   0.000   0.000   0.000
  0.000   0.028   0.000   0.009   0.000   0.000  -0.015   0.000  -0.004   0.000   0.000   0.000   0.000   0.000   0.000   0.000
  0.008   0.000   0.030   0.000  -0.003  -0.003   0.000  -0.016   0.000   0.001   0.000   0.000   0.000   0.000   0.000   0.000
  0.000   0.009   0.000   0.022   0.000   0.000  -0.004   0.000  -0.012   0.000   0.000   0.000   0.000   0.000   0.000   0.000
  0.004   0.000  -0.003   0.000   0.033  -0.002   0.000   0.001   0.000  -0.017   0.000   0.000   0.000   0.000   0.000   0.000
 -0.012   0.000  -0.003   0.000  -0.002   0.009   0.000   0.001   0.000   0.000   0.000   0.000   0.000   0.000   0.000   0.000
  0.000  -0.015   0.000  -0.004   0.000   0.000   0.009   0.000   0.001   0.000   0.000   0.000   0.000   0.000   0.000   0.000
 -0.003   0.000  -0.016   0.000   0.001   0.001   0.000   0.009   0.000   0.000   0.000   0.000   0.000   0.000   0.000   0.000
  0.000  -0.004   0.000  -0.012   0.000   0.000   0.001   0.000   0.009   0.000   0.000   0.000   0.000   0.000   0.000   0.000
 -0.002   0.000   0.001   0.000  -0.017   0.000   0.000   0.000   0.000   0.010   0.000   0.000   0.000   0.000   0.000   0.000
  0.000   0.000   0.000   0.000   0.000   0.000   0.000   0.000   0.000   0.000   0.003  -0.005   0.000   0.000   0.000   0.000
  0.000   0.000   0.000   0.000   0.000   0.000   0.000   0.000   0.000   0.000  -0.005   0.002   0.000   0.000   0.000   0.000
  0.000   0.000   0.000   0.000   0.000   0.000   0.000   0.000   0.000   0.000   0.000   0.000   0.009   0.000   0.000   0.000
  0.000   0.000   0.000   0.000   0.000   0.000   0.000   0.000   0.000   0.000   0.000   0.000   0.000   0.009   0.000   0.000
  0.000   0.000   0.000   0.000   0.000   0.000   0.000   0.000   0.000   0.000   0.000   0.000   0.000   0.000   0.009   0.000
  0.000   0.000   0.000   0.000   0.000   0.000   0.000   0.000   0.000   0.000   0.000   0.000   0.000   0.000   0.000   0.000
  0.000   0.000   0.000   0.000   0.000   0.000   0.000   0.000   0.000   0.000   0.000   0.000   0.000   0.000   0.000   0.000
  0.000   0.000   0.000   0.000   0.000   0.000   0.000   0.000   0.000   0.000   0.000   0.000   0.000   0.000   0.000   0.000


------------------------ aborting loop because EDIFF is reached ----------------------------------------


 


 total charge     
 
# of ion     s       p       d       tot
----------------------------------------
  1        0.701   0.671   3.399   4.771
 


 magnetization (x)
 
# of ion     s       p       d       tot
----------------------------------------
  1        0.003   0.022   0.125   0.150
 
    CHARGE:  cpu time    0.06: real time    0.06
    FORLOC:  cpu time    0.00: real time    0.00
    FORNL :  cpu time    0.17: real time    0.17
    STRESS:  cpu time    0.31: real time    0.31
    FORCOR:  cpu time    0.14: real time    0.14
    FORHAR:  cpu time    0.02: real time    0.02
    MIXING:  cpu time    0.00: real time    0.00

  FORCE on cell =-STRESS in cart. coord.  units (eV):
  Direction    XX          YY          ZZ          XY          YZ          ZX
  --------------------------------------------------------------------------------------
  Alpha Z    30.58334    30.58334    30.58334
  Ewald     -65.96700   -65.96700   -65.96700     0.00000     0.00000     0.00000
  Hartree     0.21700     0.21700     0.21700     0.00000     0.00000     0.00000
  E(xc)     -22.48435   -22.48434   -22.48433     0.00000     0.00001     0.00001
  Local       3.97894     3.97894     3.97894     0.00000     0.00000     0.00000
  n-local    -8.77310    -8.76763    -6.99285     1.52781    -2.17987    -1.45666
  augment     2.93439     2.93439     2.93440     0.00000     0.00000     0.00000
  Kinetic    59.89188    60.11861    56.08159     1.13526     2.84486     1.28646
  Fock        0.00000     0.00000     0.00000     0.00000     0.00000     0.00000
  -------------------------------------------------------------------------------------
  Total      -0.21817    -0.21817    -0.21817     0.00000     0.00000     0.00000
  in kB     -19.27740   -19.27740   -19.27740     0.00000     0.00000     0.00000
  external pressure =      -19.28 kB  Pullay stress =        0.00 kB


 VOLUME and BASIS-vectors are now :
 -----------------------------------------------------------------------------
  energy-cutoff  :      350.00
  volume of cell :       18.13
      direct lattice vectors                 reciprocal lattice vectors
     2.866544087  0.000000000  0.000000000     0.348852126  0.123337852  0.213627426
    -0.955514696  2.702603683  0.000000000     0.000000000  0.370013556  0.213627426
    -0.955514696 -1.351301841  2.340523446     0.000000000  0.000000000  0.427254853

  length of vectors
     2.866544087  2.866544087  2.866544087     0.427254853  0.427254853  0.427254853


 FORCES acting on ions
    electron-ion (+dipol)            ewald-force                    non-local-force                 convergence-correction
 -----------------------------------------------------------------------------------------------
   -.589E-15 0.120E-14 0.256E-14   -.279E-15 -.214E-15 0.640E-15   0.496E-23 -.827E-24 0.000E+00   -.680E-14 -.325E-14 -.792E-14
 -----------------------------------------------------------------------------------------------
   -.589E-15 0.120E-14 0.256E-14   -.279E-15 -.214E-15 0.640E-15   0.496E-23 -.827E-24 0.000E+00   -.680E-14 -.325E-14 -.792E-14
 
 
 POSITION                                       TOTAL-FORCE (eV/Angst)
 -----------------------------------------------------------------------------------
      0.00000      0.00000      0.00000         0.000000      0.000000      0.000000
 -----------------------------------------------------------------------------------
    total drift:                                0.000000      0.000000      0.000000


--------------------------------------------------------------------------------------------------------



  FREE ENERGIE OF THE ION-ELECTRON SYSTEM (eV)
  ---------------------------------------------------
  free  energy   TOTEN  =       -11.882800 eV

  energy  without entropy=      -11.882459  energy(sigma->0) =      -11.882686
 


--------------------------------------------------------------------------------------------------------


    POTLOK:  cpu time    0.18: real time    0.18


--------------------------------------------------------------------------------------------------------


 writing wavefunctions
     LOOP+:  cpu time    8.31: real time    9.34
    4ORBIT:  cpu time    0.00: real time    0.00
 


 total charge     
 
# of ion     s       p       d       tot
----------------------------------------
  1        0.701   0.671   3.399   4.771
 


 magnetization (x)
 
# of ion     s       p       d       tot
----------------------------------------
  1        0.003   0.022   0.125   0.150
 

 total amount of memory used by VASP on root node    37042. kBytes
========================================================================

   base      :      30000. kBytes
   nonl-proj :        562. kBytes
   fftplans  :       1676. kBytes
   grid      :       3981. kBytes
   one-center:         31. kBytes
   wavefun   :        792. kBytes
 
  
  
 General timing and accounting informations for this job:
 ========================================================
  
                  Total CPU time used (sec):        8.937
                            User time (sec):        8.664
                          System time (sec):        0.273
                         Elapsed time (sec):       10.086
  
                   Maximum memory used (kb):           0.
                   Average memory used (kb):           0.
  
                          Minor page faults:         7837
                          Major page faults:            0
                 Voluntary context switches:         8370
