<?xml version="1.0" encoding="ISO-8859-1"?>
<modeling>
 <generator>
  <i name="program" type="string">vasp </i>
  <i name="version" type="string">5.2.12  </i>
  <i name="subversion" type="string">11Nov11 complex                                                      parallel </i>
  <i name="platform" type="string">LinuxIFC </i>
  <i name="date" type="string">2012 10 17 </i>
  <i name="time" type="string">10:14:53 </i>
 </generator>
 <incar>
  <i type="int" name="ISTART">     0</i>
  <i type="string" name="PREC">accurate</i>
  <i type="int" name="ISPIN">     2</i>
  <i name="ENCUT">    350.00000000</i>
  <i type="int" name="NBANDS">     6</i>
  <v name="MAGMOM">      6.00000000</v>
  <i type="logical" name="LREAL"> F  </i>
  <i type="int" name="ISMEAR">     1</i>
  <i name="SIGMA">      0.05000000</i>
  <i type="logical" name="LORBIT"> F  </i>
 </incar>
 <kpoints>
  <generation param="Monkhorst-Pack">
   <v type="int" name="divisions">       6        6        6 </v>
   <v name="usershift">      0.00000000       0.00000000       0.00000000 </v>
   <v name="genvec1">      0.16666667       0.00000000       0.00000000 </v>
   <v name="genvec2">      0.00000000       0.16666667       0.00000000 </v>
   <v name="genvec3">      0.00000000       0.00000000       0.16666667 </v>
   <v name="shift">      0.50000000       0.50000000       0.50000000 </v>
  </generation>
  <varray name="kpointlist" >
   <v>       0.08333333       0.08333333       0.08333333 </v>
   <v>       0.25000000       0.08333333       0.08333333 </v>
   <v>       0.41666667       0.08333333       0.08333333 </v>
   <v>      -0.08333333       0.08333333       0.08333333 </v>
   <v>       0.25000000       0.25000000       0.08333333 </v>
   <v>      -0.25000000       0.25000000       0.08333333 </v>
   <v>      -0.41666667       0.41666667       0.08333333 </v>
   <v>      -0.25000000       0.41666667       0.08333333 </v>
   <v>      -0.41666667      -0.41666667       0.08333333 </v>
   <v>       0.25000000       0.25000000       0.25000000 </v>
   <v>      -0.25000000       0.25000000       0.25000000 </v>
   <v>      -0.41666667       0.41666667       0.25000000 </v>
   <v>      -0.41666667      -0.41666667       0.25000000 </v>
   <v>      -0.41666667       0.41666667       0.41666667 </v>
  </varray>
  <varray name="weights" >
   <v>       0.03703704 </v>
   <v>       0.11111111 </v>
   <v>       0.05555556 </v>
   <v>       0.02777778 </v>
   <v>       0.11111111 </v>
   <v>       0.11111111 </v>
   <v>       0.11111111 </v>
   <v>       0.11111111 </v>
   <v>       0.11111111 </v>
   <v>       0.00925926 </v>
   <v>       0.02777778 </v>
   <v>       0.11111111 </v>
   <v>       0.03703704 </v>
   <v>       0.02777778 </v>
  </varray>
 </kpoints>
 <parameters>
  <separator name="general" >
   <i type="string" name="SYSTEM">unknown system</i>
   <i type="logical" name="LCOMPAT"> F  </i>
  </separator>
  <separator name="electronic" >
   <i type="string" name="PREC">accura</i>
   <i name="ENMAX">    350.00000000</i>
   <i name="ENAUG">    332.07500000</i>
   <i name="EDIFF">      0.00010000</i>
   <i type="int" name="IALGO">    38</i>
   <i type="int" name="IWAVPR">    10</i>
   <i type="int" name="NBANDS">     6</i>
   <i name="NELECT">      5.00000000</i>
   <i type="int" name="TURBO">     0</i>
   <i type="int" name="IRESTART">     0</i>
   <i type="int" name="NREBOOT">     0</i>
   <i type="int" name="NMIN">     0</i>
   <i name="EREF">      0.00000000</i>
   <separator name="electronic smearing" >
    <i type="int" name="ISMEAR">     1</i>
    <i name="SIGMA">      0.05000000</i>
    <i name="KSPACING">      0.50000000</i>
    <i type="logical" name="KGAMMA"> T  </i>
   </separator>
   <separator name="electronic projectors" >
    <i type="logical" name="LREAL"> F  </i>
    <v name="ROPT">      0.00000000</v>
    <i type="int" name="LMAXPAW">  -100</i>
    <i type="int" name="LMAXMIX">     2</i>
    <i type="logical" name="NLSPLINE"> F  </i>
   </separator>
   <separator name="electronic startup" >
    <i type="int" name="ISTART">     0</i>
    <i type="int" name="ICHARG">     2</i>
    <i type="int" name="INIWAV">     1</i>
   </separator>
   <separator name="electronic spin" >
    <i type="int" name="ISPIN">     2</i>
    <i type="logical" name="LNONCOLLINEAR"> F  </i>
    <v name="MAGMOM">      6.00000000</v>
    <i name="NUPDOWN">     -1.00000000</i>
    <i type="logical" name="LSORBIT"> F  </i>
    <v name="SAXIS">      0.00000000      0.00000000      1.00000000</v>
    <i type="logical" name="LSPIRAL"> F  </i>
    <v name="QSPIRAL">      0.00000000      0.00000000      0.00000000</v>
    <i type="logical" name="LZEROZ"> F  </i>
   </separator>
   <separator name="electronic exchange-correlation" >
    <i type="logical" name="LASPH"> F  </i>
    <i type="logical" name="LMETAGGA"> F  </i>
   </separator>
   <separator name="electronic convergence" >
    <i type="int" name="NELM">    60</i>
    <i type="int" name="NELMDL">    -5</i>
    <i type="int" name="NELMIN">     2</i>
    <i name="ENINI">    350.00000000</i>
    <separator name="electronic convergence detail" >
     <i type="logical" name="LDIAG"> T  </i>
     <i type="logical" name="LSUBROT"> T  </i>
     <i name="WEIMIN">      0.00000000</i>
     <i name="EBREAK">      0.00000417</i>
     <i name="DEPER">      0.30000000</i>
     <i type="int" name="NRMM">     4</i>
     <i name="TIME">      0.40000000</i>
    </separator>
   </separator>
   <separator name="electronic mixer" >
    <i name="AMIX">      0.40000000</i>
    <i name="BMIX">      1.00000000</i>
    <i name="AMIN">      0.10000000</i>
    <i name="AMIX_MAG">      1.60000000</i>
    <i name="BMIX_MAG">      1.00000000</i>
    <separator name="electronic mixer details" >
     <i type="int" name="IMIX">     4</i>
     <i type="int" name="MAXMIX">   -45</i>
     <i name="WC">    100.00000000</i>
     <i type="int" name="INIMIX">     1</i>
     <i type="int" name="MIXPRE">     1</i>
     <i type="int" name="MREMOVE">     5</i>
    </separator>
   </separator>
   <separator name="electronic dipolcorrection" >
    <i type="logical" name="LDIPOL"> F  </i>
    <i type="logical" name="LMONO"> F  </i>
    <i type="int" name="IDIPOL">     0</i>
    <i name="EPSILON">      1.00000000</i>
    <v name="DIPOL">   -100.00000000   -100.00000000   -100.00000000</v>
    <i name="EFIELD">      0.00000000</i>
   </separator>
  </separator>
  <separator name="grids" >
   <i type="int" name="NGX">    18</i>
   <i type="int" name="NGY">    18</i>
   <i type="int" name="NGZ">    18</i>
   <i type="int" name="NGXF">    36</i>
   <i type="int" name="NGYF">    36</i>
   <i type="int" name="NGZF">    36</i>
   <i type="logical" name="ADDGRID"> F  </i>
  </separator>
  <separator name="ionic" >
   <i type="int" name="NSW">     0</i>
   <i type="int" name="IBRION">    -1</i>
   <i type="int" name="ISIF">     2</i>
   <i name="PSTRESS">      0.00000000</i>
   <i name="EDIFFG">      0.00100000</i>
   <i type="int" name="NFREE">     0</i>
   <i name="POTIM">      0.50000000</i>
   <i name="SMASS">     -3.00000000</i>
   <i name="SCALEE">      1.00000000</i>
  </separator>
  <separator name="ionic md" >
   <i name="TEBEG">      0.00010000</i>
   <i name="TEEND">      0.00010000</i>
   <i type="int" name="NBLOCK">     1</i>
   <i type="int" name="KBLOCK">     1</i>
   <i type="int" name="NPACO">   256</i>
   <i name="APACO">     16.00000000</i>
  </separator>
  <separator name="symmetry" >
   <i type="int" name="ISYM">     2</i>
   <i name="SYMPREC">      0.00001000</i>
  </separator>
  <separator name="dos" >
   <i type="logical" name="LORBIT"> F  </i>
   <v name="RWIGS">     -1.00000000</v>
   <i type="int" name="NEDOS">   301</i>
   <i name="EMIN">     10.00000000</i>
   <i name="EMAX">    -10.00000000</i>
   <i name="EFERMI">      0.00000000</i>
  </separator>
  <separator name="writing" >
   <i type="int" name="NWRITE">     2</i>
   <i type="logical" name="LWAVE"> T  </i>
   <i type="logical" name="LCHARG"> T  </i>
   <i type="logical" name="LPARD"> F  </i>
   <i type="logical" name="LVTOT"> F  </i>
   <i type="logical" name="LVHAR"> F  </i>
   <i type="logical" name="LELF"> F  </i>
   <i type="logical" name="LOPTICS"> F  </i>
   <v name="STM">      0.00000000      0.00000000      0.00000000      0.00000000      0.00000000      0.00000000      0.00000000</v>
  </separator>
  <separator name="performance" >
   <i type="int" name="NPAR">     1</i>
   <i type="int" name="NSIM">     4</i>
   <i type="int" name="NBLK">    -1</i>
   <i type="logical" name="LPLANE"> T  </i>
   <i type="logical" name="LSCALAPACK"> F  </i>
   <i type="logical" name="LSCAAWARE"> F  </i>
   <i type="logical" name="LSCALU"> F  </i>
   <i type="logical" name="LASYNC"> F  </i>
   <i type="logical" name="LORBITALREAL"> F  </i>
  </separator>
  <separator name="miscellaneous" >
   <i type="int" name="IDIOT">     3</i>
   <i type="logical" name="LMUSIC"> F  </i>
   <v name="POMASS">    180.94800000</v>
   <v name="DARWINR">      0.00000000</v>
   <v name="DARWINV">      1.00000000</v>
   <i type="logical" name="LCORR"> T  </i>
  </separator>
  <i type="logical" name="GGA_COMPAT"> T  </i>
  <i type="logical" name="LBERRY"> F  </i>
  <i type="int" name="ICORELEVEL">     0</i>
  <i type="logical" name="LDAU"> F  </i>
  <i type="int" name="I_CONSTRAINED_M">     0</i>
  <separator name="electronic exchange-correlation" >
   <i type="string" name="GGA">--</i>
   <i type="int" name="VOSKOWN">     0</i>
   <i type="logical" name="LHFCALC"> F  </i>
   <i type="string" name="PRECFOCK"></i>
   <i type="logical" name="LHFONE"> F  </i>
   <i type="logical" name="LRHFCALC"> F  </i>
   <i type="logical" name="LTHOMAS"> F  </i>
   <i type="logical" name="LMODELHF"> F  </i>
   <i name="ENCUT4O">     -1.00000000</i>
   <i type="int" name="EXXOEP">     0</i>
   <i type="int" name="FOURORBIT">     0</i>
   <i name="AEXX">      0.00000000</i>
   <i name="HFALPHA">      0.00000000</i>
   <i name="ALDAX">      1.00000000</i>
   <i name="AGGAX">      1.00000000</i>
   <i name="ALDAC">      1.00000000</i>
   <i name="AGGAC">      1.00000000</i>
   <i type="int" name="NKREDX">     1</i>
   <i type="int" name="NKREDY">     1</i>
   <i type="int" name="NKREDZ">     1</i>
   <i type="logical" name="SHIFTRED"> F  </i>
   <i type="logical" name="ODDONLY"> F  </i>
   <i type="logical" name="EVENONLY"> F  </i>
   <i type="int" name="LMAXFOCK">     0</i>
   <i type="int" name="NMAXFOCKAE">     0</i>
   <i type="logical" name="LFOCKAEDFT"> F  </i>
   <i name="HFSCREEN">      0.00000000</i>
   <i name="HFSCREENC">      0.00000000</i>
  </separator>
  <separator name="vdW DFT" >
   <i type="logical" name="LUSE_VDW"> F  </i>
   <i name="Zab_VDW">     -0.84910000</i>
   <i name="PARAM1">      0.12340000</i>
   <i name="PARAM2">      1.00000000</i>
   <i name="PARAM3">      0.00000000</i>
  </separator>
  <separator name="model GW" >
   <i type="int" name="MODEL_GW">     0</i>
   <i name="MODEL_EPS0">     10.87940730</i>
   <i name="MODEL_ALPHA">      1.00000000</i>
  </separator>
  <separator name="linear response parameters" >
   <i type="logical" name="LEPSILON"> F  </i>
   <i type="logical" name="LRPA"> F  </i>
   <i type="logical" name="LNABLA"> F  </i>
   <i type="logical" name="LVEL"> F  </i>
   <i type="int" name="KINTER">     0</i>
   <i name="CSHIFT">      0.10000000</i>
   <i name="OMEGAMAX">     -1.00000000</i>
  </separator>
  <separator name="orbital magnetization" >
   <i type="logical" name="NUCIND"> F  </i>
   <v name="MAGPOS">      0.00000000      0.00000000      0.00000000</v>
   <i type="logical" name="LNICSALL"> T  </i>
   <i type="logical" name="ORBITALMAG"> F  </i>
   <i type="logical" name="LMAGBLOCH"> F  </i>
   <i type="logical" name="LCHIMAG"> F  </i>
   <i type="logical" name="LGAUGE"> T  </i>
   <i type="int" name="MAGATOM">     0</i>
   <v name="MAGDIPOL">      0.00000000      0.00000000      0.00000000</v>
   <v name="AVECCONST">      0.00000000      0.00000000      0.00000000</v>
  </separator>
  <separator name="response functions" >
   <i type="logical" name="LADDER"> F  </i>
   <i type="logical" name="LHARTREE"> T  </i>
   <i type="int" name="IBSE">     0</i>
   <i type="logical" name="LTCTE"> F  </i>
   <i type="logical" name="LTETE"> F  </i>
   <i type="logical" name="LFXCEPS"> F  </i>
   <i type="logical" name="L2ORDER"> F  </i>
   <i type="logical" name="LUSEW"> F  </i>
   <i name="ENCUTGW">     -2.00000000</i>
   <i name="ENCUTGWSOFT">     -2.00000000</i>
   <i name="ENCUTLF">     -1.00000000</i>
   <i type="int" name="LMAXMP2">    -1</i>
   <i name="SCISSOR">      0.00000000</i>
   <i type="int" name="NOMEGA">     0</i>
   <i type="int" name="NOMEGAR">     0</i>
   <i type="int" name="NBANDSGW">    -1</i>
   <i type="int" name="NBANDSO">    -1</i>
   <i type="int" name="NBANDSV">    -1</i>
   <i name="OPTEMAX">      0.00000000</i>
   <i type="int" name="NELM">     1</i>
   <i type="int" name="DIM">     3</i>
   <i type="int" name="ANTIRES">     0</i>
   <i name="OMEGAMAX">    -30.00000000</i>
   <i name="OMEGATL">   -200.00000000</i>
   <i type="int" name="OMEGAGRID">     0</i>
   <i name="CSHIFT">     -0.10000000</i>
   <i type="logical" name="SELFENERGY"> F  </i>
   <i type="logical" name="LSPECTRAL"> F  </i>
   <i type="logical" name="ODDONLYGW"> F  </i>
   <i type="logical" name="EVENONLYGW"> F  </i>
   <i type="int" name="NKREDLFX">     1</i>
   <i type="int" name="NKREDLFY">     1</i>
   <i type="int" name="NKREDLFZ">     1</i>
   <i type="int" name="MAXMEM">  1800</i>
   <i type="int" name="TELESCOPE">     0</i>
  </separator>
 </parameters>
 <atominfo>
  <atoms>       1 </atoms>
  <types>       1 </types>
  <array name="atoms" >
   <dimension dim="1">ion</dimension>
   <field type="string">element</field>
   <field type="int">atomtype</field>
   <set>
    <rc><c>Ta</c><c>   1</c></rc>
   </set>
  </array>
  <array name="atomtypes" >
   <dimension dim="1">type</dimension>
   <field type="int">atomspertype</field>
   <field type="string">element</field>
   <field>mass</field>
   <field>valence</field>
   <field type="string">pseudopotential</field>
   <set>
    <rc><c>   1</c><c>Ta</c><c>    180.94800000</c><c>      5.00000000</c><c>  PAW_PBE Ta 17Jan2003                  </c></rc>
   </set>
  </array>
 </atominfo>
 <structure name="initialpos" >
  <crystal>
   <varray name="basis" >
    <v>       2.86654409       0.00000000       0.00000000 </v>
    <v>      -0.95551470       2.70260368       0.00000000 </v>
    <v>      -0.95551470      -1.35130184       2.34052345 </v>
   </varray>
   <i name="volume">     18.13234550 </i>
   <varray name="rec_basis" >
    <v>       0.34885213       0.12333785       0.21362743 </v>
    <v>       0.00000000       0.37001356       0.21362743 </v>
    <v>       0.00000000       0.00000000       0.42725485 </v>
   </varray>
  </crystal>
  <varray name="positions" >
   <v>       0.00000000       0.00000000       0.00000000 </v>
  </varray>
 </structure>
 <calculation>
  <scstep>
   <time name="dav">    0.33    0.33</time>
   <time name="total">    0.51    0.55</time>
   <energy>
    <i name="alphaZ">     30.58334069 </i>
    <i name="ewald">   -197.90100875 </i>
    <i name="hartreedc">     -2.50452612 </i>
    <i name="XCdc">    -60.69825643 </i>
    <i name="pawpsdc">    143.51874798 </i>
    <i name="pawaedc">    -69.33493833 </i>
    <i name="eentropy">     -0.00066584 </i>
    <i name="bandstr">     37.29402789 </i>
    <i name="atom">    130.64621481 </i>
    <i name="e_fr_energy">     11.60293590 </i>
    <i name="e_wo_entrp">     11.60360174 </i>
    <i name="e_0_energy">     11.60315785 </i>
   </energy>
  </scstep>
  <scstep>
   <time name="dav">    0.51    0.51</time>
   <time name="total">    0.52    0.57</time>
   <energy>
    <i name="e_fr_energy">     -1.23396584 </i>
    <i name="e_wo_entrp">     -1.23265935 </i>
    <i name="e_0_energy">     -1.23353034 </i>
   </energy>
  </scstep>
  <scstep>
   <time name="dav">    0.33    0.33</time>
   <time name="total">    0.33    0.33</time>
   <energy>
    <i name="e_fr_energy">     -1.33658282 </i>
    <i name="e_wo_entrp">     -1.33530711 </i>
    <i name="e_0_energy">     -1.33615758 </i>
   </energy>
  </scstep>
  <scstep>
   <time name="dav">    0.42    0.42</time>
   <time name="total">    0.42    0.43</time>
   <energy>
    <i name="e_fr_energy">     -1.33702419 </i>
    <i name="e_wo_entrp">     -1.33574810 </i>
    <i name="e_0_energy">     -1.33659883 </i>
   </energy>
  </scstep>
  <scstep>
   <time name="dav">    0.30    0.30</time>
   <time name="total">    0.37    0.40</time>
   <energy>
    <i name="e_fr_energy">     -1.33702643 </i>
    <i name="e_wo_entrp">     -1.33575035 </i>
    <i name="e_0_energy">     -1.33660107 </i>
   </energy>
  </scstep>
  <scstep>
   <time name="dav">    0.33    0.33</time>
   <time name="total">    0.58    0.59</time>
   <energy>
    <i name="e_fr_energy">    -11.78119142 </i>
    <i name="e_wo_entrp">    -11.78127199 </i>
    <i name="e_0_energy">    -11.78121828 </i>
   </energy>
  </scstep>
  <scstep>
   <time name="dav">    0.34    0.34</time>
   <time name="total">    0.58    1.10</time>
   <energy>
    <i name="e_fr_energy">    -11.86595401 </i>
    <i name="e_wo_entrp">    -11.86672921 </i>
    <i name="e_0_energy">    -11.86621241 </i>
   </energy>
  </scstep>
  <scstep>
   <time name="dav">    0.35    0.36</time>
   <time name="total">    0.61    0.78</time>
   <energy>
    <i name="e_fr_energy">    -11.44630160 </i>
    <i name="e_wo_entrp">    -11.44646916 </i>
    <i name="e_0_energy">    -11.44635746 </i>
   </energy>
  </scstep>
  <scstep>
   <time name="dav">    0.35    0.35</time>
   <time name="total">    0.60    0.61</time>
   <energy>
    <i name="e_fr_energy">    -11.84190439 </i>
    <i name="e_wo_entrp">    -11.84099196 </i>
    <i name="e_0_energy">    -11.84160025 </i>
   </energy>
  </scstep>
  <scstep>
   <time name="dav">    0.33    0.33</time>
   <time name="total">    0.58    0.60</time>
   <energy>
    <i name="e_fr_energy">    -11.86169235 </i>
    <i name="e_wo_entrp">    -11.86066996 </i>
    <i name="e_0_energy">    -11.86135155 </i>
   </energy>
  </scstep>
  <scstep>
   <time name="dav">    0.28    0.28</time>
   <time name="total">    0.53    0.54</time>
   <energy>
    <i name="e_fr_energy">    -11.86150605 </i>
    <i name="e_wo_entrp">    -11.86048450 </i>
    <i name="e_0_energy">    -11.86116553 </i>
   </energy>
  </scstep>
  <scstep>
   <time name="dav">    0.33    0.33</time>
   <time name="total">    0.58    0.60</time>
   <energy>
    <i name="e_fr_energy">    -11.88237872 </i>
    <i name="e_wo_entrp">    -11.88172307 </i>
    <i name="e_0_energy">    -11.88216017 </i>
   </energy>
  </scstep>
  <scstep>
   <time name="dav">    0.35    0.35</time>
   <time name="total">    0.60    0.61</time>
   <energy>
    <i name="e_fr_energy">    -11.88272465 </i>
    <i name="e_wo_entrp">    -11.88225595 </i>
    <i name="e_0_energy">    -11.88256842 </i>
   </energy>
  </scstep>
  <scstep>
   <time name="dav">    0.22    0.22</time>
   <time name="total">    0.40    0.42</time>
   <energy>
    <i name="alphaZ">     30.58334069 </i>
    <i name="ewald">   -197.90100875 </i>
    <i name="hartreedc">     -0.63587625 </i>
    <i name="XCdc">    -66.01159731 </i>
    <i name="pawpsdc">    196.08581506 </i>
    <i name="pawaedc">   -122.64683269 </i>
    <i name="eentropy">     -0.00034107 </i>
    <i name="bandstr">     17.99748557 </i>
    <i name="atom">    130.64621481 </i>
    <i name="e_fr_energy">    -11.88279994 </i>
    <i name="e_wo_entrp">    -11.88245887 </i>
    <i name="e_0_energy">    -11.88268625 </i>
   </energy>
  </scstep>
  <parameters_embedded>
   <separator name="dft+d2" >
    <i type="logical" name="LVDW"> F  </i>
   </separator>
  </parameters_embedded>
  <structure>
   <crystal>
    <varray name="basis" >
     <v>       2.86654409       0.00000000       0.00000000 </v>
     <v>      -0.95551470       2.70260368       0.00000000 </v>
     <v>      -0.95551470      -1.35130184       2.34052345 </v>
    </varray>
    <i name="volume">     18.13234550 </i>
    <varray name="rec_basis" >
     <v>       0.34885213       0.12333785       0.21362743 </v>
     <v>       0.00000000       0.37001356       0.21362743 </v>
     <v>       0.00000000       0.00000000       0.42725485 </v>
    </varray>
   </crystal>
   <varray name="positions" >
    <v>       0.00000000       0.00000000       0.00000000 </v>
   </varray>
  </structure>
  <varray name="forces" >
   <v>       0.00000000       0.00000000       0.00000000 </v>
  </varray>
  <varray name="stress" >
   <v>     -19.27739818       0.00000000       0.00000000 </v>
   <v>       0.00000000     -19.27739818       0.00000000 </v>
   <v>       0.00000000       0.00000000     -19.27739818 </v>
  </varray>
  <energy>
   <i name="e_fr_energy">    -11.88279994 </i>
   <i name="e_wo_entrp">    -11.88268625 </i>
   <i name="e_0_energy">     -0.00034107 </i>
  </energy>
  <time name="totalsc">    8.31    9.34</time>
  <eigenvalues>
   <array>
    <dimension dim="1">band</dimension>
    <dimension dim="2">kpoint</dimension>
    <dimension dim="3">spin</dimension>
    <field>eigene</field>
    <field>occ</field>
    <set>
     <set comment="spin 1">
      <set comment="kpoint 1">
       <r>   -0.5852    1.0000 </r>
       <r>    5.4617    1.0000 </r>
       <r>    5.4617    1.0000 </r>
       <r>    8.5203    0.0000 </r>
       <r>    9.4112    0.0000 </r>
       <r>    9.4112    0.0000 </r>
      </set>
      <set comment="kpoint 2">
       <r>    1.5407    1.0000 </r>
       <r>    4.4416    1.0000 </r>
       <r>    5.0184    1.0000 </r>
       <r>    9.5889    0.0000 </r>
       <r>   10.1955    0.0000 </r>
       <r>   11.9095    0.0000 </r>
      </set>
      <set comment="kpoint 3">
       <r>    1.9292    1.0000 </r>
       <r>    4.0675    1.0000 </r>
       <r>    6.5268    0.0000 </r>
       <r>    9.7918    0.0000 </r>
       <r>   10.6032    0.0000 </r>
       <r>   14.3823    0.0000 </r>
      </set>
      <set comment="kpoint 4">
       <r>   -1.6425    1.0000 </r>
       <r>    6.3356    0.0000 </r>
       <r>    6.3356    0.0000 </r>
       <r>    6.7004    0.0000 </r>
       <r>    8.7028    0.0000 </r>
       <r>   10.0004    0.0000 </r>
      </set>
      <set comment="kpoint 5">
       <r>    3.1404    1.0000 </r>
       <r>    4.2813    1.0000 </r>
       <r>    4.9062    1.0000 </r>
       <r>   10.1012    0.0000 </r>
       <r>   10.5554    0.0000 </r>
       <r>   14.9785    0.0000 </r>
      </set>
      <set comment="kpoint 6">
       <r>    0.2907    1.0000 </r>
       <r>    5.4041    1.0000 </r>
       <r>    5.5592    1.0319 </r>
       <r>    8.1414    0.0000 </r>
       <r>    8.8764    0.0000 </r>
       <r>   10.4424    0.0000 </r>
      </set>
      <set comment="kpoint 7">
       <r>    1.5595    1.0000 </r>
       <r>    4.5700    1.0000 </r>
       <r>    5.9564    0.0000 </r>
       <r>    8.9737    0.0000 </r>
       <r>   10.9122    0.0000 </r>
       <r>   12.4466    0.0000 </r>
      </set>
      <set comment="kpoint 8">
       <r>    2.1866    1.0000 </r>
       <r>    4.3449    1.0000 </r>
       <r>    5.5247    1.0060 </r>
       <r>    8.2406    0.0000 </r>
       <r>   10.3617    0.0000 </r>
       <r>   12.0188    0.0000 </r>
      </set>
      <set comment="kpoint 9">
       <r>    2.7770    1.0000 </r>
       <r>    4.6130    1.0000 </r>
       <r>    4.9597    1.0000 </r>
       <r>    8.8086    0.0000 </r>
       <r>   11.0441    0.0000 </r>
       <r>   15.2542    0.0000 </r>
      </set>
      <set comment="kpoint 10">
       <r>    4.4304    1.0000 </r>
       <r>    4.4304    1.0000 </r>
       <r>    4.4304    1.0000 </r>
       <r>   10.7314    0.0000 </r>
       <r>   10.7314    0.0000 </r>
       <r>   12.6964    0.0000 </r>
      </set>
      <set comment="kpoint 11">
       <r>    1.9186    1.0000 </r>
       <r>    4.7502    1.0000 </r>
       <r>    6.9211    0.0000 </r>
       <r>    6.9211    0.0000 </r>
       <r>    8.8574    0.0000 </r>
       <r>   10.6671    0.0000 </r>
      </set>
      <set comment="kpoint 12">
       <r>    2.8399    1.0000 </r>
       <r>    3.6794    1.0000 </r>
       <r>    6.8559    0.0000 </r>
       <r>    7.5454    0.0000 </r>
       <r>   11.9444    0.0000 </r>
       <r>   11.9925    0.0000 </r>
      </set>
      <set comment="kpoint 13">
       <r>    2.9914    1.0000 </r>
       <r>    2.9914    1.0000 </r>
       <r>    6.4295    0.0000 </r>
       <r>   10.6359    0.0000 </r>
       <r>   10.6359    0.0000 </r>
       <r>   15.5781    0.0000 </r>
      </set>
      <set comment="kpoint 14">
       <r>    2.2314    1.0000 </r>
       <r>    2.3281    1.0000 </r>
       <r>   10.3086    0.0000 </r>
       <r>   10.3086    0.0000 </r>
       <r>   11.8550    0.0000 </r>
       <r>   12.5795    0.0000 </r>
      </set>
     </set>
     <set comment="spin 2">
      <set comment="kpoint 1">
       <r>   -0.4767    1.0000 </r>
       <r>    5.5658    1.0352 </r>
       <r>    5.5658    1.0352 </r>
       <r>    8.6214    0.0000 </r>
       <r>    9.4848    0.0000 </r>
       <r>    9.4848    0.0000 </r>
      </set>
      <set comment="kpoint 2">
       <r>    1.6476    1.0000 </r>
       <r>    4.5474    1.0000 </r>
       <r>    5.1198    1.0000 </r>
       <r>    9.6671    0.0000 </r>
       <r>   10.2656    0.0000 </r>
       <r>   12.0043    0.0000 </r>
      </set>
      <set comment="kpoint 3">
       <r>    2.0338    1.0000 </r>
       <r>    4.1741    1.0000 </r>
       <r>    6.6297    0.0000 </r>
       <r>    9.8691    0.0000 </r>
       <r>   10.6702    0.0000 </r>
       <r>   14.4692    0.0000 </r>
      </set>
      <set comment="kpoint 4">
       <r>   -1.5336    1.0000 </r>
       <r>    6.4402    0.0000 </r>
       <r>    6.4402    0.0000 </r>
       <r>    6.8044    0.0000 </r>
       <r>    8.7771    0.0000 </r>
       <r>   10.0684    0.0000 </r>
      </set>
      <set comment="kpoint 5">
       <r>    3.2471    1.0000 </r>
       <r>    4.3829    1.0000 </r>
       <r>    5.0102    1.0000 </r>
       <r>   10.1766    0.0000 </r>
       <r>   10.6253    0.0000 </r>
       <r>   15.0852    0.0000 </r>
      </set>
      <set comment="kpoint 6">
       <r>    0.3983    1.0000 </r>
       <r>    5.5098    1.0019 </r>
       <r>    5.6569    0.1001 </r>
       <r>    8.2273    0.0000 </r>
       <r>    8.9767    0.0000 </r>
       <r>   10.5108    0.0000 </r>
      </set>
      <set comment="kpoint 7">
       <r>    1.6639    1.0000 </r>
       <r>    4.6764    1.0000 </r>
       <r>    6.0528    0.0000 </r>
       <r>    9.0593    0.0000 </r>
       <r>   10.9857    0.0000 </r>
       <r>   12.5373    0.0000 </r>
      </set>
      <set comment="kpoint 8">
       <r>    2.2917    1.0000 </r>
       <r>    4.4395    1.0000 </r>
       <r>    5.6289    0.5033 </r>
       <r>    8.3323    0.0000 </r>
       <r>   10.4412    0.0000 </r>
       <r>   12.1084    0.0000 </r>
      </set>
      <set comment="kpoint 9">
       <r>    2.8788    1.0000 </r>
       <r>    4.7154    1.0000 </r>
       <r>    5.0535    1.0000 </r>
       <r>    8.8983    0.0000 </r>
       <r>   11.1293    0.0000 </r>
       <r>   15.3398    0.0000 </r>
      </set>
      <set comment="kpoint 10">
       <r>    4.5351    1.0000 </r>
       <r>    4.5351    1.0000 </r>
       <r>    4.5351    1.0000 </r>
       <r>   10.7976    0.0000 </r>
       <r>   10.7976    0.0000 </r>
       <r>   12.8095    0.0000 </r>
      </set>
      <set comment="kpoint 11">
       <r>    2.0219    1.0000 </r>
       <r>    4.8362    1.0000 </r>
       <r>    7.0248    0.0000 </r>
       <r>    7.0248    0.0000 </r>
       <r>    8.9575    0.0000 </r>
       <r>   10.7435    0.0000 </r>
      </set>
      <set comment="kpoint 12">
       <r>    2.9348    1.0000 </r>
       <r>    3.7699    1.0000 </r>
       <r>    6.9595    0.0000 </r>
       <r>    7.6442    0.0000 </r>
       <r>   12.0364    0.0000 </r>
       <r>   12.0869    0.0000 </r>
      </set>
      <set comment="kpoint 13">
       <r>    3.0816    1.0000 </r>
       <r>    3.0816    1.0000 </r>
       <r>    6.5349    0.0000 </r>
       <r>   10.7323    0.0000 </r>
       <r>   10.7323    0.0000 </r>
       <r>   15.6781    0.0000 </r>
      </set>
      <set comment="kpoint 14">
       <r>    2.3211    1.0000 </r>
       <r>    2.4185    1.0000 </r>
       <r>   10.4077    0.0000 </r>
       <r>   10.4077    0.0000 </r>
       <r>   11.9462    0.0000 </r>
       <r>   12.6871    0.0000 </r>
      </set>
     </set>
    </set>
   </array>
  </eigenvalues>
  <separator name="orbital magnetization" >
   <v name="MAGDIPOLOUT">      0.00000000      0.00000000      0.00000000</v>
  </separator>
  <dos>
   <i name="efermi">      5.62904889 </i>
   <total>
    <array>
     <dimension dim="1">gridpoints</dimension>
     <dimension dim="2">spin</dimension>
     <field>energy</field>
     <field>total</field>
     <field>integrated</field>
     <set>
      <set comment="spin 1">
       <r>    -2.5086     0.0000     0.0000 </r>
       <r>    -2.4451     0.0000     0.0000 </r>
       <r>    -2.3816     0.0000     0.0000 </r>
       <r>    -2.3180     0.0000     0.0000 </r>
       <r>    -2.2545     0.0000     0.0000 </r>
       <r>    -2.1910     0.0000     0.0000 </r>
       <r>    -2.1275     0.0000     0.0000 </r>
       <r>    -2.0640     0.0000     0.0000 </r>
       <r>    -2.0005     0.0000     0.0000 </r>
       <r>    -1.9370     0.0000     0.0000 </r>
       <r>    -1.8735     0.0000     0.0000 </r>
       <r>    -1.8100     0.0000     0.0000 </r>
       <r>    -1.7465    -0.0027    -0.0002 </r>
       <r>    -1.6830     0.0061     0.0002 </r>
       <r>    -1.6194     0.3677     0.0236 </r>
       <r>    -1.5559     0.0738     0.0283 </r>
       <r>    -1.4924    -0.0075     0.0278 </r>
       <r>    -1.4289     0.0000     0.0278 </r>
       <r>    -1.3654     0.0000     0.0278 </r>
       <r>    -1.3019     0.0000     0.0278 </r>
       <r>    -1.2384     0.0000     0.0278 </r>
       <r>    -1.1749     0.0000     0.0278 </r>
       <r>    -1.1114     0.0000     0.0278 </r>
       <r>    -1.0479     0.0000     0.0278 </r>
       <r>    -0.9844     0.0000     0.0278 </r>
       <r>    -0.9208     0.0000     0.0278 </r>
       <r>    -0.8573     0.0000     0.0278 </r>
       <r>    -0.7938     0.0000     0.0278 </r>
       <r>    -0.7303    -0.0001     0.0278 </r>
       <r>    -0.6668    -0.0125     0.0270 </r>
       <r>    -0.6033     0.1377     0.0357 </r>
       <r>    -0.5398     0.4654     0.0653 </r>
       <r>    -0.4763    -0.0049     0.0650 </r>
       <r>    -0.4128    -0.0025     0.0648 </r>
       <r>    -0.3493     0.0000     0.0648 </r>
       <r>    -0.2858     0.0000     0.0648 </r>
       <r>    -0.2222     0.0000     0.0648 </r>
       <r>    -0.1587     0.0000     0.0648 </r>
       <r>    -0.0952     0.0000     0.0648 </r>
       <r>    -0.0317     0.0000     0.0648 </r>
       <r>     0.0318     0.0000     0.0648 </r>
       <r>     0.0953     0.0000     0.0648 </r>
       <r>     0.1588    -0.0011     0.0647 </r>
       <r>     0.2223    -0.0565     0.0612 </r>
       <r>     0.2858     0.7886     0.1112 </r>
       <r>     0.3493     1.0798     0.1798 </r>
       <r>     0.4128    -0.0586     0.1761 </r>
       <r>     0.4764    -0.0026     0.1759 </r>
       <r>     0.5399     0.0000     0.1759 </r>
       <r>     0.6034     0.0000     0.1759 </r>
       <r>     0.6669     0.0000     0.1759 </r>
       <r>     0.7304     0.0000     0.1759 </r>
       <r>     0.7939     0.0000     0.1759 </r>
       <r>     0.8574     0.0000     0.1759 </r>
       <r>     0.9209     0.0000     0.1759 </r>
       <r>     0.9844     0.0000     0.1759 </r>
       <r>     1.0479     0.0000     0.1759 </r>
       <r>     1.1114     0.0000     0.1759 </r>
       <r>     1.1750     0.0000     0.1759 </r>
       <r>     1.2385     0.0000     0.1759 </r>
       <r>     1.3020     0.0000     0.1759 </r>
       <r>     1.3655     0.0000     0.1759 </r>
       <r>     1.4290    -0.0073     0.1755 </r>
       <r>     1.4925    -0.0885     0.1698 </r>
       <r>     1.5560     2.1733     0.3079 </r>
       <r>     1.6195     1.5257     0.4048 </r>
       <r>     1.6830    -0.1015     0.3983 </r>
       <r>     1.7465    -0.0027     0.3981 </r>
       <r>     1.8100    -0.0036     0.3979 </r>
       <r>     1.8736    -0.0304     0.3960 </r>
       <r>     1.9371     0.9322     0.4552 </r>
       <r>     2.0006     0.4501     0.4838 </r>
       <r>     2.0641    -0.0382     0.4814 </r>
       <r>     2.1276    -0.0621     0.4774 </r>
       <r>     2.1911     1.0764     0.5458 </r>
       <r>     2.2546     1.1542     0.6191 </r>
       <r>     2.3181     0.1752     0.6302 </r>
       <r>     2.3816     0.2962     0.6490 </r>
       <r>     2.4451    -0.0126     0.6482 </r>
       <r>     2.5086    -0.0010     0.6481 </r>
       <r>     2.5722     0.0000     0.6481 </r>
       <r>     2.6357    -0.0004     0.6481 </r>
       <r>     2.6992    -0.0440     0.6453 </r>
       <r>     2.7627     0.4702     0.6752 </r>
       <r>     2.8262     1.8511     0.7928 </r>
       <r>     2.8897     1.2629     0.8730 </r>
       <r>     2.9532    -0.0125     0.8722 </r>
       <r>     3.0167     0.9879     0.9349 </r>
       <r>     3.0802     0.1062     0.9417 </r>
       <r>     3.1437     1.0175     1.0063 </r>
       <r>     3.2072     0.8352     1.0593 </r>
       <r>     3.2708    -0.0579     1.0556 </r>
       <r>     3.3343    -0.0012     1.0556 </r>
       <r>     3.3978     0.0000     1.0556 </r>
       <r>     3.4613     0.0000     1.0556 </r>
       <r>     3.5248    -0.0001     1.0555 </r>
       <r>     3.5883    -0.0237     1.0540 </r>
       <r>     3.6518     0.2038     1.0670 </r>
       <r>     3.7153     1.5104     1.1629 </r>
       <r>     3.7788     0.0736     1.1676 </r>
       <r>     3.8423    -0.0145     1.1667 </r>
       <r>     3.9058    -0.0001     1.1667 </r>
       <r>     3.9694    -0.0079     1.1662 </r>
       <r>     4.0329     0.0454     1.1690 </r>
       <r>     4.0964     0.7584     1.2172 </r>
       <r>     4.1599     0.0871     1.2227 </r>
       <r>     4.2234    -0.0718     1.2182 </r>
       <r>     4.2869     1.0414     1.2843 </r>
       <r>     4.3504     1.8321     1.4007 </r>
       <r>     4.4139     1.0286     1.4660 </r>
       <r>     4.4774     1.7730     1.5786 </r>
       <r>     4.5409     0.1927     1.5909 </r>
       <r>     4.6044     2.1810     1.7294 </r>
       <r>     4.6680     1.2635     1.8096 </r>
       <r>     4.7315     0.0299     1.8115 </r>
       <r>     4.7950     0.3419     1.8332 </r>
       <r>     4.8585    -0.0437     1.8304 </r>
       <r>     4.9220     1.3848     1.9184 </r>
       <r>     4.9855     2.0857     2.0509 </r>
       <r>     5.0490     1.7193     2.1600 </r>
       <r>     5.1125     0.1244     2.1680 </r>
       <r>     5.1760    -0.0201     2.1667 </r>
       <r>     5.2395    -0.0001     2.1667 </r>
       <r>     5.3030    -0.0130     2.1658 </r>
       <r>     5.3666     0.0414     2.1685 </r>
       <r>     5.4301     1.5672     2.2680 </r>
       <r>     5.4936     1.3342     2.3527 </r>
       <r>     5.5571     2.4567     2.5088 </r>
       <r>     5.6206     1.1086     2.5792 </r>
       <r>     5.6841    -0.0780     2.5742 </r>
       <r>     5.7476    -0.0021     2.5741 </r>
       <r>     5.8111    -0.0003     2.5741 </r>
       <r>     5.8746    -0.0372     2.5717 </r>
       <r>     5.9381     0.4090     2.5977 </r>
       <r>     6.0016     1.3993     2.6865 </r>
       <r>     6.0652    -0.0137     2.6857 </r>
       <r>     6.1287    -0.0076     2.6852 </r>
       <r>     6.1922    -0.0002     2.6852 </r>
       <r>     6.2557    -0.0201     2.6839 </r>
       <r>     6.3192     0.2261     2.6983 </r>
       <r>     6.3827     0.6745     2.7411 </r>
       <r>     6.4462     0.4247     2.7681 </r>
       <r>     6.5097     0.3664     2.7913 </r>
       <r>     6.5732     0.6750     2.8342 </r>
       <r>     6.6367    -0.0256     2.8326 </r>
       <r>     6.7002     0.2291     2.8471 </r>
       <r>     6.7638     0.2130     2.8607 </r>
       <r>     6.8273     0.1598     2.8708 </r>
       <r>     6.8908     1.5929     2.9720 </r>
       <r>     6.9543     0.8475     3.0258 </r>
       <r>     7.0178     0.0399     3.0283 </r>
       <r>     7.0813    -0.0086     3.0278 </r>
       <r>     7.1448     0.0000     3.0278 </r>
       <r>     7.2083     0.0000     3.0278 </r>
       <r>     7.2718     0.0000     3.0278 </r>
       <r>     7.3353     0.0000     3.0278 </r>
       <r>     7.3988    -0.0002     3.0278 </r>
       <r>     7.4624    -0.0352     3.0255 </r>
       <r>     7.5259     0.3768     3.0495 </r>
       <r>     7.5894     1.4213     3.1397 </r>
       <r>     7.6529    -0.0048     3.1394 </r>
       <r>     7.7164    -0.0084     3.1389 </r>
       <r>     7.7799     0.0000     3.1389 </r>
       <r>     7.8434     0.0000     3.1389 </r>
       <r>     7.9069     0.0000     3.1389 </r>
       <r>     7.9704     0.0000     3.1389 </r>
       <r>     8.0339    -0.0084     3.1384 </r>
       <r>     8.0975    -0.0050     3.1380 </r>
       <r>     8.1610     1.3809     3.2257 </r>
       <r>     8.2245     0.8405     3.2791 </r>
       <r>     8.2880     1.3241     3.3632 </r>
       <r>     8.3515    -0.0265     3.3615 </r>
       <r>     8.4150    -0.0098     3.3609 </r>
       <r>     8.4785     0.0041     3.3612 </r>
       <r>     8.5420     0.4845     3.3919 </r>
       <r>     8.6055     0.1044     3.3986 </r>
       <r>     8.6690     0.0143     3.3995 </r>
       <r>     8.7325     0.3327     3.4206 </r>
       <r>     8.7961     0.5505     3.4556 </r>
       <r>     8.8596     1.9652     3.5804 </r>
       <r>     8.9231     1.5076     3.6761 </r>
       <r>     8.9866     1.2467     3.7553 </r>
       <r>     9.0501     0.5460     3.7900 </r>
       <r>     9.1136    -0.0457     3.7871 </r>
       <r>     9.1771    -0.0005     3.7870 </r>
       <r>     9.2406     0.0000     3.7870 </r>
       <r>     9.3041    -0.0057     3.7867 </r>
       <r>     9.3676    -0.0013     3.7866 </r>
       <r>     9.4311     0.9514     3.8470 </r>
       <r>     9.4947     0.2253     3.8613 </r>
       <r>     9.5582     0.1253     3.8693 </r>
       <r>     9.6217     1.5217     3.9659 </r>
       <r>     9.6852     0.1125     3.9731 </r>
       <r>     9.7487    -0.0169     3.9720 </r>
       <r>     9.8122     0.7170     4.0175 </r>
       <r>     9.8757     0.1780     4.0288 </r>
       <r>     9.9392    -0.0320     4.0268 </r>
       <r>    10.0027     0.2360     4.0418 </r>
       <r>    10.0662     0.3008     4.0609 </r>
       <r>    10.1297     1.4419     4.1525 </r>
       <r>    10.1933     1.0508     4.2192 </r>
       <r>    10.2568     0.9494     4.2795 </r>
       <r>    10.3203     0.5828     4.3165 </r>
       <r>    10.3838     1.6917     4.4239 </r>
       <r>    10.4473     1.3651     4.5106 </r>
       <r>    10.5108     0.7351     4.5573 </r>
       <r>    10.5743     1.3983     4.6461 </r>
       <r>    10.6378     1.8524     4.7638 </r>
       <r>    10.7013     1.0010     4.8273 </r>
       <r>    10.7648     0.2297     4.8419 </r>
       <r>    10.8283    -0.0210     4.8406 </r>
       <r>    10.8919     0.3554     4.8632 </r>
       <r>    10.9554     1.4064     4.9525 </r>
       <r>    11.0189     0.2517     4.9685 </r>
       <r>    11.0824     1.4837     5.0627 </r>
       <r>    11.1459     0.0457     5.0656 </r>
       <r>    11.2094    -0.0124     5.0648 </r>
       <r>    11.2729     0.0000     5.0648 </r>
       <r>    11.3364     0.0000     5.0648 </r>
       <r>    11.3999     0.0000     5.0648 </r>
       <r>    11.4634     0.0000     5.0648 </r>
       <r>    11.5269     0.0000     5.0648 </r>
       <r>    11.5905     0.0000     5.0648 </r>
       <r>    11.6540     0.0000     5.0648 </r>
       <r>    11.7175    -0.0002     5.0648 </r>
       <r>    11.7810    -0.0138     5.0639 </r>
       <r>    11.8445     0.0817     5.0691 </r>
       <r>    11.9080     1.2275     5.1471 </r>
       <r>    11.9715     2.7928     5.3244 </r>
       <r>    12.0350     2.9558     5.5122 </r>
       <r>    12.0985     0.4418     5.5402 </r>
       <r>    12.1620    -0.0498     5.5371 </r>
       <r>    12.2255    -0.0004     5.5370 </r>
       <r>    12.2891    -0.0001     5.5370 </r>
       <r>    12.3526    -0.0201     5.5358 </r>
       <r>    12.4161     0.1521     5.5454 </r>
       <r>    12.4796     1.5180     5.6418 </r>
       <r>    12.5431     0.1303     5.6501 </r>
       <r>    12.6066     0.3573     5.6728 </r>
       <r>    12.6701     0.0724     5.6774 </r>
       <r>    12.7336     0.1191     5.6849 </r>
       <r>    12.7971     0.0048     5.6853 </r>
       <r>    12.8606    -0.0011     5.6852 </r>
       <r>    12.9241     0.0000     5.6852 </r>
       <r>    12.9877     0.0000     5.6852 </r>
       <r>    13.0512     0.0000     5.6852 </r>
       <r>    13.1147     0.0000     5.6852 </r>
       <r>    13.1782     0.0000     5.6852 </r>
       <r>    13.2417     0.0000     5.6852 </r>
       <r>    13.3052     0.0000     5.6852 </r>
       <r>    13.3687     0.0000     5.6852 </r>
       <r>    13.4322     0.0000     5.6852 </r>
       <r>    13.4957     0.0000     5.6852 </r>
       <r>    13.5592     0.0000     5.6852 </r>
       <r>    13.6227     0.0000     5.6852 </r>
       <r>    13.6863     0.0000     5.6852 </r>
       <r>    13.7498     0.0000     5.6852 </r>
       <r>    13.8133     0.0000     5.6852 </r>
       <r>    13.8768     0.0000     5.6852 </r>
       <r>    13.9403     0.0000     5.6852 </r>
       <r>    14.0038     0.0000     5.6852 </r>
       <r>    14.0673     0.0000     5.6852 </r>
       <r>    14.1308     0.0000     5.6852 </r>
       <r>    14.1943     0.0000     5.6852 </r>
       <r>    14.2578    -0.0011     5.6851 </r>
       <r>    14.3213    -0.0300     5.6832 </r>
       <r>    14.3849     0.5058     5.7153 </r>
       <r>    14.4484     0.4299     5.7426 </r>
       <r>    14.5119    -0.0293     5.7408 </r>
       <r>    14.5754    -0.0007     5.7407 </r>
       <r>    14.6389     0.0000     5.7407 </r>
       <r>    14.7024     0.0000     5.7407 </r>
       <r>    14.7659     0.0000     5.7407 </r>
       <r>    14.8294    -0.0002     5.7407 </r>
       <r>    14.8929    -0.0313     5.7387 </r>
       <r>    14.9564     0.3172     5.7589 </r>
       <r>    15.0199     1.4584     5.8515 </r>
       <r>    15.0835     0.0155     5.8525 </r>
       <r>    15.1470    -0.0185     5.8513 </r>
       <r>    15.2105    -0.0035     5.8511 </r>
       <r>    15.2740     1.4241     5.9415 </r>
       <r>    15.3375     0.3726     5.9652 </r>
       <r>    15.4010    -0.0349     5.9630 </r>
       <r>    15.4645    -0.0020     5.9629 </r>
       <r>    15.5280    -0.0130     5.9620 </r>
       <r>    15.5915     0.4336     5.9896 </r>
       <r>    15.6550     0.1795     6.0010 </r>
       <r>    15.7185    -0.0150     6.0000 </r>
       <r>    15.7821    -0.0002     6.0000 </r>
       <r>    15.8456     0.0000     6.0000 </r>
       <r>    15.9091     0.0000     6.0000 </r>
       <r>    15.9726     0.0000     6.0000 </r>
       <r>    16.0361     0.0000     6.0000 </r>
       <r>    16.0996     0.0000     6.0000 </r>
       <r>    16.1631     0.0000     6.0000 </r>
       <r>    16.2266     0.0000     6.0000 </r>
       <r>    16.2901     0.0000     6.0000 </r>
       <r>    16.3536     0.0000     6.0000 </r>
       <r>    16.4171     0.0000     6.0000 </r>
       <r>    16.4807     0.0000     6.0000 </r>
       <r>    16.5442     0.0000     6.0000 </r>
      </set>
      <set comment="spin 2">
       <r>    -2.5086     0.0000     0.0000 </r>
       <r>    -2.4451     0.0000     0.0000 </r>
       <r>    -2.3816     0.0000     0.0000 </r>
       <r>    -2.3180     0.0000     0.0000 </r>
       <r>    -2.2545     0.0000     0.0000 </r>
       <r>    -2.1910     0.0000     0.0000 </r>
       <r>    -2.1275     0.0000     0.0000 </r>
       <r>    -2.0640     0.0000     0.0000 </r>
       <r>    -2.0005     0.0000     0.0000 </r>
       <r>    -1.9370     0.0000     0.0000 </r>
       <r>    -1.8735     0.0000     0.0000 </r>
       <r>    -1.8100     0.0000     0.0000 </r>
       <r>    -1.7465     0.0000     0.0000 </r>
       <r>    -1.6830     0.0000     0.0000 </r>
       <r>    -1.6194    -0.0077    -0.0005 </r>
       <r>    -1.5559     0.0778     0.0044 </r>
       <r>    -1.4924     0.3654     0.0277 </r>
       <r>    -1.4289     0.0045     0.0279 </r>
       <r>    -1.3654    -0.0026     0.0278 </r>
       <r>    -1.3019     0.0000     0.0278 </r>
       <r>    -1.2384     0.0000     0.0278 </r>
       <r>    -1.1749     0.0000     0.0278 </r>
       <r>    -1.1114     0.0000     0.0278 </r>
       <r>    -1.0479     0.0000     0.0278 </r>
       <r>    -0.9844     0.0000     0.0278 </r>
       <r>    -0.9208     0.0000     0.0278 </r>
       <r>    -0.8573     0.0000     0.0278 </r>
       <r>    -0.7938     0.0000     0.0278 </r>
       <r>    -0.7303     0.0000     0.0278 </r>
       <r>    -0.6668     0.0000     0.0278 </r>
       <r>    -0.6033    -0.0006     0.0277 </r>
       <r>    -0.5398    -0.0200     0.0265 </r>
       <r>    -0.4763     0.3162     0.0466 </r>
       <r>    -0.4128     0.3080     0.0661 </r>
       <r>    -0.3493    -0.0199     0.0648 </r>
       <r>    -0.2858    -0.0005     0.0648 </r>
       <r>    -0.2222     0.0000     0.0648 </r>
       <r>    -0.1587     0.0000     0.0648 </r>
       <r>    -0.0952     0.0000     0.0648 </r>
       <r>    -0.0317     0.0000     0.0648 </r>
       <r>     0.0318     0.0000     0.0648 </r>
       <r>     0.0953     0.0000     0.0648 </r>
       <r>     0.1588     0.0000     0.0648 </r>
       <r>     0.2223     0.0000     0.0648 </r>
       <r>     0.2858    -0.0058     0.0644 </r>
       <r>     0.3493    -0.0341     0.0623 </r>
       <r>     0.4128     1.3264     0.1465 </r>
       <r>     0.4764     0.5064     0.1787 </r>
       <r>     0.5399    -0.0431     0.1760 </r>
       <r>     0.6034    -0.0004     0.1759 </r>
       <r>     0.6669     0.0000     0.1759 </r>
       <r>     0.7304     0.0000     0.1759 </r>
       <r>     0.7939     0.0000     0.1759 </r>
       <r>     0.8574     0.0000     0.1759 </r>
       <r>     0.9209     0.0000     0.1759 </r>
       <r>     0.9844     0.0000     0.1759 </r>
       <r>     1.0479     0.0000     0.1759 </r>
       <r>     1.1114     0.0000     0.1759 </r>
       <r>     1.1750     0.0000     0.1759 </r>
       <r>     1.2385     0.0000     0.1759 </r>
       <r>     1.3020     0.0000     0.1759 </r>
       <r>     1.3655     0.0000     0.1759 </r>
       <r>     1.4290     0.0000     0.1759 </r>
       <r>     1.4925    -0.0001     0.1759 </r>
       <r>     1.5560    -0.0312     0.1739 </r>
       <r>     1.6195     0.1861     0.1858 </r>
       <r>     1.6830     2.9279     0.3717 </r>
       <r>     1.7465     0.4674     0.4014 </r>
       <r>     1.8100    -0.0508     0.3982 </r>
       <r>     1.8736    -0.0004     0.3981 </r>
       <r>     1.9371    -0.0167     0.3971 </r>
       <r>     2.0006     0.1389     0.4059 </r>
       <r>     2.0641     1.1226     0.4772 </r>
       <r>     2.1276     0.0799     0.4823 </r>
       <r>     2.1911    -0.0263     0.4806 </r>
       <r>     2.2546     0.0447     0.4834 </r>
       <r>     2.3181     1.7106     0.5921 </r>
       <r>     2.3816     0.4983     0.6237 </r>
       <r>     2.4451     0.3358     0.6451 </r>
       <r>     2.5086     0.0548     0.6485 </r>
       <r>     2.5722    -0.0062     0.6481 </r>
       <r>     2.6357     0.0000     0.6481 </r>
       <r>     2.6992     0.0000     0.6481 </r>
       <r>     2.7627    -0.0043     0.6479 </r>
       <r>     2.8262    -0.0555     0.6443 </r>
       <r>     2.8897     1.2279     0.7223 </r>
       <r>     2.9532     2.0115     0.8501 </r>
       <r>     3.0167     0.3168     0.8702 </r>
       <r>     3.0802     0.5590     0.9057 </r>
       <r>     3.1437     0.6401     0.9464 </r>
       <r>     3.2072    -0.0100     0.9457 </r>
       <r>     3.2708     1.4759     1.0395 </r>
       <r>     3.3343     0.2828     1.0574 </r>
       <r>     3.3978    -0.0291     1.0556 </r>
       <r>     3.4613    -0.0002     1.0556 </r>
       <r>     3.5248     0.0000     1.0556 </r>
       <r>     3.5883     0.0000     1.0556 </r>
       <r>     3.6518    -0.0037     1.0553 </r>
       <r>     3.7153    -0.0527     1.0520 </r>
       <r>     3.7788     1.1904     1.1276 </r>
       <r>     3.8423     0.6678     1.1700 </r>
       <r>     3.9058    -0.0516     1.1667 </r>
       <r>     3.9694    -0.0007     1.1667 </r>
       <r>     4.0329    -0.0002     1.1667 </r>
       <r>     4.0964    -0.0218     1.1653 </r>
       <r>     4.1599     0.2584     1.1817 </r>
       <r>     4.2234     0.6590     1.2235 </r>
       <r>     4.2869    -0.0360     1.2212 </r>
       <r>     4.3504     0.0925     1.2271 </r>
       <r>     4.4139     1.7642     1.3392 </r>
       <r>     4.4774     1.5697     1.4389 </r>
       <r>     4.5409     1.0465     1.5053 </r>
       <r>     4.6044     1.2430     1.5843 </r>
       <r>     4.6680     0.5842     1.6214 </r>
       <r>     4.7315     2.5300     1.7820 </r>
       <r>     4.7950     0.4167     1.8085 </r>
       <r>     4.8585     0.3210     1.8289 </r>
       <r>     4.9220     0.0490     1.8320 </r>
       <r>     4.9855     0.1954     1.8444 </r>
       <r>     5.0490     2.2354     1.9864 </r>
       <r>     5.1125     1.8241     2.1022 </r>
       <r>     5.1760     1.0762     2.1706 </r>
       <r>     5.2395    -0.0583     2.1669 </r>
       <r>     5.3030    -0.0032     2.1667 </r>
       <r>     5.3666    -0.0003     2.1666 </r>
       <r>     5.4301    -0.0410     2.1640 </r>
       <r>     5.4936     0.4274     2.1912 </r>
       <r>     5.5571     1.7426     2.3019 </r>
       <r>     5.6206     1.5202     2.3984 </r>
       <r>     5.6841     2.6392     2.5660 </r>
       <r>     5.7476     0.1547     2.5758 </r>
       <r>     5.8111    -0.0277     2.5741 </r>
       <r>     5.8746    -0.0001     2.5741 </r>
       <r>     5.9381    -0.0049     2.5738 </r>
       <r>     6.0016    -0.0429     2.5710 </r>
       <r>     6.0652     1.2769     2.6521 </r>
       <r>     6.1287     0.5674     2.6882 </r>
       <r>     6.1922    -0.0465     2.6852 </r>
       <r>     6.2557    -0.0005     2.6852 </r>
       <r>     6.3192    -0.0014     2.6851 </r>
       <r>     6.3827    -0.0288     2.6833 </r>
       <r>     6.4462     0.5474     2.7180 </r>
       <r>     6.5097     0.4589     2.7472 </r>
       <r>     6.5732     0.4417     2.7752 </r>
       <r>     6.6367     0.5843     2.8123 </r>
       <r>     6.7002     0.3554     2.8349 </r>
       <r>     6.7638    -0.0215     2.8335 </r>
       <r>     6.8273     0.3654     2.8567 </r>
       <r>     6.8908     0.0187     2.8579 </r>
       <r>     6.9543     0.7433     2.9051 </r>
       <r>     7.0178     1.4523     2.9974 </r>
       <r>     7.0813     0.5110     3.0298 </r>
       <r>     7.1448    -0.0308     3.0279 </r>
       <r>     7.2083    -0.0016     3.0278 </r>
       <r>     7.2718     0.0000     3.0278 </r>
       <r>     7.3353     0.0000     3.0278 </r>
       <r>     7.3988     0.0000     3.0278 </r>
       <r>     7.4624     0.0000     3.0278 </r>
       <r>     7.5259    -0.0036     3.0275 </r>
       <r>     7.5894    -0.0533     3.0242 </r>
       <r>     7.6529     1.1835     3.0993 </r>
       <r>     7.7164     0.6756     3.1422 </r>
       <r>     7.7799    -0.0519     3.1389 </r>
       <r>     7.8434    -0.0007     3.1389 </r>
       <r>     7.9069     0.0000     3.1389 </r>
       <r>     7.9704     0.0000     3.1389 </r>
       <r>     8.0339     0.0000     3.1389 </r>
       <r>     8.0975    -0.0013     3.1388 </r>
       <r>     8.1610    -0.0583     3.1351 </r>
       <r>     8.2245     0.8420     3.1886 </r>
       <r>     8.2880     1.0132     3.2529 </r>
       <r>     8.3515     1.3546     3.3390 </r>
       <r>     8.4150     0.3849     3.3634 </r>
       <r>     8.4785    -0.0360     3.3611 </r>
       <r>     8.5420    -0.0139     3.3602 </r>
       <r>     8.6055     0.1570     3.3702 </r>
       <r>     8.6690     0.4493     3.3987 </r>
       <r>     8.7325    -0.0116     3.3980 </r>
       <r>     8.7961     0.3385     3.4195 </r>
       <r>     8.8596     0.1313     3.4278 </r>
       <r>     8.9231     1.4516     3.5200 </r>
       <r>     8.9866     1.8021     3.6345 </r>
       <r>     9.0501     1.3162     3.7181 </r>
       <r>     9.1136     1.1424     3.7906 </r>
       <r>     9.1771    -0.0527     3.7873 </r>
       <r>     9.2406    -0.0038     3.7870 </r>
       <r>     9.3041     0.0000     3.7870 </r>
       <r>     9.3676    -0.0026     3.7869 </r>
       <r>     9.4311    -0.0337     3.7847 </r>
       <r>     9.4947     0.8097     3.8362 </r>
       <r>     9.5582     0.4194     3.8628 </r>
       <r>     9.6217    -0.0484     3.8597 </r>
       <r>     9.6852     1.3954     3.9483 </r>
       <r>     9.7487     0.4125     3.9745 </r>
       <r>     9.8122    -0.0659     3.9703 </r>
       <r>     9.8757     0.5639     4.0062 </r>
       <r>     9.9392     0.3678     4.0295 </r>
       <r>    10.0027    -0.0420     4.0269 </r>
       <r>    10.0662     0.2106     4.0402 </r>
       <r>    10.1297     0.2258     4.0546 </r>
       <r>    10.1933     1.3023     4.1373 </r>
       <r>    10.2568     1.1208     4.2085 </r>
       <r>    10.3203     1.1310     4.2803 </r>
       <r>    10.3838     0.0261     4.2820 </r>
       <r>    10.4473     1.7895     4.3956 </r>
       <r>    10.5108     1.7021     4.5037 </r>
       <r>    10.5743     0.8225     4.5559 </r>
       <r>    10.6378     1.2655     4.6363 </r>
       <r>    10.7013     1.4185     4.7264 </r>
       <r>    10.7648     1.4211     4.8166 </r>
       <r>    10.8283     0.4073     4.8425 </r>
       <r>    10.8919    -0.0157     4.8415 </r>
       <r>    10.9554     0.1519     4.8512 </r>
       <r>    11.0189     1.5144     4.9473 </r>
       <r>    11.0824     0.0871     4.9529 </r>
       <r>    11.1459     1.3517     5.0387 </r>
       <r>    11.2094     0.4511     5.0674 </r>
       <r>    11.2729    -0.0398     5.0648 </r>
       <r>    11.3364    -0.0003     5.0648 </r>
       <r>    11.3999     0.0000     5.0648 </r>
       <r>    11.4634     0.0000     5.0648 </r>
       <r>    11.5269     0.0000     5.0648 </r>
       <r>    11.5905     0.0000     5.0648 </r>
       <r>    11.6540     0.0000     5.0648 </r>
       <r>    11.7175     0.0000     5.0648 </r>
       <r>    11.7810     0.0000     5.0648 </r>
       <r>    11.8445    -0.0032     5.0646 </r>
       <r>    11.9080    -0.0072     5.0642 </r>
       <r>    11.9715     0.4251     5.0912 </r>
       <r>    12.0350     2.3829     5.2425 </r>
       <r>    12.0985     3.0175     5.4341 </r>
       <r>    12.1620     1.7251     5.5437 </r>
       <r>    12.2255    -0.1001     5.5373 </r>
       <r>    12.2891    -0.0045     5.5370 </r>
       <r>    12.3526     0.0000     5.5370 </r>
       <r>    12.4161    -0.0028     5.5369 </r>
       <r>    12.4796    -0.0577     5.5332 </r>
       <r>    12.5431     1.1058     5.6034 </r>
       <r>    12.6066     0.7509     5.6511 </r>
       <r>    12.6701     0.0550     5.6546 </r>
       <r>    12.7336     0.3390     5.6761 </r>
       <r>    12.7971     0.0419     5.6788 </r>
       <r>    12.8606     0.1046     5.6854 </r>
       <r>    12.9241    -0.0036     5.6852 </r>
       <r>    12.9877    -0.0004     5.6852 </r>
       <r>    13.0512     0.0000     5.6852 </r>
       <r>    13.1147     0.0000     5.6852 </r>
       <r>    13.1782     0.0000     5.6852 </r>
       <r>    13.2417     0.0000     5.6852 </r>
       <r>    13.3052     0.0000     5.6852 </r>
       <r>    13.3687     0.0000     5.6852 </r>
       <r>    13.4322     0.0000     5.6852 </r>
       <r>    13.4957     0.0000     5.6852 </r>
       <r>    13.5592     0.0000     5.6852 </r>
       <r>    13.6227     0.0000     5.6852 </r>
       <r>    13.6863     0.0000     5.6852 </r>
       <r>    13.7498     0.0000     5.6852 </r>
       <r>    13.8133     0.0000     5.6852 </r>
       <r>    13.8768     0.0000     5.6852 </r>
       <r>    13.9403     0.0000     5.6852 </r>
       <r>    14.0038     0.0000     5.6852 </r>
       <r>    14.0673     0.0000     5.6852 </r>
       <r>    14.1308     0.0000     5.6852 </r>
       <r>    14.1943     0.0000     5.6852 </r>
       <r>    14.2578     0.0000     5.6852 </r>
       <r>    14.3213    -0.0001     5.6852 </r>
       <r>    14.3849    -0.0166     5.6841 </r>
       <r>    14.4484     0.1728     5.6951 </r>
       <r>    14.5119     0.7206     5.7409 </r>
       <r>    14.5754     0.0026     5.7410 </r>
       <r>    14.6389    -0.0046     5.7407 </r>
       <r>    14.7024     0.0000     5.7407 </r>
       <r>    14.7659     0.0000     5.7407 </r>
       <r>    14.8294     0.0000     5.7407 </r>
       <r>    14.8929     0.0000     5.7407 </r>
       <r>    14.9564    -0.0014     5.7406 </r>
       <r>    15.0199    -0.0591     5.7369 </r>
       <r>    15.0835     0.8844     5.7931 </r>
       <r>    15.1470     0.9876     5.8558 </r>
       <r>    15.2105    -0.0614     5.8519 </r>
       <r>    15.2740    -0.0607     5.8480 </r>
       <r>    15.3375     0.8667     5.9031 </r>
       <r>    15.4010     1.0049     5.9669 </r>
       <r>    15.4645    -0.0600     5.9631 </r>
       <r>    15.5280    -0.0021     5.9630 </r>
       <r>    15.5915    -0.0100     5.9623 </r>
       <r>    15.6550     0.0984     5.9686 </r>
       <r>    15.7185     0.4902     5.9997 </r>
       <r>    15.7821     0.0082     6.0002 </r>
       <r>    15.8456    -0.0036     6.0000 </r>
       <r>    15.9091     0.0000     6.0000 </r>
       <r>    15.9726     0.0000     6.0000 </r>
       <r>    16.0361     0.0000     6.0000 </r>
       <r>    16.0996     0.0000     6.0000 </r>
       <r>    16.1631     0.0000     6.0000 </r>
       <r>    16.2266     0.0000     6.0000 </r>
       <r>    16.2901     0.0000     6.0000 </r>
       <r>    16.3536     0.0000     6.0000 </r>
       <r>    16.4171     0.0000     6.0000 </r>
       <r>    16.4807     0.0000     6.0000 </r>
       <r>    16.5442     0.0000     6.0000 </r>
      </set>
     </set>
    </array>
   </total>
   <partial>
    <array>
     <dimension dim="1">gridpoints</dimension>
     <dimension dim="2">spin</dimension>
     <dimension dim="3">ion</dimension>
     <field>energy</field>
     <field>  s</field>
     <field> py</field>
     <field> pz</field>
     <field> px</field>
     <field>dxy</field>
     <field>dyz</field>
     <field>dz2</field>
     <field>dxz</field>
     <field>dx2</field>
     <set>
      <set comment="ion 1">
       <set comment="spin 1">
        <r>    -2.5086     0.0000     0.0000     0.0000     0.0000     0.0000     0.0000     0.0000     0.0000     0.0000 </r>
        <r>    -2.4451     0.0000     0.0000     0.0000     0.0000     0.0000     0.0000     0.0000     0.0000     0.0000 </r>
        <r>    -2.3816     0.0000     0.0000     0.0000     0.0000     0.0000     0.0000     0.0000     0.0000     0.0000 </r>
        <r>    -2.3180     0.0000     0.0000     0.0000     0.0000     0.0000     0.0000     0.0000     0.0000     0.0000 </r>
        <r>    -2.2545     0.0000     0.0000     0.0000     0.0000     0.0000     0.0000     0.0000     0.0000     0.0000 </r>
        <r>    -2.1910     0.0000     0.0000     0.0000     0.0000     0.0000     0.0000     0.0000     0.0000     0.0000 </r>
        <r>    -2.1275     0.0000     0.0000     0.0000     0.0000     0.0000     0.0000     0.0000     0.0000     0.0000 </r>
        <r>    -2.0640     0.0000     0.0000     0.0000     0.0000     0.0000     0.0000     0.0000     0.0000     0.0000 </r>
        <r>    -2.0005     0.0000     0.0000     0.0000     0.0000     0.0000     0.0000     0.0000     0.0000     0.0000 </r>
        <r>    -1.9370     0.0000     0.0000     0.0000     0.0000     0.0000     0.0000     0.0000     0.0000     0.0000 </r>
        <r>    -1.8735     0.0000     0.0000     0.0000     0.0000     0.0000     0.0000     0.0000     0.0000     0.0000 </r>
        <r>    -1.8100     0.0000     0.0000     0.0000     0.0000     0.0000     0.0000     0.0000     0.0000     0.0000 </r>
        <r>    -1.7465    -0.0022     0.0000    -0.0001     0.0000     0.0000     0.0000     0.0000     0.0000     0.0000 </r>
        <r>    -1.6830     0.0050     0.0000     0.0001     0.0001     0.0000     0.0000     0.0000     0.0000     0.0000 </r>
        <r>    -1.6194     0.3005     0.0028     0.0084     0.0056     0.0001     0.0002     0.0000     0.0003     0.0000 </r>
        <r>    -1.5559     0.0603     0.0006     0.0017     0.0011     0.0000     0.0000     0.0000     0.0001     0.0000 </r>
        <r>    -1.4924    -0.0061    -0.0001    -0.0002    -0.0001     0.0000     0.0000     0.0000     0.0000     0.0000 </r>
        <r>    -1.4289     0.0000     0.0000     0.0000     0.0000     0.0000     0.0000     0.0000     0.0000     0.0000 </r>
        <r>    -1.3654     0.0000     0.0000     0.0000     0.0000     0.0000     0.0000     0.0000     0.0000     0.0000 </r>
        <r>    -1.3019     0.0000     0.0000     0.0000     0.0000     0.0000     0.0000     0.0000     0.0000     0.0000 </r>
        <r>    -1.2384     0.0000     0.0000     0.0000     0.0000     0.0000     0.0000     0.0000     0.0000     0.0000 </r>
        <r>    -1.1749     0.0000     0.0000     0.0000     0.0000     0.0000     0.0000     0.0000     0.0000     0.0000 </r>
        <r>    -1.1114     0.0000     0.0000     0.0000     0.0000     0.0000     0.0000     0.0000     0.0000     0.0000 </r>
        <r>    -1.0479     0.0000     0.0000     0.0000     0.0000     0.0000     0.0000     0.0000     0.0000     0.0000 </r>
        <r>    -0.9844     0.0000     0.0000     0.0000     0.0000     0.0000     0.0000     0.0000     0.0000     0.0000 </r>
        <r>    -0.9208     0.0000     0.0000     0.0000     0.0000     0.0000     0.0000     0.0000     0.0000     0.0000 </r>
        <r>    -0.8573     0.0000     0.0000     0.0000     0.0000     0.0000     0.0000     0.0000     0.0000     0.0000 </r>
        <r>    -0.7938     0.0000     0.0000     0.0000     0.0000     0.0000     0.0000     0.0000     0.0000     0.0000 </r>
        <r>    -0.7303    -0.0001     0.0000     0.0000     0.0000     0.0000     0.0000     0.0000     0.0000     0.0000 </r>
        <r>    -0.6668    -0.0093    -0.0003    -0.0010    -0.0002     0.0000    -0.0001    -0.0001    -0.0001     0.0000 </r>
        <r>    -0.6033     0.1025     0.0035     0.0106     0.0018     0.0003     0.0016     0.0009     0.0008     0.0000 </r>
        <r>    -0.5398     0.3465     0.0119     0.0358     0.0060     0.0009     0.0054     0.0030     0.0027     0.0001 </r>
        <r>    -0.4763    -0.0037    -0.0001    -0.0004    -0.0001     0.0000    -0.0001     0.0000     0.0000     0.0000 </r>
        <r>    -0.4128    -0.0019    -0.0001    -0.0002     0.0000     0.0000     0.0000     0.0000     0.0000     0.0000 </r>
        <r>    -0.3493     0.0000     0.0000     0.0000     0.0000     0.0000     0.0000     0.0000     0.0000     0.0000 </r>
        <r>    -0.2858     0.0000     0.0000     0.0000     0.0000     0.0000     0.0000     0.0000     0.0000     0.0000 </r>
        <r>    -0.2222     0.0000     0.0000     0.0000     0.0000     0.0000     0.0000     0.0000     0.0000     0.0000 </r>
        <r>    -0.1587     0.0000     0.0000     0.0000     0.0000     0.0000     0.0000     0.0000     0.0000     0.0000 </r>
        <r>    -0.0952     0.0000     0.0000     0.0000     0.0000     0.0000     0.0000     0.0000     0.0000     0.0000 </r>
        <r>    -0.0317     0.0000     0.0000     0.0000     0.0000     0.0000     0.0000     0.0000     0.0000     0.0000 </r>
        <r>     0.0318     0.0000     0.0000     0.0000     0.0000     0.0000     0.0000     0.0000     0.0000     0.0000 </r>
        <r>     0.0953     0.0000     0.0000     0.0000     0.0000     0.0000     0.0000     0.0000     0.0000     0.0000 </r>
        <r>     0.1588    -0.0007     0.0000     0.0000    -0.0001    -0.0001     0.0000     0.0000     0.0000     0.0000 </r>
        <r>     0.2223    -0.0368    -0.0026    -0.0013    -0.0052    -0.0032    -0.0002    -0.0011    -0.0004    -0.0004 </r>
        <r>     0.2858     0.5135     0.0360     0.0181     0.0720     0.0443     0.0027     0.0155     0.0055     0.0055 </r>
        <r>     0.3493     0.7031     0.0493     0.0248     0.0986     0.0606     0.0038     0.0212     0.0075     0.0076 </r>
        <r>     0.4128    -0.0382    -0.0027    -0.0013    -0.0054    -0.0033    -0.0002    -0.0012    -0.0004    -0.0004 </r>
        <r>     0.4764    -0.0017    -0.0001    -0.0001    -0.0002    -0.0001     0.0000    -0.0001     0.0000     0.0000 </r>
        <r>     0.5399     0.0000     0.0000     0.0000     0.0000     0.0000     0.0000     0.0000     0.0000     0.0000 </r>
        <r>     0.6034     0.0000     0.0000     0.0000     0.0000     0.0000     0.0000     0.0000     0.0000     0.0000 </r>
        <r>     0.6669     0.0000     0.0000     0.0000     0.0000     0.0000     0.0000     0.0000     0.0000     0.0000 </r>
        <r>     0.7304     0.0000     0.0000     0.0000     0.0000     0.0000     0.0000     0.0000     0.0000     0.0000 </r>
        <r>     0.7939     0.0000     0.0000     0.0000     0.0000     0.0000     0.0000     0.0000     0.0000     0.0000 </r>
        <r>     0.8574     0.0000     0.0000     0.0000     0.0000     0.0000     0.0000     0.0000     0.0000     0.0000 </r>
        <r>     0.9209     0.0000     0.0000     0.0000     0.0000     0.0000     0.0000     0.0000     0.0000     0.0000 </r>
        <r>     0.9844     0.0000     0.0000     0.0000     0.0000     0.0000     0.0000     0.0000     0.0000     0.0000 </r>
        <r>     1.0479     0.0000     0.0000     0.0000     0.0000     0.0000     0.0000     0.0000     0.0000     0.0000 </r>
        <r>     1.1114     0.0000     0.0000     0.0000     0.0000     0.0000     0.0000     0.0000     0.0000     0.0000 </r>
        <r>     1.1750     0.0000     0.0000     0.0000     0.0000     0.0000     0.0000     0.0000     0.0000     0.0000 </r>
        <r>     1.2385     0.0000     0.0000     0.0000     0.0000     0.0000     0.0000     0.0000     0.0000     0.0000 </r>
        <r>     1.3020     0.0000     0.0000     0.0000     0.0000     0.0000     0.0000     0.0000     0.0000     0.0000 </r>
        <r>     1.3655     0.0000     0.0000     0.0000     0.0000     0.0000     0.0000     0.0000     0.0000     0.0000 </r>
        <r>     1.4290    -0.0033    -0.0002    -0.0006    -0.0002    -0.0009    -0.0002    -0.0001    -0.0010    -0.0004 </r>
        <r>     1.4925    -0.0332    -0.0016    -0.0042    -0.0019    -0.0275    -0.0012    -0.0052    -0.0049    -0.0048 </r>
        <r>     1.5560     0.9083     0.0524     0.1498     0.0516     0.4425     0.0528     0.0750     0.2130     0.1168 </r>
        <r>     1.6195     0.5647     0.0260     0.0689     0.0327     0.4900     0.0197     0.0937     0.0784     0.0836 </r>
        <r>     1.6830    -0.0391    -0.0020    -0.0053    -0.0023    -0.0288    -0.0017    -0.0054    -0.0067    -0.0055 </r>
        <r>     1.7465    -0.0009     0.0000    -0.0001    -0.0001    -0.0010     0.0000    -0.0002    -0.0001    -0.0001 </r>
        <r>     1.8100    -0.0013    -0.0001    -0.0003    -0.0002    -0.0003    -0.0001     0.0000    -0.0008    -0.0003 </r>
        <r>     1.8736    -0.0083    -0.0004    -0.0011    -0.0007    -0.0033    -0.0010    -0.0004    -0.0099    -0.0044 </r>
        <r>     1.9371     0.3052     0.0216     0.0647     0.0431     0.0784     0.0345     0.0108     0.2352     0.0941 </r>
        <r>     2.0006     0.1341     0.0077     0.0230     0.0153     0.0439     0.0159     0.0053     0.1317     0.0561 </r>
        <r>     2.0641    -0.0119    -0.0009    -0.0021    -0.0015    -0.0037    -0.0017    -0.0005    -0.0101    -0.0043 </r>
        <r>     2.1276    -0.0235    -0.0053    -0.0028    -0.0034    -0.0086    -0.0107    -0.0029    -0.0008    -0.0004 </r>
        <r>     2.1911     0.4242     0.0960     0.0504     0.0610     0.1350     0.1917     0.0444     0.0057     0.0029 </r>
        <r>     2.2546     0.3165     0.0715     0.0372     0.0453     0.2647     0.1680     0.0946     0.0542     0.0226 </r>
        <r>     2.3181    -0.0216    -0.0035     0.0021     0.0000     0.0488     0.0292     0.0186     0.0784     0.0068 </r>
        <r>     2.3816     0.0013     0.0030     0.0091     0.0061     0.0397     0.0640     0.0149     0.1284     0.0050 </r>
        <r>     2.4451    -0.0001    -0.0001    -0.0004    -0.0003    -0.0018    -0.0027    -0.0007    -0.0053    -0.0002 </r>
        <r>     2.5086     0.0000     0.0000     0.0000     0.0000    -0.0001    -0.0002    -0.0001    -0.0004     0.0000 </r>
        <r>     2.5722     0.0000     0.0000     0.0000     0.0000     0.0000     0.0000     0.0000     0.0000     0.0000 </r>
        <r>     2.6357    -0.0001     0.0000     0.0000     0.0000    -0.0002     0.0000     0.0000     0.0000     0.0000 </r>
        <r>     2.6992    -0.0079    -0.0009    -0.0021    -0.0005    -0.0225    -0.0017    -0.0030    -0.0008    -0.0028 </r>
        <r>     2.7627     0.0880     0.0098     0.0200     0.0040     0.2384     0.0191     0.0349     0.0087     0.0298 </r>
        <r>     2.8262     0.2955     0.0336     0.1093     0.0271     0.9756     0.0569     0.0946     0.0382     0.1219 </r>
        <r>     2.8897     0.1352     0.0159     0.1156     0.0332     0.7168     0.0136     0.0075     0.0292     0.0895 </r>
        <r>     2.9532    -0.0051     0.0005    -0.0032     0.0002    -0.0149     0.0035     0.0012     0.0072    -0.0016 </r>
        <r>     3.0167    -0.0010     0.0355     0.0145     0.0405     0.2992     0.1327     0.0615     0.2638     0.0449 </r>
        <r>     3.0802    -0.0111     0.0058    -0.0037     0.0067     0.0504     0.0000     0.0020     0.0329     0.0075 </r>
        <r>     3.1437     0.1926     0.0024     0.1087     0.0008    -0.0054     0.3841     0.1429     0.1885    -0.0008 </r>
        <r>     3.2072     0.1554     0.0024     0.0879     0.0012     0.0000     0.3118     0.1162     0.1559     0.0000 </r>
        <r>     3.2708    -0.0108    -0.0002    -0.0061    -0.0001     0.0000    -0.0216    -0.0081    -0.0108     0.0000 </r>
        <r>     3.3343    -0.0002     0.0000    -0.0001     0.0000     0.0000    -0.0005    -0.0002    -0.0002     0.0000 </r>
        <r>     3.3978     0.0000     0.0000     0.0000     0.0000     0.0000     0.0000     0.0000     0.0000     0.0000 </r>
        <r>     3.4613     0.0000     0.0000     0.0000     0.0000     0.0000     0.0000     0.0000     0.0000     0.0000 </r>
        <r>     3.5248     0.0000     0.0000     0.0000     0.0000     0.0000     0.0000     0.0000     0.0000     0.0000 </r>
        <r>     3.5883    -0.0005    -0.0012    -0.0001    -0.0024    -0.0024    -0.0046    -0.0005    -0.0092    -0.0003 </r>
        <r>     3.6518     0.0042     0.0104     0.0006     0.0208     0.0204     0.0395     0.0039     0.0789     0.0026 </r>
        <r>     3.7153     0.0314     0.0771     0.0042     0.1541     0.1512     0.2924     0.0292     0.5848     0.0189 </r>
        <r>     3.7788     0.0015     0.0038     0.0002     0.0075     0.0074     0.0143     0.0014     0.0285     0.0009 </r>
        <r>     3.8423    -0.0003    -0.0007     0.0000    -0.0015    -0.0014    -0.0028    -0.0003    -0.0056    -0.0002 </r>
        <r>     3.9058     0.0000     0.0000     0.0000     0.0000     0.0000     0.0000     0.0000     0.0000     0.0000 </r>
        <r>     3.9694     0.0000    -0.0002    -0.0001     0.0000    -0.0020    -0.0013    -0.0029    -0.0007    -0.0010 </r>
        <r>     4.0329     0.0000     0.0014     0.0005     0.0000     0.0113     0.0075     0.0169     0.0038     0.0056 </r>
        <r>     4.0964     0.0000     0.0234     0.0078     0.0000     0.1884     0.1256     0.2826     0.0628     0.0942 </r>
        <r>     4.1599     0.0000     0.0026     0.0009    -0.0004     0.0222     0.0147     0.0335     0.0072     0.0097 </r>
        <r>     4.2234     0.0000    -0.0048    -0.0002    -0.0091    -0.0074    -0.0054    -0.0041    -0.0071    -0.0319 </r>
        <r>     4.2869     0.0000     0.0840    -0.0016     0.1649     0.0506     0.0469    -0.0002     0.1149     0.5508 </r>
        <r>     4.3504     0.0000     0.0671     0.0280     0.1948     0.4251     0.2407    -0.0099     0.0948     0.6745 </r>
        <r>     4.4139     0.0000     0.0190     0.0334     0.0571     0.3005     0.1991     0.1115     0.0238     0.2251 </r>
        <r>     4.4774     0.0000     0.0727     0.0452     0.0291     0.2270     0.3268     0.7342     0.0911     0.2822 </r>
        <r>     4.5409    -0.0011     0.0009    -0.0014    -0.0009     0.0061     0.1093     0.0286     0.0509     0.0092 </r>
        <r>     4.6044     0.0148     0.0377     0.0187     0.0189     0.0508     1.3501     0.0436     0.6758     0.0050 </r>
        <r>     4.6680     0.0258     0.0452     0.0329     0.0226     0.0881     0.6220     0.0860     0.3100     0.0111 </r>
        <r>     4.7315    -0.0012    -0.0022    -0.0015    -0.0011     0.0379    -0.0292     0.0118    -0.0041     0.0047 </r>
        <r>     4.7950    -0.0004    -0.0014    -0.0005    -0.0007     0.1476     0.0231     0.0537     0.0489     0.0184 </r>
        <r>     4.8585    -0.0013    -0.0072    -0.0017    -0.0060    -0.0072    -0.0021    -0.0093    -0.0042    -0.0018 </r>
        <r>     4.9220     0.0613     0.2762     0.0824     0.1441     0.2860     0.0090     0.4225     0.0134     0.0339 </r>
        <r>     4.9855     0.0270     0.2796     0.0325     0.4396     0.1197     0.2231     0.1634     0.4616     0.1586 </r>
        <r>     5.0490     0.0674     0.0366     0.0438     0.3806     0.0664     0.0381     0.1809     0.2899     0.5097 </r>
        <r>     5.1125     0.0069    -0.0017     0.0046     0.0259     0.0069    -0.0036     0.0191     0.0140     0.0470 </r>
        <r>     5.1760    -0.0009    -0.0002    -0.0006    -0.0043    -0.0010    -0.0001    -0.0026    -0.0029    -0.0065 </r>
        <r>     5.2395     0.0000     0.0000     0.0000     0.0000     0.0000     0.0000     0.0000     0.0000     0.0000 </r>
        <r>     5.3030     0.0000    -0.0001     0.0000    -0.0001     0.0000    -0.0087     0.0000    -0.0043    -0.0001 </r>
        <r>     5.3666     0.0000     0.0004     0.0000     0.0001    -0.0008     0.0346    -0.0040     0.0171    -0.0047 </r>
        <r>     5.4301    -0.0002     0.0120     0.0000     0.0067     0.0069     1.0053     0.0255     0.5006     0.0504 </r>
        <r>     5.4936     0.0005     0.0245     0.0063     0.0126     0.0364     0.3118     0.3407     0.1938     0.4273 </r>
        <r>     5.5571     0.0242     0.2008     0.0302     0.1263     0.4936     0.4387     0.3870     0.5026     0.1695 </r>
        <r>     5.6206     0.0135     0.0501     0.0042     0.0783     0.5517     0.0482     0.1557     0.0673     0.0697 </r>
        <r>     5.6841    -0.0009    -0.0042    -0.0005    -0.0051    -0.0332    -0.0060    -0.0113    -0.0075    -0.0050 </r>
        <r>     5.7476     0.0000    -0.0001     0.0000    -0.0002    -0.0011     0.0000    -0.0003    -0.0001    -0.0001 </r>
        <r>     5.8111     0.0000     0.0000     0.0000    -0.0001     0.0000     0.0000     0.0000     0.0000     0.0000 </r>
        <r>     5.8746    -0.0018    -0.0062     0.0000    -0.0124    -0.0049    -0.0023     0.0000    -0.0046    -0.0006 </r>
        <r>     5.9381     0.0195     0.0684     0.0000     0.1367     0.0536     0.0253     0.0000     0.0506     0.0067 </r>
        <r>     6.0016     0.0667     0.2338     0.0000     0.4677     0.1832     0.0866     0.0000     0.1732     0.0229 </r>
        <r>     6.0652    -0.0007    -0.0023     0.0000    -0.0046    -0.0018    -0.0008     0.0000    -0.0017    -0.0002 </r>
        <r>     6.1287    -0.0004    -0.0013     0.0000    -0.0025    -0.0010    -0.0005     0.0000    -0.0009    -0.0001 </r>
        <r>     6.1922     0.0000     0.0000     0.0000     0.0000     0.0000     0.0000    -0.0001     0.0000     0.0000 </r>
        <r>     6.2557     0.0000    -0.0001    -0.0001    -0.0001    -0.0028    -0.0034    -0.0077    -0.0017    -0.0048 </r>
        <r>     6.3192    -0.0003     0.0014     0.0007     0.0011     0.0323     0.0382     0.0871     0.0191     0.0551 </r>
        <r>     6.3827    -0.0011     0.0040     0.0020     0.0032     0.0965     0.1138     0.2602     0.0569     0.1647 </r>
        <r>     6.4462     0.0645     0.0092     0.0277    -0.0041     0.0221     0.1408     0.0746     0.0704    -0.0013 </r>
        <r>     6.5097     0.0212     0.0164     0.0492     0.1056     0.0086     0.0536     0.0412     0.0268     0.0150 </r>
        <r>     6.5732    -0.0019     0.0404     0.1212     0.3254     0.0030     0.0180     0.0478     0.0090     0.0461 </r>
        <r>     6.6367     0.0000    -0.0006    -0.0019    -0.0050    -0.0009    -0.0056    -0.0008    -0.0028    -0.0076 </r>
        <r>     6.7002     0.0000    -0.0002    -0.0006    -0.0017     0.0135     0.0808    -0.0003     0.0404     0.1077 </r>
        <r>     6.7638     0.0000    -0.0016     0.0000    -0.0008     0.0136     0.0691     0.0000     0.0345     0.1089 </r>
        <r>     6.8273     0.0000     0.0123    -0.0003     0.0060    -0.0018     0.0988    -0.0033     0.0494    -0.0070 </r>
        <r>     6.8908     0.0000     0.1089     0.0023     0.0556     0.0112     0.8752     0.0250     0.4376     0.0316 </r>
        <r>     6.9543     0.0000     0.0428     0.0221     0.0325     0.0907     0.1583     0.2446     0.0791     0.1549 </r>
        <r>     7.0178     0.0000     0.0016     0.0016     0.0016     0.0066    -0.0009     0.0178    -0.0004     0.0110 </r>
        <r>     7.0813     0.0000    -0.0004    -0.0002    -0.0003    -0.0010    -0.0013    -0.0028    -0.0006    -0.0017 </r>
        <r>     7.1448     0.0000     0.0000     0.0000     0.0000     0.0000     0.0000     0.0000     0.0000     0.0000 </r>
        <r>     7.2083     0.0000     0.0000     0.0000     0.0000     0.0000     0.0000     0.0000     0.0000     0.0000 </r>
        <r>     7.2718     0.0000     0.0000     0.0000     0.0000     0.0000     0.0000     0.0000     0.0000     0.0000 </r>
        <r>     7.3353     0.0000     0.0000     0.0000     0.0000     0.0000     0.0000     0.0000     0.0000     0.0000 </r>
        <r>     7.3988     0.0000     0.0000     0.0000     0.0000     0.0000     0.0000    -0.0002     0.0000     0.0000 </r>
        <r>     7.4624    -0.0042    -0.0004    -0.0019    -0.0007     0.0000    -0.0003    -0.0244    -0.0006     0.0000 </r>
        <r>     7.5259     0.0449     0.0040     0.0202     0.0080     0.0000     0.0031     0.2612     0.0062     0.0000 </r>
        <r>     7.5894     0.1695     0.0151     0.0762     0.0303     0.0001     0.0117     0.9851     0.0234     0.0000 </r>
        <r>     7.6529    -0.0006    -0.0001    -0.0003    -0.0001     0.0000     0.0000    -0.0033    -0.0001     0.0000 </r>
        <r>     7.7164    -0.0010    -0.0001    -0.0004    -0.0002     0.0000    -0.0001    -0.0058    -0.0001     0.0000 </r>
        <r>     7.7799     0.0000     0.0000     0.0000     0.0000     0.0000     0.0000     0.0000     0.0000     0.0000 </r>
[...]
        <r>  0.0000  0.0089  0.0000  0.0045  0.0012  0.6677  0.0000  0.3338  0.0096 </r>
       </set>
       <set comment="band 3">
        <r>  0.0124  0.0368  0.0020  0.0736  0.5529  0.0149  0.1409  0.0297  0.0691 </r>
       </set>
       <set comment="band 4">
        <r>  0.0001  0.0078  0.0000  0.0157  0.0610  0.0485  0.6786  0.0970  0.0076 </r>
       </set>
       <set comment="band 5">
        <r>  0.0000  0.0305  0.0000  0.0153  0.1025  0.0112  0.0000  0.0056  0.8201 </r>
       </set>
       <set comment="band 6">
        <r>  0.0180  0.0005  0.0032  0.0011  0.0971  0.2423  0.1057  0.4847  0.0121 </r>
       </set>
      </set>
      <set comment="kpoint 7">
       <set comment="band 1">
        <r>  0.3188  0.0095  0.0197  0.0190  0.4471  0.0007  0.0902  0.0015  0.0559 </r>
       </set>
       <set comment="band 2">
        <r>  0.0000  0.0083  0.0000  0.0041  0.0001  0.6793  0.0000  0.3396  0.0006 </r>
       </set>
       <set comment="band 3">
        <r>  0.0477  0.1671  0.0000  0.3342  0.1310  0.0619  0.0000  0.1238  0.0164 </r>
       </set>
       <set comment="band 4">
        <r>  0.0335  0.0240  0.0004  0.0480  0.1131  0.0000  0.7109  0.0000  0.0141 </r>
       </set>
       <set comment="band 5">
        <r>  0.0406  0.0416  0.0019  0.0831  0.0380  0.2578  0.0000  0.5157  0.0047 </r>
       </set>
       <set comment="band 6">
        <r>  0.0000  0.0253  0.0000  0.0127  0.1035  0.0016  0.0000  0.0008  0.8282 </r>
       </set>
      </set>
      <set comment="kpoint 8">
       <set comment="band 1">
        <r>  0.3964  0.0897  0.0471  0.0570  0.1235  0.1787  0.0405  0.0045  0.0023 </r>
       </set>
       <set comment="band 2">
        <r>  0.0000  0.0089  0.0266  0.0709  0.3459  0.1881  0.0021  0.0145  0.2597 </r>
       </set>
       <set comment="band 3">
        <r>  0.0088  0.1104  0.0185  0.0403  0.0033  0.2845  0.1549  0.3147  0.0480 </r>
       </set>
       <set comment="band 4">
        <r>  0.0000  0.0038  0.0115  0.0307  0.0906  0.0157  0.4978  0.2067  0.0786 </r>
       </set>
       <set comment="band 5">
        <r>  0.0867  0.0009  0.0056  0.0012  0.0079  0.2705  0.1376  0.2284  0.2368 </r>
       </set>
       <set comment="band 6">
        <r>  0.0354  0.1409  0.0027  0.0270  0.3034  0.0038  0.0314  0.1728  0.2507 </r>
       </set>
      </set>
      <set comment="kpoint 9">
       <set comment="band 1">
        <r>  0.1803  0.0202  0.0467  0.0101  0.5120  0.0382  0.0685  0.0191  0.0640 </r>
       </set>
       <set comment="band 2">
        <r>  0.0218  0.0377  0.0279  0.0189  0.0780  0.4743  0.0741  0.2372  0.0097 </r>
       </set>
       <set comment="band 3">
        <r>  0.0000  0.1228  0.0000  0.2456  0.0091  0.1485  0.0000  0.2970  0.0727 </r>
       </set>
       <set comment="band 4">
        <r>  0.0673  0.0113  0.0150  0.0056  0.0822  0.1007  0.5908  0.0503  0.0103 </r>
       </set>
       <set comment="band 5">
        <r>  0.0000  0.0565  0.0000  0.1130  0.0460  0.1310  0.0000  0.2621  0.3681 </r>
       </set>
       <set comment="band 6">
        <r>  0.0000  0.1113  0.0000  0.2223  0.0573  0.0492  0.0000  0.0985  0.4590 </r>
       </set>
      </set>
      <set comment="kpoint 10">
       <set comment="band 1">
        <r>  0.0000  0.0651  0.1953  0.0326  0.0511  0.3068  0.1726  0.1534  0.0064 </r>
       </set>
       <set comment="band 2">
        <r>  0.0000  0.2141  0.0780  0.0009  0.1682  0.1225  0.2757  0.0613  0.0627 </r>
       </set>
       <set comment="band 3">
        <r>  0.0000  0.0138  0.0197  0.2595  0.0108  0.0309  0.0695  0.0154  0.5638 </r>
       </set>
       <set comment="band 4">
        <r>  0.0000  0.0000  0.0000  0.0000  0.6593  0.0018  0.2473  0.0036  0.0824 </r>
       </set>
       <set comment="band 5">
        <r>  0.0000  0.0000  0.0000  0.0000  0.0036  0.3297  0.0014  0.6593  0.0005 </r>
       </set>
       <set comment="band 6">
        <r>  0.9535  0.0000  0.0000  0.0000  0.0000  0.0000  0.0000  0.0000  0.0000 </r>
       </set>
      </set>
      <set comment="kpoint 11">
       <set comment="band 1">
        <r>  0.4486  0.0481  0.1442  0.0961  0.0290  0.0436  0.0109  0.0871  0.0036 </r>
       </set>
       <set comment="band 2">
        <r>  0.0000  0.0000  0.0000  0.0000  0.4240  0.0707  0.1590  0.1413  0.0530 </r>
       </set>
       <set comment="band 3">
        <r>  0.0000  0.0097  0.0290  0.0774  0.0238  0.1430  0.3216  0.0715  0.2978 </r>
       </set>
       <set comment="band 4">
        <r>  0.0000  0.0871  0.0290  0.0000  0.2144  0.1430  0.3216  0.0715  0.1072 </r>
       </set>
       <set comment="band 5">
        <r>  0.0000  0.0000  0.0000  0.0000  0.0536  0.3219  0.0000  0.1609  0.4292 </r>
       </set>
       <set comment="band 6">
        <r>  0.1752  0.0047  0.0140  0.0093  0.1299  0.1949  0.0487  0.3898  0.0162 </r>
       </set>
      </set>
      <set comment="kpoint 12">
       <set comment="band 1">
        <r>  0.1084  0.0130  0.0899  0.0259  0.5644  0.0123  0.0080  0.0245  0.0705 </r>
       </set>
       <set comment="band 2">
        <r>  0.0208  0.0510  0.0028  0.1020  0.1001  0.1936  0.0194  0.3872  0.0125 </r>
       </set>
       <set comment="band 3">
        <r>  0.0000  0.0694  0.0000  0.0347  0.0013  0.5702  0.0000  0.2851  0.0106 </r>
       </set>
       <set comment="band 4">
        <r>  0.1192  0.0106  0.0536  0.0213  0.0000  0.0082  0.6931  0.0164  0.0000 </r>
       </set>
       <set comment="band 5">
        <r>  0.0000  0.0224  0.0000  0.0112  0.0990  0.0214  0.0000  0.0107  0.7921 </r>
       </set>
       <set comment="band 6">
        <r>  0.1941  0.1230  0.0132  0.2460  0.0811  0.0869  0.0366  0.1737  0.0101 </r>
       </set>
      </set>
      <set comment="kpoint 13">
       <set comment="band 1">
        <r>  0.0000  0.0306  0.0000  0.0613  0.0019  0.2646  0.0000  0.5292  0.0153 </r>
       </set>
       <set comment="band 2">
        <r>  0.0000  0.0409  0.0306  0.0204  0.6053  0.0038  0.1243  0.0019  0.0757 </r>
       </set>
       <set comment="band 3">
        <r>  0.1413  0.0228  0.0683  0.0114  0.0524  0.3143  0.1768  0.1571  0.0065 </r>
       </set>
       <set comment="band 4">
        <r>  0.0000  0.0938  0.0704  0.0469  0.0112  0.1482  0.4973  0.0741  0.0014 </r>
       </set>
       <set comment="band 5">
        <r>  0.0000  0.0704  0.0000  0.1407  0.0741  0.0217  0.0000  0.0435  0.5929 </r>
       </set>
       <set comment="band 6">
        <r>  0.4051  0.0346  0.1037  0.0173  0.0225  0.1349  0.0759  0.0675  0.0028 </r>
       </set>
      </set>
      <set comment="kpoint 14">
       <set comment="band 1">
        <r>  0.0000  0.0000  0.0000  0.0000  0.4560  0.0760  0.1710  0.1520  0.0570 </r>
       </set>
       <set comment="band 2">
        <r>  0.0057  0.0100  0.0301  0.0201  0.1417  0.2125  0.0531  0.4251  0.0177 </r>
       </set>
       <set comment="band 3">
        <r>  0.0000  0.0191  0.0572  0.1525  0.0196  0.1175  0.2644  0.0587  0.2448 </r>
       </set>
       <set comment="band 4">
        <r>  0.0000  0.1716  0.0572  0.0000  0.1762  0.1175  0.2644  0.0587  0.0881 </r>
       </set>
       <set comment="band 5">
        <r>  0.0000  0.0000  0.0000  0.0000  0.0530  0.3182  0.0000  0.1591  0.4243 </r>
       </set>
       <set comment="band 6">
        <r>  0.2528  0.0960  0.2879  0.1920  0.0105  0.0157  0.0039  0.0314  0.0013 </r>
       </set>
      </set>
     </set>
     <set comment="spin2">
      <set comment="kpoint 1">
       <set comment="band 1">
        <r>  0.7433  0.0257  0.0770  0.0128  0.0019  0.0115  0.0065  0.0058  0.0002 </r>
       </set>
       <set comment="band 2">
        <r>  0.0000  0.0162  0.0061  0.0001  0.0870  0.2216  0.5265  0.0425  0.1115 </r>
       </set>
       <set comment="band 3">
        <r>  0.0000  0.0013  0.0014  0.0198  0.0467  0.0047  0.1183  0.0999  0.7196 </r>
       </set>
       <set comment="band 4">
        <r>  0.0023  0.0154  0.0462  0.0077  0.0690  0.4139  0.2328  0.2069  0.0086 </r>
       </set>
       <set comment="band 5">
        <r>  0.0000  0.0002  0.0001  0.0000  0.6507  0.0146  0.0487  0.1862  0.0199 </r>
       </set>
       <set comment="band 6">
        <r>  0.0000  0.0000  0.0000  0.0002  0.0962  0.2825  0.0132  0.3794  0.1489 </r>
       </set>
      </set>
      <set comment="kpoint 2">
       <set comment="band 1">
        <r>  0.4779  0.0332  0.0995  0.0267  0.0527  0.0387  0.0000  0.1582  0.0524 </r>
       </set>
       <set comment="band 2">
        <r>  0.0000  0.0265  0.0088  0.0000  0.1453  0.1988  0.4473  0.0484  0.1491 </r>
       </set>
       <set comment="band 3">
        <r>  0.0456  0.0102  0.0305  0.2139  0.0482  0.0019  0.1275  0.1445  0.3231 </r>
       </set>
       <set comment="band 4">
        <r>  0.0063  0.0000  0.0001  0.0069  0.0704  0.3547  0.0057  0.2112  0.3104 </r>
       </set>
       <set comment="band 5">
        <r>  0.0000  0.0010  0.0003  0.0000  0.5979  0.0380  0.0856  0.1993  0.0285 </r>
       </set>
       <set comment="band 6">
        <r>  0.0019  0.0383  0.1148  0.0164  0.0421  0.2940  0.2628  0.1264  0.0685 </r>
       </set>
      </set>
      <set comment="kpoint 3">
       <set comment="band 1">
        <r>  0.2532  0.0081  0.0242  0.0161  0.1175  0.0328  0.0121  0.3526  0.1594 </r>
       </set>
       <set comment="band 2">
        <r>  0.0000  0.0308  0.0103  0.0000  0.2484  0.1656  0.3726  0.0828  0.1242 </r>
       </set>
       <set comment="band 3">
        <r>  0.0000  0.0591  0.1772  0.4724  0.0054  0.0324  0.0729  0.0162  0.0675 </r>
       </set>
       <set comment="band 4">
        <r>  0.0657  0.0000  0.0001  0.0001  0.0627  0.4577  0.0462  0.1881  0.1671 </r>
       </set>
       <set comment="band 5">
        <r>  0.0000  0.0000  0.0000  0.0000  0.4932  0.0822  0.1849  0.1644  0.0616 </r>
       </set>
       <set comment="band 6">
        <r>  0.0000  0.0109  0.0328  0.0874  0.0230  0.1378  0.3100  0.0689  0.2870 </r>
       </set>
      </set>
      <set comment="kpoint 4">
       <set comment="band 1">
        <r>  0.8164  0.0076  0.0229  0.0153  0.0003  0.0005  0.0001  0.0009  0.0000 </r>
       </set>
       <set comment="band 2">
        <r>  0.0000  0.0012  0.0037  0.0098  0.0284  0.1704  0.3833  0.0852  0.3549 </r>
       </set>
       <set comment="band 3">
        <r>  0.0000  0.0111  0.0037  0.0000  0.2556  0.1704  0.3833  0.0852  0.1278 </r>
       </set>
       <set comment="band 4">
        <r>  0.0000  0.0000  0.0000  0.0000  0.0580  0.3478  0.0000  0.1739  0.4637 </r>
       </set>
       <set comment="band 5">
        <r>  0.0000  0.0000  0.0000  0.0000  0.4376  0.0729  0.1641  0.1459  0.0547 </r>
       </set>
       <set comment="band 6">
        <r>  0.0012  0.0003  0.0008  0.0005  0.1557  0.2335  0.0584  0.4670  0.0195 </r>
       </set>
      </set>
      <set comment="kpoint 5">
       <set comment="band 1">
        <r>  0.1854  0.0029  0.1054  0.0015  0.0000  0.3732  0.1391  0.1866  0.0000 </r>
       </set>
       <set comment="band 2">
        <r>  0.0000  0.0767  0.0000  0.1534  0.0642  0.0530  0.0000  0.1059  0.5139 </r>
       </set>
       <set comment="band 3">
        <r>  0.0457  0.1995  0.0612  0.0997  0.2129  0.0011  0.3143  0.0006  0.0266 </r>
       </set>
       <set comment="band 4">
        <r>  0.0000  0.0031  0.0000  0.0063  0.0233  0.2497  0.0000  0.4994  0.1864 </r>
       </set>
       <set comment="band 5">
        <r>  0.0277  0.0019  0.0003  0.0009  0.5225  0.0266  0.3303  0.0133  0.0653 </r>
       </set>
       <set comment="band 6">
        <r>  0.6031  0.0210  0.1089  0.0105  0.0024  0.0993  0.0003  0.0496  0.0003 </r>
       </set>
      </set>
      <set comment="kpoint 6">
       <set comment="band 1">
        <r>  0.6500  0.0457  0.0229  0.0914  0.0562  0.0035  0.0195  0.0070  0.0070 </r>
       </set>
       <set comment="band 2">
        <r>  0.0000  0.0089  0.0000  0.0045  0.0012  0.6676  0.0000  0.3338  0.0096 </r>
       </set>
       <set comment="band 3">
        <r>  0.0124  0.0366  0.0020  0.0732  0.5547  0.0151  0.1383  0.0301  0.0693 </r>
       </set>
       <set comment="band 4">
        <r>  0.0001  0.0080  0.0000  0.0159  0.0595  0.0484  0.6812  0.0968  0.0074 </r>
       </set>
       <set comment="band 5">
        <r>  0.0000  0.0304  0.0000  0.0152  0.1025  0.0112  0.0000  0.0056  0.8203 </r>
       </set>
       <set comment="band 6">
        <r>  0.0181  0.0005  0.0031  0.0011  0.0971  0.2424  0.1059  0.4847  0.0121 </r>
       </set>
      </set>
      <set comment="kpoint 7">
       <set comment="band 1">
        <r>  0.3175  0.0095  0.0196  0.0190  0.4481  0.0007  0.0896  0.0015  0.0560 </r>
       </set>
       <set comment="band 2">
        <r>  0.0000  0.0083  0.0000  0.0041  0.0001  0.6792  0.0000  0.3396  0.0006 </r>
       </set>
       <set comment="band 3">
        <r>  0.0478  0.1665  0.0000  0.3330  0.1310  0.0624  0.0000  0.1248  0.0164 </r>
       </set>
       <set comment="band 4">
        <r>  0.0337  0.0241  0.0004  0.0482  0.1125  0.0000  0.7120  0.0001  0.0141 </r>
       </set>
       <set comment="band 5">
        <r>  0.0407  0.0420  0.0019  0.0841  0.0378  0.2575  0.0000  0.5149  0.0047 </r>
       </set>
       <set comment="band 6">
        <r>  0.0000  0.0251  0.0000  0.0126  0.1036  0.0015  0.0000  0.0008  0.8288 </r>
       </set>
      </set>
      <set comment="kpoint 8">
       <set comment="band 1">
        <r>  0.3949  0.0898  0.0471  0.0570  0.1237  0.1788  0.0403  0.0046  0.0023 </r>
       </set>
       <set comment="band 2">
        <r>  0.0000  0.0088  0.0264  0.0705  0.3470  0.1879  0.0020  0.0148  0.2591 </r>
       </set>
       <set comment="band 3">
        <r>  0.0086  0.1101  0.0184  0.0402  0.0033  0.2844  0.1552  0.3153  0.0479 </r>
       </set>
       <set comment="band 4">
        <r>  0.0000  0.0039  0.0116  0.0309  0.0898  0.0160  0.4982  0.2065  0.0794 </r>
       </set>
       <set comment="band 5">
        <r>  0.0873  0.0007  0.0057  0.0013  0.0084  0.2709  0.1370  0.2303  0.2345 </r>
       </set>
       <set comment="band 6">
        <r>  0.0348  0.1408  0.0026  0.0270  0.3031  0.0035  0.0323  0.1704  0.2536 </r>
       </set>
      </set>
      <set comment="kpoint 9">
       <set comment="band 1">
        <r>  0.1790  0.0203  0.0467  0.0101  0.5140  0.0375  0.0676  0.0188  0.0642 </r>
       </set>
       <set comment="band 2">
        <r>  0.0223  0.0374  0.0275  0.0187  0.0771  0.4745  0.0751  0.2373  0.0096 </r>
       </set>
       <set comment="band 3">
        <r>  0.0000  0.1223  0.0000  0.2446  0.0091  0.1491  0.0000  0.2983  0.0724 </r>
       </set>
       <set comment="band 4">
        <r>  0.0673  0.0114  0.0152  0.0057  0.0815  0.1011  0.5914  0.0505  0.0102 </r>
       </set>
       <set comment="band 5">
        <r>  0.0000  0.0568  0.0000  0.1136  0.0461  0.1308  0.0000  0.2615  0.3685 </r>
       </set>
       <set comment="band 6">
        <r>  0.0000  0.1114  0.0000  0.2224  0.0572  0.0490  0.0000  0.0983  0.4592 </r>
       </set>
      </set>
      <set comment="kpoint 10">
       <set comment="band 1">
        <r>  0.0000  0.0650  0.1951  0.0325  0.0512  0.3069  0.1726  0.1535  0.0064 </r>
       </set>
       <set comment="band 2">
        <r>  0.0000  0.2141  0.0777  0.0008  0.1684  0.1223  0.2752  0.0611  0.0636 </r>
       </set>
       <set comment="band 3">
        <r>  0.0000  0.0135  0.0198  0.2593  0.0106  0.0312  0.0701  0.0156  0.5631 </r>
       </set>
       <set comment="band 4">
        <r>  0.0000  0.0000  0.0000  0.0000  0.6432  0.0099  0.2412  0.0198  0.0804 </r>
       </set>
       <set comment="band 5">
        <r>  0.0000  0.0000  0.0000  0.0000  0.0198  0.3216  0.0074  0.6432  0.0025 </r>
       </set>
       <set comment="band 6">
        <r>  0.9477  0.0000  0.0000  0.0000  0.0000  0.0000  0.0000  0.0000  0.0000 </r>
       </set>
      </set>
      <set comment="kpoint 11">
       <set comment="band 1">
        <r>  0.4470  0.0480  0.1441  0.0960  0.0292  0.0438  0.0109  0.0875  0.0036 </r>
       </set>
       <set comment="band 2">
        <r>  0.0000  0.0000  0.0000  0.0000  0.4242  0.0707  0.1591  0.1414  0.0530 </r>
       </set>
       <set comment="band 3">
        <r>  0.0000  0.0097  0.0290  0.0772  0.0238  0.1430  0.3218  0.0715  0.2979 </r>
       </set>
       <set comment="band 4">
        <r>  0.0000  0.0869  0.0290  0.0000  0.2145  0.1430  0.3218  0.0715  0.1073 </r>
       </set>
       <set comment="band 5">
        <r>  0.0000  0.0000  0.0000  0.0000  0.0537  0.3219  0.0000  0.1610  0.4292 </r>
       </set>
       <set comment="band 6">
        <r>  0.1752  0.0047  0.0142  0.0095  0.1299  0.1949  0.0487  0.3898  0.0162 </r>
       </set>
      </set>
      <set comment="kpoint 12">
       <set comment="band 1">
        <r>  0.1073  0.0128  0.0893  0.0257  0.5660  0.0121  0.0083  0.0242  0.0708 </r>
       </set>
       <set comment="band 2">
        <r>  0.0209  0.0509  0.0029  0.1019  0.0988  0.1942  0.0193  0.3883  0.0124 </r>
       </set>
       <set comment="band 3">
        <r>  0.0000  0.0692  0.0000  0.0346  0.0013  0.5704  0.0000  0.2852  0.0106 </r>
       </set>
       <set comment="band 4">
        <r>  0.1193  0.0105  0.0538  0.0210  0.0000  0.0082  0.6934  0.0165  0.0000 </r>
       </set>
       <set comment="band 5">
        <r>  0.0000  0.0222  0.0000  0.0111  0.0991  0.0213  0.0000  0.0107  0.7927 </r>
       </set>
       <set comment="band 6">
        <r>  0.1933  0.1232  0.0133  0.2464  0.0812  0.0867  0.0368  0.1735  0.0101 </r>
       </set>
      </set>
      <set comment="kpoint 13">
       <set comment="band 1">
        <r>  0.0000  0.0407  0.0305  0.0203  0.6056  0.0038  0.1246  0.0019  0.0757 </r>
       </set>
       <set comment="band 2">
        <r>  0.0000  0.0305  0.0000  0.0610  0.0019  0.2648  0.0000  0.5296  0.0153 </r>
       </set>
       <set comment="band 3">
        <r>  0.1409  0.0227  0.0681  0.0114  0.0524  0.3146  0.1769  0.1573  0.0066 </r>
       </set>
       <set comment="band 4">
        <r>  0.0000  0.0700  0.0000  0.1401  0.0743  0.0216  0.0000  0.0432  0.5945 </r>
       </set>
       <set comment="band 5">
        <r>  0.0000  0.0934  0.0700  0.0467  0.0114  0.1486  0.4979  0.0743  0.0014 </r>
       </set>
       <set comment="band 6">
        <r>  0.3999  0.0346  0.1037  0.0173  0.0225  0.1348  0.0758  0.0674  0.0028 </r>
       </set>
      </set>
      <set comment="kpoint 14">
       <set comment="band 1">
        <r>  0.0000  0.0000  0.0000  0.0000  0.4560  0.0760  0.1710  0.1520  0.0570 </r>
       </set>
       <set comment="band 2">
        <r>  0.0056  0.0100  0.0300  0.0200  0.1418  0.2126  0.0532  0.4253  0.0177 </r>
       </set>
       <set comment="band 3">
        <r>  0.0000  0.1705  0.0568  0.0000  0.1767  0.1178  0.2651  0.0589  0.0884 </r>
       </set>
       <set comment="band 4">
        <r>  0.0000  0.0189  0.0568  0.1515  0.0196  0.1178  0.2651  0.0589  0.2454 </r>
       </set>
       <set comment="band 5">
        <r>  0.0000  0.0000  0.0000  0.0000  0.0531  0.3183  0.0000  0.1592  0.4245 </r>
       </set>
       <set comment="band 6">
        <r>  0.2518  0.0960  0.2881  0.1920  0.0105  0.0157  0.0039  0.0314  0.0013 </r>
       </set>
      </set>
     </set>
    </set>
   </array>
  </projected>
 </calculation>
 <structure name="finalpos" >
  <crystal>
   <varray name="basis" >
    <v>       2.86654409       0.00000000       0.00000000 </v>
    <v>      -0.95551470       2.70260368       0.00000000 </v>
    <v>      -0.95551470      -1.35130184       2.34052345 </v>
   </varray>
   <i name="volume">     18.13234550 </i>
   <varray name="rec_basis" >
    <v>       0.34885213       0.12333785       0.21362743 </v>
    <v>       0.00000000       0.37001356       0.21362743 </v>
    <v>       0.00000000       0.00000000       0.42725485 </v>
   </varray>
  </crystal>
  <varray name="positions" >
   <v>       0.00000000       0.00000000       0.00000000 </v>
  </varray>
 </structure>
</modeling>
