<?xml version="1.0" encoding="ISO-8859-1"?>
<modeling>
 <generator>
  <i name="program" type="string">vasp </i>
  <i name="version" type="string">5.2.12  </i>
  <i name="subversion" type="string">11Nov11 complex                                                      parallel </i>
  <i name="platform" type="string">LinuxIFC </i>
  <i name="date" type="string">2012 10 14 </i>
  <i name="time" type="string">15:40:34 </i>
 </generator>
 <incar>
  <i type="string" name="PREC">accurate</i>
  <i name="ENCUT">    350.00000000</i>
  <i type="logical" name="LREAL"> F  </i>
  <i type="int" name="ISMEAR">     1</i>
  <i name="SIGMA">      0.05000000</i>
 </incar>
 <kpoints>
  <generation param="Monkhorst-Pack">
   <v type="int" name="divisions">       6        6        6 </v>
   <v name="usershift">      0.00000000       0.00000000       0.00000000 </v>
   <v name="genvec1">      0.16666667       0.00000000       0.00000000 </v>
   <v name="genvec2">      0.00000000       0.16666667       0.00000000 </v>
   <v name="genvec3">      0.00000000       0.00000000       0.16666667 </v>
   <v name="shift">      0.50000000       0.50000000       0.50000000 </v>
  </generation>
  <varray name="kpointlist" >
   <v>       0.08333333       0.08333333       0.08333333 </v>
   <v>       0.25000000       0.08333333       0.08333333 </v>
   <v>       0.41666667       0.08333333       0.08333333 </v>
   <v>      -0.08333333       0.08333333       0.08333333 </v>
   <v>       0.25000000       0.25000000       0.08333333 </v>
   <v>      -0.25000000       0.25000000       0.08333333 </v>
   <v>      -0.41666667       0.41666667       0.08333333 </v>
   <v>      -0.25000000       0.41666667       0.08333333 </v>
   <v>      -0.41666667      -0.41666667       0.08333333 </v>
   <v>       0.25000000       0.25000000       0.25000000 </v>
   <v>      -0.25000000       0.25000000       0.25000000 </v>
   <v>      -0.41666667       0.41666667       0.25000000 </v>
   <v>      -0.41666667      -0.41666667       0.25000000 </v>
   <v>      -0.41666667       0.41666667       0.41666667 </v>
  </varray>
  <varray name="weights" >
   <v>       0.03703704 </v>
   <v>       0.11111111 </v>
   <v>       0.05555556 </v>
   <v>       0.02777778 </v>
   <v>       0.11111111 </v>
   <v>       0.11111111 </v>
   <v>       0.11111111 </v>
   <v>       0.11111111 </v>
   <v>       0.11111111 </v>
   <v>       0.00925926 </v>
   <v>       0.02777778 </v>
   <v>       0.11111111 </v>
   <v>       0.03703704 </v>
   <v>       0.02777778 </v>
  </varray>
 </kpoints>
 <parameters>
  <separator name="general" >
   <i type="string" name="SYSTEM">unknown system</i>
   <i type="logical" name="LCOMPAT"> F  </i>
  </separator>
  <separator name="electronic" >
   <i type="string" name="PREC">accura</i>
   <i name="ENMAX">    350.00000000</i>
   <i name="ENAUG">    332.07500000</i>
   <i name="EDIFF">      0.00010000</i>
   <i type="int" name="IALGO">    38</i>
   <i type="int" name="IWAVPR">    10</i>
   <i type="int" name="NBANDS">     6</i>
   <i name="NELECT">      5.00000000</i>
   <i type="int" name="TURBO">     0</i>
   <i type="int" name="IRESTART">     0</i>
   <i type="int" name="NREBOOT">     0</i>
   <i type="int" name="NMIN">     0</i>
   <i name="EREF">      0.00000000</i>
   <separator name="electronic smearing" >
    <i type="int" name="ISMEAR">     1</i>
    <i name="SIGMA">      0.05000000</i>
    <i name="KSPACING">      0.50000000</i>
    <i type="logical" name="KGAMMA"> T  </i>
   </separator>
   <separator name="electronic projectors" >
    <i type="logical" name="LREAL"> F  </i>
    <v name="ROPT">      0.00000000</v>
    <i type="int" name="LMAXPAW">  -100</i>
    <i type="int" name="LMAXMIX">     2</i>
    <i type="logical" name="NLSPLINE"> F  </i>
   </separator>
   <separator name="electronic startup" >
    <i type="int" name="ISTART">     0</i>
    <i type="int" name="ICHARG">     2</i>
    <i type="int" name="INIWAV">     1</i>
   </separator>
   <separator name="electronic spin" >
    <i type="int" name="ISPIN">     1</i>
    <i type="logical" name="LNONCOLLINEAR"> F  </i>
    <v name="MAGMOM">      1.00000000</v>
    <i name="NUPDOWN">     -1.00000000</i>
    <i type="logical" name="LSORBIT"> F  </i>
    <v name="SAXIS">      0.00000000      0.00000000      1.00000000</v>
    <i type="logical" name="LSPIRAL"> F  </i>
    <v name="QSPIRAL">      0.00000000      0.00000000      0.00000000</v>
    <i type="logical" name="LZEROZ"> F  </i>
   </separator>
   <separator name="electronic exchange-correlation" >
    <i type="logical" name="LASPH"> F  </i>
    <i type="logical" name="LMETAGGA"> F  </i>
   </separator>
   <separator name="electronic convergence" >
    <i type="int" name="NELM">    60</i>
    <i type="int" name="NELMDL">    -5</i>
    <i type="int" name="NELMIN">     2</i>
    <i name="ENINI">    350.00000000</i>
    <separator name="electronic convergence detail" >
     <i type="logical" name="LDIAG"> T  </i>
     <i type="logical" name="LSUBROT"> T  </i>
     <i name="WEIMIN">      0.00000000</i>
     <i name="EBREAK">      0.00000417</i>
     <i name="DEPER">      0.30000000</i>
     <i type="int" name="NRMM">     4</i>
     <i name="TIME">      0.40000000</i>
    </separator>
   </separator>
   <separator name="electronic mixer" >
    <i name="AMIX">      0.40000000</i>
    <i name="BMIX">      1.00000000</i>
    <i name="AMIN">      0.10000000</i>
    <i name="AMIX_MAG">      1.60000000</i>
    <i name="BMIX_MAG">      1.00000000</i>
    <separator name="electronic mixer details" >
     <i type="int" name="IMIX">     4</i>
     <i type="int" name="MAXMIX">   -45</i>
     <i name="WC">    100.00000000</i>
     <i type="int" name="INIMIX">     1</i>
     <i type="int" name="MIXPRE">     1</i>
     <i type="int" name="MREMOVE">     5</i>
    </separator>
   </separator>
   <separator name="electronic dipolcorrection" >
    <i type="logical" name="LDIPOL"> F  </i>
    <i type="logical" name="LMONO"> F  </i>
    <i type="int" name="IDIPOL">     0</i>
    <i name="EPSILON">      1.00000000</i>
    <v name="DIPOL">   -100.00000000   -100.00000000   -100.00000000</v>
    <i name="EFIELD">      0.00000000</i>
   </separator>
  </separator>
  <separator name="grids" >
   <i type="int" name="NGX">    18</i>
   <i type="int" name="NGY">    18</i>
   <i type="int" name="NGZ">    18</i>
   <i type="int" name="NGXF">    36</i>
   <i type="int" name="NGYF">    36</i>
   <i type="int" name="NGZF">    36</i>
   <i type="logical" name="ADDGRID"> F  </i>
  </separator>
  <separator name="ionic" >
   <i type="int" name="NSW">     0</i>
   <i type="int" name="IBRION">    -1</i>
   <i type="int" name="ISIF">     2</i>
   <i name="PSTRESS">      0.00000000</i>
   <i name="EDIFFG">      0.00100000</i>
   <i type="int" name="NFREE">     0</i>
   <i name="POTIM">      0.50000000</i>
   <i name="SMASS">     -3.00000000</i>
   <i name="SCALEE">      1.00000000</i>
  </separator>
  <separator name="ionic md" >
   <i name="TEBEG">      0.00010000</i>
   <i name="TEEND">      0.00010000</i>
   <i type="int" name="NBLOCK">     1</i>
   <i type="int" name="KBLOCK">     1</i>
   <i type="int" name="NPACO">   256</i>
   <i name="APACO">     16.00000000</i>
  </separator>
  <separator name="symmetry" >
   <i type="int" name="ISYM">     2</i>
   <i name="SYMPREC">      0.00001000</i>
  </separator>
  <separator name="dos" >
   <i type="logical" name="LORBIT"> F  </i>
   <v name="RWIGS">     -1.00000000</v>
   <i type="int" name="NEDOS">   301</i>
   <i name="EMIN">     10.00000000</i>
   <i name="EMAX">    -10.00000000</i>
   <i name="EFERMI">      0.00000000</i>
  </separator>
  <separator name="writing" >
   <i type="int" name="NWRITE">     2</i>
   <i type="logical" name="LWAVE"> T  </i>
   <i type="logical" name="LCHARG"> T  </i>
   <i type="logical" name="LPARD"> F  </i>
   <i type="logical" name="LVTOT"> F  </i>
   <i type="logical" name="LVHAR"> F  </i>
   <i type="logical" name="LELF"> F  </i>
   <i type="logical" name="LOPTICS"> F  </i>
   <v name="STM">      0.00000000      0.00000000      0.00000000      0.00000000      0.00000000      0.00000000      0.00000000</v>
  </separator>
  <separator name="performance" >
   <i type="int" name="NPAR">     1</i>
   <i type="int" name="NSIM">     4</i>
   <i type="int" name="NBLK">    -1</i>
   <i type="logical" name="LPLANE"> T  </i>
   <i type="logical" name="LSCALAPACK"> F  </i>
   <i type="logical" name="LSCAAWARE"> F  </i>
   <i type="logical" name="LSCALU"> F  </i>
   <i type="logical" name="LASYNC"> F  </i>
   <i type="logical" name="LORBITALREAL"> F  </i>
  </separator>
  <separator name="miscellaneous" >
   <i type="int" name="IDIOT">     3</i>
   <i type="logical" name="LMUSIC"> F  </i>
   <v name="POMASS">    180.94800000</v>
   <v name="DARWINR">      0.00000000</v>
   <v name="DARWINV">      1.00000000</v>
   <i type="logical" name="LCORR"> T  </i>
  </separator>
  <i type="logical" name="GGA_COMPAT"> T  </i>
  <i type="logical" name="LBERRY"> F  </i>
  <i type="int" name="ICORELEVEL">     0</i>
  <i type="logical" name="LDAU"> F  </i>
  <i type="int" name="I_CONSTRAINED_M">     0</i>
  <separator name="electronic exchange-correlation" >
   <i type="string" name="GGA">--</i>
   <i type="int" name="VOSKOWN">     0</i>
   <i type="logical" name="LHFCALC"> F  </i>
   <i type="string" name="PRECFOCK"></i>
   <i type="logical" name="LHFONE"> F  </i>
   <i type="logical" name="LRHFCALC"> F  </i>
   <i type="logical" name="LTHOMAS"> F  </i>
   <i type="logical" name="LMODELHF"> F  </i>
   <i name="ENCUT4O">     -1.00000000</i>
   <i type="int" name="EXXOEP">     0</i>
   <i type="int" name="FOURORBIT">     0</i>
   <i name="AEXX">      0.00000000</i>
   <i name="HFALPHA">      0.00000000</i>
   <i name="ALDAX">      1.00000000</i>
   <i name="AGGAX">      1.00000000</i>
   <i name="ALDAC">      1.00000000</i>
   <i name="AGGAC">      1.00000000</i>
   <i type="int" name="NKREDX">     1</i>
   <i type="int" name="NKREDY">     1</i>
   <i type="int" name="NKREDZ">     1</i>
   <i type="logical" name="SHIFTRED"> F  </i>
   <i type="logical" name="ODDONLY"> F  </i>
   <i type="logical" name="EVENONLY"> F  </i>
   <i type="int" name="LMAXFOCK">     0</i>
   <i type="int" name="NMAXFOCKAE">     0</i>
   <i type="logical" name="LFOCKAEDFT"> F  </i>
   <i name="HFSCREEN">      0.00000000</i>
   <i name="HFSCREENC">      0.00000000</i>
  </separator>
  <separator name="vdW DFT" >
   <i type="logical" name="LUSE_VDW"> F  </i>
   <i name="Zab_VDW">     -0.84910000</i>
   <i name="PARAM1">      0.12340000</i>
   <i name="PARAM2">      1.00000000</i>
   <i name="PARAM3">      0.00000000</i>
  </separator>
  <separator name="model GW" >
   <i type="int" name="MODEL_GW">     0</i>
   <i name="MODEL_EPS0">     10.87940730</i>
   <i name="MODEL_ALPHA">      1.00000000</i>
  </separator>
  <separator name="linear response parameters" >
   <i type="logical" name="LEPSILON"> F  </i>
   <i type="logical" name="LRPA"> F  </i>
   <i type="logical" name="LNABLA"> F  </i>
   <i type="logical" name="LVEL"> F  </i>
   <i type="int" name="KINTER">     0</i>
   <i name="CSHIFT">      0.10000000</i>
   <i name="OMEGAMAX">     -1.00000000</i>
  </separator>
  <separator name="orbital magnetization" >
   <i type="logical" name="NUCIND"> F  </i>
   <v name="MAGPOS">      0.00000000      0.00000000      0.00000000</v>
   <i type="logical" name="LNICSALL"> T  </i>
   <i type="logical" name="ORBITALMAG"> F  </i>
   <i type="logical" name="LMAGBLOCH"> F  </i>
   <i type="logical" name="LCHIMAG"> F  </i>
   <i type="logical" name="LGAUGE"> T  </i>
   <i type="int" name="MAGATOM">     0</i>
   <v name="MAGDIPOL">      0.00000000      0.00000000      0.00000000</v>
   <v name="AVECCONST">      0.00000000      0.00000000      0.00000000</v>
  </separator>
  <separator name="response functions" >
   <i type="logical" name="LADDER"> F  </i>
   <i type="logical" name="LHARTREE"> T  </i>
   <i type="int" name="IBSE">     0</i>
   <i type="logical" name="LTCTE"> F  </i>
   <i type="logical" name="LTETE"> F  </i>
   <i type="logical" name="LFXCEPS"> F  </i>
   <i type="logical" name="L2ORDER"> F  </i>
   <i type="logical" name="LUSEW"> F  </i>
   <i name="ENCUTGW">     -2.00000000</i>
   <i name="ENCUTGWSOFT">     -2.00000000</i>
   <i name="ENCUTLF">     -1.00000000</i>
   <i type="int" name="LMAXMP2">    -1</i>
   <i name="SCISSOR">      0.00000000</i>
   <i type="int" name="NOMEGA">     0</i>
   <i type="int" name="NOMEGAR">     0</i>
   <i type="int" name="NBANDSGW">    -1</i>
   <i type="int" name="NBANDSO">    -1</i>
   <i type="int" name="NBANDSV">    -1</i>
   <i name="OPTEMAX">      0.00000000</i>
   <i type="int" name="NELM">     1</i>
   <i type="int" name="DIM">     3</i>
   <i type="int" name="ANTIRES">     0</i>
   <i name="OMEGAMAX">    -30.00000000</i>
   <i name="OMEGATL">   -200.00000000</i>
   <i type="int" name="OMEGAGRID">     0</i>
   <i name="CSHIFT">     -0.10000000</i>
   <i type="logical" name="SELFENERGY"> F  </i>
   <i type="logical" name="LSPECTRAL"> F  </i>
   <i type="logical" name="ODDONLYGW"> F  </i>
   <i type="logical" name="EVENONLYGW"> F  </i>
   <i type="int" name="NKREDLFX">     1</i>
   <i type="int" name="NKREDLFY">     1</i>
   <i type="int" name="NKREDLFZ">     1</i>
   <i type="int" name="MAXMEM">  1800</i>
   <i type="int" name="TELESCOPE">     0</i>
  </separator>
 </parameters>
 <atominfo>
  <atoms>       1 </atoms>
  <types>       1 </types>
  <array name="atoms" >
   <dimension dim="1">ion</dimension>
   <field type="string">element</field>
   <field type="int">atomtype</field>
   <set>
    <rc><c>Ta</c><c>   1</c></rc>
   </set>
  </array>
  <array name="atomtypes" >
   <dimension dim="1">type</dimension>
   <field type="int">atomspertype</field>
   <field type="string">element</field>
   <field>mass</field>
   <field>valence</field>
   <field type="string">pseudopotential</field>
   <set>
    <rc><c>   1</c><c>Ta</c><c>    180.94800000</c><c>      5.00000000</c><c>  PAW_PBE Ta 17Jan2003                  </c></rc>
   </set>
  </array>
 </atominfo>
 <structure name="initialpos" >
  <crystal>
   <varray name="basis" >
    <v>       2.86654409       0.00000000       0.00000000 </v>
    <v>      -0.95551470       2.70260368       0.00000000 </v>
    <v>      -0.95551470      -1.35130184       2.34052345 </v>
   </varray>
   <i name="volume">     18.13234550 </i>
   <varray name="rec_basis" >
    <v>       0.34885213       0.12333785       0.21362743 </v>
    <v>       0.00000000       0.37001356       0.21362743 </v>
    <v>       0.00000000       0.00000000       0.42725485 </v>
   </varray>
  </crystal>
  <varray name="positions" >
   <v>       0.00000000       0.00000000       0.00000000 </v>
  </varray>
 </structure>
 <calculation>
  <scstep>
   <time name="dav">    0.19    0.29</time>
   <time name="total">    0.30    0.51</time>
   <energy>
    <i name="alphaZ">     30.58334069 </i>
    <i name="ewald">   -197.90100875 </i>
    <i name="hartreedc">     -2.50452612 </i>
    <i name="XCdc">    -66.68582567 </i>
    <i name="pawpsdc">    148.27821850 </i>
    <i name="pawaedc">    -73.99089003 </i>
    <i name="eentropy">     -0.00186355 </i>
    <i name="bandstr">     28.95608629 </i>
    <i name="atom">    130.64621481 </i>
    <i name="e_fr_energy">     -2.62025383 </i>
    <i name="e_wo_entrp">     -2.61839028 </i>
    <i name="e_0_energy">     -2.61963265 </i>
   </energy>
  </scstep>
  <scstep>
   <time name="dav">    0.27    0.36</time>
   <time name="total">    0.27    0.39</time>
   <energy>
    <i name="e_fr_energy">    -12.26506449 </i>
    <i name="e_wo_entrp">    -12.26471270 </i>
    <i name="e_0_energy">    -12.26494723 </i>
   </energy>
  </scstep>
  <scstep>
   <time name="dav">    0.21    0.30</time>
   <time name="total">    0.21    1.19</time>
   <energy>
    <i name="e_fr_energy">    -12.32181368 </i>
    <i name="e_wo_entrp">    -12.32069272 </i>
    <i name="e_0_energy">    -12.32144003 </i>
   </energy>
  </scstep>
  <scstep>
   <time name="dav">    0.22    0.34</time>
   <time name="total">    0.22    0.35</time>
   <energy>
    <i name="e_fr_energy">    -12.32194788 </i>
    <i name="e_wo_entrp">    -12.32082904 </i>
    <i name="e_0_energy">    -12.32157494 </i>
   </energy>
  </scstep>
  <scstep>
   <time name="dav">    0.16    0.47</time>
   <time name="total">    0.19    0.55</time>
   <energy>
    <i name="e_fr_energy">    -12.32194827 </i>
    <i name="e_wo_entrp">    -12.32082945 </i>
    <i name="e_0_energy">    -12.32157533 </i>
   </energy>
  </scstep>
  <scstep>
   <time name="dav">    0.19    0.19</time>
   <time name="total">    0.31    0.49</time>
   <energy>
    <i name="e_fr_energy">    -12.02082799 </i>
    <i name="e_wo_entrp">    -12.01845687 </i>
    <i name="e_0_energy">    -12.02003762 </i>
   </energy>
  </scstep>
  <scstep>
   <time name="dav">    0.21    0.41</time>
   <time name="total">    0.34    0.63</time>
   <energy>
    <i name="e_fr_energy">    -11.88204974 </i>
    <i name="e_wo_entrp">    -11.88036171 </i>
    <i name="e_0_energy">    -11.88148706 </i>
   </energy>
  </scstep>
  <scstep>
   <time name="dav">    0.21    0.21</time>
   <time name="total">    0.38    0.94</time>
   <energy>
    <i name="e_fr_energy">    -11.88106577 </i>
    <i name="e_wo_entrp">    -11.87929756 </i>
    <i name="e_0_energy">    -11.88047637 </i>
   </energy>
  </scstep>
  <scstep>
   <time name="dav">    0.21    0.43</time>
   <time name="total">    0.30    0.59</time>
   <energy>
    <i name="alphaZ">     30.58334069 </i>
    <i name="ewald">   -197.90100875 </i>
    <i name="hartreedc">     -0.64957531 </i>
    <i name="XCdc">    -66.01883668 </i>
    <i name="pawpsdc">    194.25351645 </i>
    <i name="pawaedc">   -120.81146839 </i>
    <i name="eentropy">     -0.00179578 </i>
    <i name="bandstr">     18.01857275 </i>
    <i name="atom">    130.64621481 </i>
    <i name="e_fr_energy">    -11.88104021 </i>
    <i name="e_wo_entrp">    -11.87924442 </i>
    <i name="e_0_energy">    -11.88044161 </i>
   </energy>
  </scstep>
  <parameters_embedded>
   <separator name="dft+d2" >
    <i type="logical" name="LVDW"> F  </i>
   </separator>
  </parameters_embedded>
  <structure>
   <crystal>
    <varray name="basis" >
     <v>       2.86654409       0.00000000       0.00000000 </v>
     <v>      -0.95551470       2.70260368       0.00000000 </v>
     <v>      -0.95551470      -1.35130184       2.34052345 </v>
    </varray>
    <i name="volume">     18.13234550 </i>
    <varray name="rec_basis" >
     <v>       0.34885213       0.12333785       0.21362743 </v>
     <v>       0.00000000       0.37001356       0.21362743 </v>
     <v>       0.00000000       0.00000000       0.42725485 </v>
    </varray>
   </crystal>
   <varray name="positions" >
    <v>       0.00000000       0.00000000       0.00000000 </v>
   </varray>
  </structure>
  <varray name="forces" >
   <v>       0.00000000       0.00000000       0.00000000 </v>
  </varray>
  <varray name="stress" >
   <v>     -20.00709963       0.00000000       0.00000000 </v>
   <v>       0.00000000     -20.00709963       0.00000000 </v>
   <v>       0.00000000       0.00000000     -20.00709963 </v>
  </varray>
  <energy>
   <i name="e_fr_energy">    -11.88104021 </i>
   <i name="e_wo_entrp">    -11.88044161 </i>
   <i name="e_0_energy">     -0.00179578 </i>
  </energy>
  <time name="totalsc">    3.42   10.12</time>
  <eigenvalues>
   <array>
    <dimension dim="1">band</dimension>
    <dimension dim="2">kpoint</dimension>
    <dimension dim="3">spin</dimension>
    <field>eigene</field>
    <field>occ</field>
    <set>
     <set comment="spin 1">
      <set comment="kpoint 1">
       <r>   -0.5312    1.0000 </r>
       <r>    5.5195    1.0154 </r>
       <r>    5.5195    1.0154 </r>
       <r>    8.5786    0.0000 </r>
       <r>    9.4544    0.0000 </r>
       <r>    9.4544    0.0000 </r>
      </set>
      <set comment="kpoint 2">
       <r>    1.5950    1.0000 </r>
       <r>    4.4995    1.0000 </r>
       <r>    5.0723    1.0000 </r>
       <r>    9.6353    0.0000 </r>
       <r>   10.2377    0.0000 </r>
       <r>   11.9655    0.0000 </r>
      </set>
      <set comment="kpoint 3">
       <r>    1.9835    1.0000 </r>
       <r>    4.1256    1.0000 </r>
       <r>    6.5794    0.0000 </r>
       <r>    9.8377    0.0000 </r>
       <r>   10.6445    0.0000 </r>
       <r>   14.4356    0.0000 </r>
      </set>
      <set comment="kpoint 4">
       <r>   -1.5885    1.0000 </r>
       <r>    6.3946    0.0000 </r>
       <r>    6.3946    0.0000 </r>
       <r>    6.7596    0.0000 </r>
       <r>    8.7452    0.0000 </r>
       <r>   10.0411    0.0000 </r>
      </set>
      <set comment="kpoint 5">
       <r>    3.1967    1.0000 </r>
       <r>    4.3353    1.0000 </r>
       <r>    4.9611    1.0000 </r>
       <r>   10.1465    0.0000 </r>
       <r>   10.5981    0.0000 </r>
       <r>   15.0358    0.0000 </r>
      </set>
      <set comment="kpoint 6">
       <r>    0.3445    1.0000 </r>
       <r>    5.4629    1.0002 </r>
       <r>    5.6121    0.4337 </r>
       <r>    8.1902    0.0000 </r>
       <r>    8.9346    0.0000 </r>
       <r>   10.4839    0.0000 </r>
      </set>
      <set comment="kpoint 7">
       <r>    1.6133    1.0000 </r>
       <r>    4.6285    1.0000 </r>
       <r>    6.0059    0.0000 </r>
       <r>    9.0227    0.0000 </r>
       <r>   10.9558    0.0000 </r>
       <r>   12.5022    0.0000 </r>
      </set>
      <set comment="kpoint 8">
       <r>    2.2402    1.0000 </r>
       <r>    4.3952    1.0000 </r>
       <r>    5.5814    0.8892 </r>
       <r>    8.2928    0.0000 </r>
       <r>   10.4089    0.0000 </r>
       <r>   12.0716    0.0000 </r>
      </set>
      <set comment="kpoint 9">
       <r>    2.8302    1.0000 </r>
       <r>    4.6684    1.0000 </r>
       <r>    5.0085    1.0000 </r>
       <r>    8.8597    0.0000 </r>
       <r>   11.0942    0.0000 </r>
       <r>   15.3053    0.0000 </r>
      </set>
      <set comment="kpoint 10">
       <r>    4.4861    1.0000 </r>
       <r>    4.4861    1.0000 </r>
       <r>    4.4861    1.0000 </r>
       <r>   10.7725    0.0000 </r>
       <r>   10.7725    0.0000 </r>
       <r>   12.7554    0.0000 </r>
      </set>
      <set comment="kpoint 11">
       <r>    1.9705    1.0000 </r>
       <r>    4.7959    1.0000 </r>
       <r>    6.9788    0.0000 </r>
       <r>    6.9788    0.0000 </r>
       <r>    8.9156    0.0000 </r>
       <r>   10.7119    0.0000 </r>
      </set>
      <set comment="kpoint 12">
       <r>    2.8890    1.0000 </r>
       <r>    3.7265    1.0000 </r>
       <r>    6.9136    0.0000 </r>
       <r>    7.5998    0.0000 </r>
       <r>   12.0002    0.0000 </r>
       <r>   12.0441    0.0000 </r>
      </set>
      <set comment="kpoint 13">
       <r>    3.0384    1.0000 </r>
       <r>    3.0384    1.0000 </r>
       <r>    6.4868    0.0000 </r>
       <r>   10.6912    0.0000 </r>
       <r>   10.6912    0.0000 </r>
       <r>   15.6332    0.0000 </r>
      </set>
      <set comment="kpoint 14">
       <r>    2.2781    1.0000 </r>
       <r>    2.3751    1.0000 </r>
       <r>   10.3649    0.0000 </r>
       <r>   10.3649    0.0000 </r>
       <r>   11.9106    0.0000 </r>
       <r>   12.6349    0.0000 </r>
      </set>
     </set>
    </set>
   </array>
  </eigenvalues>
  <separator name="orbital magnetization" >
   <v name="MAGDIPOLOUT">      0.00000000      0.00000000      0.00000000</v>
  </separator>
  <dos>
   <i name="efermi">      5.60819473 </i>
   <total>
    <array>
     <dimension dim="1">gridpoints</dimension>
     <dimension dim="2">spin</dimension>
     <field>energy</field>
     <field>total</field>
     <field>integrated</field>
     <set>
      <set comment="spin 1">
       <r>    -2.4496     0.0000     0.0000 </r>
       <r>    -2.3865     0.0000     0.0000 </r>
       <r>    -2.3233     0.0000     0.0000 </r>
       <r>    -2.2602     0.0000     0.0000 </r>
       <r>    -2.1970     0.0000     0.0000 </r>
       <r>    -2.1339     0.0000     0.0000 </r>
       <r>    -2.0707     0.0000     0.0000 </r>
       <r>    -2.0076     0.0000     0.0000 </r>
       <r>    -1.9444     0.0000     0.0000 </r>
       <r>    -1.8813     0.0000     0.0000 </r>
       <r>    -1.8181     0.0000     0.0000 </r>
       <r>    -1.7550     0.0000     0.0000 </r>
       <r>    -1.6919    -0.0056    -0.0004 </r>
       <r>    -1.6287     0.0136     0.0005 </r>
       <r>    -1.5656     0.7372     0.0471 </r>
       <r>    -1.5024     0.1502     0.0565 </r>
       <r>    -1.4393    -0.0154     0.0556 </r>
       <r>    -1.3761    -0.0001     0.0556 </r>
       <r>    -1.3130     0.0000     0.0556 </r>
       <r>    -1.2498     0.0000     0.0556 </r>
       <r>    -1.1867     0.0000     0.0556 </r>
       <r>    -1.1235     0.0000     0.0556 </r>
       <r>    -1.0604     0.0000     0.0556 </r>
       <r>    -0.9972     0.0000     0.0556 </r>
       <r>    -0.9341     0.0000     0.0556 </r>
       <r>    -0.8709     0.0000     0.0556 </r>
       <r>    -0.8078     0.0000     0.0556 </r>
       <r>    -0.7447     0.0000     0.0556 </r>
       <r>    -0.6815    -0.0001     0.0555 </r>
       <r>    -0.6184    -0.0195     0.0543 </r>
       <r>    -0.5552     0.1851     0.0660 </r>
       <r>    -0.4921     0.9906     0.1286 </r>
       <r>    -0.4289     0.0250     0.1301 </r>
       <r>    -0.3658    -0.0080     0.1296 </r>
       <r>    -0.3026     0.0000     0.1296 </r>
       <r>    -0.2395     0.0000     0.1296 </r>
       <r>    -0.1763     0.0000     0.1296 </r>
       <r>    -0.1132     0.0000     0.1296 </r>
       <r>    -0.0500     0.0000     0.1296 </r>
       <r>     0.0131     0.0000     0.1296 </r>
       <r>     0.0762     0.0000     0.1296 </r>
       <r>     0.1394     0.0000     0.1296 </r>
       <r>     0.2025    -0.0008     0.1296 </r>
       <r>     0.2657    -0.0843     0.1243 </r>
       <r>     0.3288     0.9615     0.1850 </r>
       <r>     0.3920     2.7101     0.3561 </r>
       <r>     0.4551    -0.0540     0.3527 </r>
       <r>     0.5183    -0.0133     0.3519 </r>
       <r>     0.5814     0.0000     0.3519 </r>
       <r>     0.6446     0.0000     0.3519 </r>
       <r>     0.7077     0.0000     0.3519 </r>
       <r>     0.7709     0.0000     0.3519 </r>
       <r>     0.8340     0.0000     0.3519 </r>
       <r>     0.8972     0.0000     0.3519 </r>
       <r>     0.9603     0.0000     0.3519 </r>
       <r>     1.0234     0.0000     0.3519 </r>
       <r>     1.0866     0.0000     0.3519 </r>
       <r>     1.1497     0.0000     0.3519 </r>
       <r>     1.2129     0.0000     0.3519 </r>
       <r>     1.2760     0.0000     0.3519 </r>
       <r>     1.3392     0.0000     0.3519 </r>
       <r>     1.4023     0.0000     0.3519 </r>
       <r>     1.4655    -0.0031     0.3517 </r>
       <r>     1.5286    -0.1830     0.3401 </r>
       <r>     1.5918     2.3522     0.4886 </r>
       <r>     1.6549     4.9893     0.8037 </r>
       <r>     1.7181    -0.0919     0.7979 </r>
       <r>     1.7812    -0.0252     0.7963 </r>
       <r>     1.8443    -0.0015     0.7962 </r>
       <r>     1.9075    -0.0766     0.7914 </r>
       <r>     1.9706     1.0299     0.8564 </r>
       <r>     2.0338     1.7636     0.9678 </r>
       <r>     2.0969    -0.0705     0.9633 </r>
       <r>     2.1601    -0.0882     0.9577 </r>
       <r>     2.2232     0.8644     1.0123 </r>
       <r>     2.2864     3.3392     1.2232 </r>
       <r>     2.3495     0.4289     1.2503 </r>
       <r>     2.4127     0.7090     1.2950 </r>
       <r>     2.4758     0.0267     1.2967 </r>
       <r>     2.5390    -0.0067     1.2963 </r>
       <r>     2.6021     0.0000     1.2963 </r>
       <r>     2.6652    -0.0001     1.2963 </r>
       <r>     2.7284    -0.0250     1.2947 </r>
       <r>     2.7915     0.0519     1.2980 </r>
       <r>     2.8547     3.1721     1.4983 </r>
       <r>     2.9178     3.5728     1.7239 </r>
       <r>     2.9810     0.2315     1.7385 </r>
       <r>     3.0441     1.4325     1.8290 </r>
       <r>     3.1073     0.9726     1.8904 </r>
       <r>     3.1704     0.3878     1.9149 </r>
       <r>     3.2336     3.0106     2.1050 </r>
       <r>     3.2967     0.1248     2.1129 </r>
       <r>     3.3599    -0.0280     2.1111 </r>
       <r>     3.4230    -0.0001     2.1111 </r>
       <r>     3.4862     0.0000     2.1111 </r>
       <r>     3.5493     0.0000     2.1111 </r>
       <r>     3.6124    -0.0102     2.1105 </r>
       <r>     3.6756    -0.0847     2.1051 </r>
       <r>     3.7387     2.5581     2.2667 </r>
       <r>     3.8019     1.1521     2.3394 </r>
       <r>     3.8650    -0.0951     2.3334 </r>
       <r>     3.9282    -0.0011     2.3333 </r>
       <r>     3.9913    -0.0009     2.3333 </r>
       <r>     4.0545    -0.0536     2.3299 </r>
       <r>     4.1176     0.6999     2.3741 </r>
       <r>     4.1808     1.1716     2.4481 </r>
       <r>     4.2439    -0.1012     2.4417 </r>
       <r>     4.3071     0.3254     2.4622 </r>
       <r>     4.3702     3.5448     2.6861 </r>
       <r>     4.4333     3.0265     2.8772 </r>
       <r>     4.4965     2.3799     3.0275 </r>
       <r>     4.5596     2.2243     3.1679 </r>
       <r>     4.6228     1.3580     3.2537 </r>
       <r>     4.6859     4.9956     3.5691 </r>
       <r>     4.7491     0.7344     3.6155 </r>
       <r>     4.8122     0.5998     3.6534 </r>
       <r>     4.8754     0.1658     3.6639 </r>
       <r>     4.9385     0.4872     3.6946 </r>
       <r>     5.0017     4.2997     3.9661 </r>
       <r>     5.0648     3.7569     4.2034 </r>
       <r>     5.1280     2.1816     4.3411 </r>
       <r>     5.1911    -0.1167     4.3338 </r>
       <r>     5.2542    -0.0069     4.3333 </r>
       <r>     5.3174    -0.0005     4.3333 </r>
       <r>     5.3805    -0.0739     4.3286 </r>
       <r>     5.4437     0.7155     4.3738 </r>
       <r>     5.5068     3.4761     4.5933 </r>
       <r>     5.5700     2.9251     4.7780 </r>
       <r>     5.6331     5.3455     5.1156 </r>
       <r>     5.6963     0.5934     5.1530 </r>
       <r>     5.7594    -0.0771     5.1482 </r>
       <r>     5.8226    -0.0005     5.1481 </r>
       <r>     5.8857    -0.0062     5.1478 </r>
       <r>     5.9489    -0.1144     5.1405 </r>
       <r>     6.0120     2.2387     5.2819 </r>
       <r>     6.0752     1.5148     5.3776 </r>
       <r>     6.1383    -0.1117     5.3705 </r>
       <r>     6.2014    -0.0021     5.3704 </r>
       <r>     6.2646    -0.0013     5.3703 </r>
       <r>     6.3277    -0.0582     5.3666 </r>
       <r>     6.3909     0.8154     5.4181 </r>
       <r>     6.4540     1.1299     5.4895 </r>
       <r>     6.5172     0.8969     5.5461 </r>
       <r>     6.5803     1.0721     5.6138 </r>
       <r>     6.6435     0.8970     5.6704 </r>
       <r>     6.7066    -0.0844     5.6651 </r>
       <r>     6.7698     0.6119     5.7037 </r>
       <r>     6.8329     0.2392     5.7188 </r>
       <r>     6.8961     0.8015     5.7694 </r>
       <r>     6.9592     3.1608     5.9690 </r>
       <r>     7.0223     1.3958     6.0572 </r>
       <r>     7.0855    -0.0167     6.0561 </r>
       <r>     7.1486    -0.0089     6.0556 </r>
       <r>     7.2118     0.0000     6.0556 </r>
       <r>     7.2749     0.0000     6.0556 </r>
       <r>     7.3381     0.0000     6.0556 </r>
       <r>     7.4012     0.0000     6.0556 </r>
       <r>     7.4644    -0.0015     6.0555 </r>
       <r>     7.5275    -0.1040     6.0489 </r>
       <r>     7.5907     1.3315     6.1330 </r>
       <r>     7.6538     2.4044     6.2848 </r>
       <r>     7.7170    -0.1032     6.2783 </r>
       <r>     7.7801    -0.0080     6.2778 </r>
       <r>     7.8432     0.0000     6.2778 </r>
       <r>     7.9064     0.0000     6.2778 </r>
       <r>     7.9695     0.0000     6.2778 </r>
       <r>     8.0327    -0.0001     6.2778 </r>
       <r>     8.0958    -0.0397     6.2753 </r>
       <r>     8.1590     0.2831     6.2931 </r>
       <r>     8.2221     2.9435     6.4790 </r>
       <r>     8.2853     1.6890     6.5857 </r>
       <r>     8.3484     2.2796     6.7296 </r>
       <r>     8.4116    -0.1101     6.7227 </r>
       <r>     8.4747    -0.0142     6.7218 </r>
       <r>     8.5379     0.0147     6.7227 </r>
       <r>     8.6010     0.9784     6.7845 </r>
       <r>     8.6642     0.1889     6.7964 </r>
       <r>     8.7273     0.1872     6.8082 </r>
       <r>     8.7904     0.5861     6.8452 </r>
       <r>     8.8536     1.3996     6.9336 </r>
       <r>     8.9167     3.5513     7.1579 </r>
       <r>     8.9799     3.1424     7.3563 </r>
       <r>     9.0430     2.8149     7.5341 </r>
       <r>     9.1062     0.7036     7.5785 </r>
       <r>     9.1693    -0.0694     7.5741 </r>
       <r>     9.2325    -0.0005     7.5741 </r>
       <r>     9.2956    -0.0001     7.5741 </r>
       <r>     9.3588    -0.0246     7.5725 </r>
       <r>     9.4219     0.1632     7.5828 </r>
       <r>     9.4851     2.0336     7.7112 </r>
       <r>     9.5482     0.1422     7.7202 </r>
       <r>     9.6113     0.5315     7.7538 </r>
       <r>     9.6745     2.9700     7.9413 </r>
       <r>     9.7376     0.0594     7.9451 </r>
       <r>     9.8008     0.0387     7.9475 </r>
       <r>     9.8639     1.5061     8.0426 </r>
       <r>     9.9271     0.2283     8.0570 </r>
       <r>     9.9902    -0.0473     8.0541 </r>
       <r>    10.0534     0.5975     8.0918 </r>
       <r>    10.1165     0.6059     8.1301 </r>
       <r>    10.1797     2.9080     8.3137 </r>
       <r>    10.2428     2.4036     8.4655 </r>
       <r>    10.3060     1.4581     8.5575 </r>
       <r>    10.3691     1.0044     8.6210 </r>
       <r>    10.4323     3.6798     8.8533 </r>
       <r>    10.4954     3.0274     9.0445 </r>
       <r>    10.5585     1.1651     9.1181 </r>
       <r>    10.6217     3.0832     9.3127 </r>
       <r>    10.6848     3.1393     9.5110 </r>
       <r>    10.7480     2.3142     9.6571 </r>
       <r>    10.8111     0.4454     9.6852 </r>
       <r>    10.8743    -0.0730     9.6806 </r>
       <r>    10.9374     0.8163     9.7322 </r>
       <r>    11.0006     2.7712     9.9072 </r>
       <r>    11.0637     0.2868     9.9253 </r>
       <r>    11.1269     3.0341    10.1169 </r>
       <r>    11.1900     0.2386    10.1319 </r>
       <r>    11.2532    -0.0364    10.1296 </r>
       <r>    11.3163    -0.0001    10.1296 </r>
       <r>    11.3794     0.0000    10.1296 </r>
       <r>    11.4426     0.0000    10.1296 </r>
       <r>    11.5057     0.0000    10.1296 </r>
       <r>    11.5689     0.0000    10.1296 </r>
       <r>    11.6320     0.0000    10.1296 </r>
       <r>    11.6952     0.0000    10.1296 </r>
       <r>    11.7583    -0.0001    10.1296 </r>
       <r>    11.8215    -0.0139    10.1287 </r>
       <r>    11.8846     0.0315    10.1307 </r>
       <r>    11.9478     1.4683    10.2235 </r>
       <r>    12.0109     5.4085    10.5650 </r>
       <r>    12.0741     6.2796    10.9615 </r>
       <r>    12.1372     1.9480    11.0845 </r>
       <r>    12.2003    -0.1623    11.0743 </r>
       <r>    12.2635    -0.0031    11.0741 </r>
       <r>    12.3266     0.0000    11.0741 </r>
       <r>    12.3898    -0.0116    11.0733 </r>
       <r>    12.4529    -0.0714    11.0688 </r>
       <r>    12.5161     2.6319    11.2350 </r>
       <r>    12.5792     1.0320    11.3002 </r>
       <r>    12.6424     0.4876    11.3310 </r>
       <r>    12.7055     0.3508    11.3531 </r>
       <r>    12.7687     0.1902    11.3651 </r>
       <r>    12.8318     0.0905    11.3709 </r>
       <r>    12.8950    -0.0076    11.3704 </r>
       <r>    12.9581    -0.0001    11.3704 </r>
       <r>    13.0213     0.0000    11.3704 </r>
       <r>    13.0844     0.0000    11.3704 </r>
       <r>    13.1475     0.0000    11.3704 </r>
       <r>    13.2107     0.0000    11.3704 </r>
       <r>    13.2738     0.0000    11.3704 </r>
       <r>    13.3370     0.0000    11.3704 </r>
       <r>    13.4001     0.0000    11.3704 </r>
       <r>    13.4633     0.0000    11.3704 </r>
       <r>    13.5264     0.0000    11.3704 </r>
       <r>    13.5896     0.0000    11.3704 </r>
       <r>    13.6527     0.0000    11.3704 </r>
       <r>    13.7159     0.0000    11.3704 </r>
       <r>    13.7790     0.0000    11.3704 </r>
       <r>    13.8422     0.0000    11.3704 </r>
       <r>    13.9053     0.0000    11.3704 </r>
       <r>    13.9684     0.0000    11.3704 </r>
       <r>    14.0316     0.0000    11.3704 </r>
       <r>    14.0947     0.0000    11.3704 </r>
       <r>    14.1579     0.0000    11.3704 </r>
       <r>    14.2210     0.0000    11.3704 </r>
       <r>    14.2842    -0.0001    11.3704 </r>
       <r>    14.3473    -0.0276    11.3686 </r>
       <r>    14.4105     0.2533    11.3846 </r>
       <r>    14.4736     1.4971    11.4792 </r>
       <r>    14.5368     0.0500    11.4823 </r>
       <r>    14.5999    -0.0130    11.4815 </r>
       <r>    14.6631     0.0000    11.4815 </r>
       <r>    14.7262     0.0000    11.4815 </r>
       <r>    14.7893     0.0000    11.4815 </r>
       <r>    14.8525     0.0000    11.4815 </r>
       <r>    14.9156    -0.0062    11.4811 </r>
       <r>    14.9788    -0.1142    11.4739 </r>
       <r>    15.0419     2.2428    11.6155 </r>
       <r>    15.1051     1.5104    11.7109 </r>
       <r>    15.1682    -0.1129    11.7038 </r>
       <r>    15.2314    -0.1015    11.6973 </r>
       <r>    15.2945     1.2370    11.7755 </r>
       <r>    15.3577     2.4865    11.9325 </r>
       <r>    15.4208    -0.0945    11.9265 </r>
       <r>    15.4840    -0.0092    11.9259 </r>
       <r>    15.5471    -0.0205    11.9246 </r>
       <r>    15.6103     0.2002    11.9373 </r>
       <r>    15.6734     0.9829    11.9993 </r>
       <r>    15.7365     0.0181    12.0005 </r>
       <r>    15.7997    -0.0075    12.0000 </r>
       <r>    15.8628     0.0000    12.0000 </r>
       <r>    15.9260     0.0000    12.0000 </r>
       <r>    15.9891     0.0000    12.0000 </r>
       <r>    16.0523     0.0000    12.0000 </r>
       <r>    16.1154     0.0000    12.0000 </r>
       <r>    16.1786     0.0000    12.0000 </r>
       <r>    16.2417     0.0000    12.0000 </r>
       <r>    16.3049     0.0000    12.0000 </r>
       <r>    16.3680     0.0000    12.0000 </r>
       <r>    16.4312     0.0000    12.0000 </r>
       <r>    16.4943     0.0000    12.0000 </r>
      </set>
     </set>
    </array>
   </total>
  </dos>
 </calculation>
 <structure name="finalpos" >
  <crystal>
   <varray name="basis" >
    <v>       2.86654409       0.00000000       0.00000000 </v>
    <v>      -0.95551470       2.70260368       0.00000000 </v>
    <v>      -0.95551470      -1.35130184       2.34052345 </v>
   </varray>
   <i name="volume">     18.13234550 </i>
   <varray name="rec_basis" >
    <v>       0.34885213       0.12333785       0.21362743 </v>
    <v>       0.00000000       0.37001356       0.21362743 </v>
    <v>       0.00000000       0.00000000       0.42725485 </v>
   </varray>
  </crystal>
  <varray name="positions" >
   <v>       0.00000000       0.00000000       0.00000000 </v>
  </varray>
 </structure>
</modeling>
