   4   4   1   0
  0.8797333E+01  0.2461200E-09  0.2461200E-09  0.6707900E-09  0.5000000E-15
  1.000000000000000E-004
  CAR 
 unknown system                          
     20.41790874    -16.66646866  301      4.70918460      1.00000000
    -16.666  0.0000E+00  0.0000E+00  0.0000E+00  0.0000E+00
    -16.543  0.0000E+00  0.0000E+00  0.0000E+00  0.0000E+00
    -16.419  0.0000E+00  0.0000E+00  0.0000E+00  0.0000E+00
    -16.296  0.0000E+00  0.0000E+00  0.0000E+00  0.0000E+00
    -16.172  0.0000E+00  0.0000E+00  0.0000E+00  0.0000E+00
    -16.048  0.0000E+00  0.0000E+00  0.0000E+00  0.0000E+00
    -15.925  0.0000E+00  0.0000E+00  0.0000E+00  0.0000E+00
    -15.801  0.0000E+00  0.0000E+00  0.0000E+00  0.0000E+00
    -15.678  0.0000E+00  0.0000E+00  0.0000E+00  0.0000E+00
    -15.554  0.0000E+00  0.0000E+00  0.0000E+00  0.0000E+00
    -15.430 -0.7544E-36 -0.1147E-40 -0.9325E-37 -0.1418E-41
    -15.307 -0.2476E-19 -0.7477E-23 -0.3061E-20 -0.9243E-24
    -15.183 -0.3417E-08 -0.2089E-10 -0.4224E-09 -0.2583E-11
    -15.059 -0.1615E-02 -0.2331E-03 -0.1996E-03 -0.2881E-04
    -14.936  0.1134E+00  0.5784E-01  0.1381E-01  0.7121E-02
    -14.812  0.1374E+00  0.1601E+00  0.3079E-01  0.2691E-01
    -14.689  0.1572E+00  0.1379E+00  0.5022E-01  0.4396E-01
    -14.565  0.4329E-01  0.9480E-01  0.5557E-01  0.5568E-01
    -14.441 -0.5131E-03 -0.1047E-02  0.5551E-01  0.5555E-01
    -14.318  0.1908E+00  0.4624E-02  0.7910E-01  0.5613E-01
    -14.194  0.1051E+01  0.1068E+01  0.2090E+00  0.1882E+00
    -14.071  0.8420E+00  0.7545E+00  0.3131E+00  0.2814E+00
    -13.947  0.6208E+00  0.8894E+00  0.3899E+00  0.3914E+00
    -13.823 -0.7799E-02 -0.2022E-01  0.3889E+00  0.3889E+00
    -13.700 -0.1167E-07 -0.8652E-06  0.3889E+00  0.3889E+00
    -13.576  0.0000E+00  0.0000E+00  0.3889E+00  0.3889E+00
    -13.452 -0.2390E-34 -0.5831E-39  0.3889E+00  0.3889E+00
    -13.329 -0.4967E-18 -0.2184E-21  0.3889E+00  0.3889E+00
    -13.205 -0.4402E-07 -0.3546E-09  0.3889E+00  0.3889E+00
    -13.082 -0.1279E-01 -0.2289E-02  0.3873E+00  0.3886E+00
    -12.958  0.7805E+00  0.4361E+00  0.4838E+00  0.4425E+00
    -12.834  0.8667E+00  0.1023E+01  0.5909E+00  0.5689E+00
    -12.711  0.1063E+01  0.1081E+01  0.7223E+00  0.7025E+00
    -12.587 -0.9651E-03  0.1597E+00  0.7222E+00  0.7223E+00
    -12.464 -0.2515E-02 -0.4941E-03  0.7219E+00  0.7222E+00
    -12.340  0.4569E+00  0.1364E+00  0.7784E+00  0.7391E+00
    -12.216  0.1045E+01  0.1166E+01  0.9076E+00  0.8832E+00
    -12.093  0.1126E+01  0.1061E+01  0.1047E+01  0.1014E+01
    -11.969  0.7085E-01  0.3348E+00  0.1056E+01  0.1056E+01
    -11.845 -0.8726E-04 -0.1235E-02  0.1056E+01  0.1056E+01
    -11.722 -0.3364E-12 -0.8928E-10  0.1056E+01  0.1056E+01
    -11.598  0.0000E+00  0.0000E+00  0.1056E+01  0.1056E+01
    -11.475  0.0000E+00  0.0000E+00  0.1056E+01  0.1056E+01
    -11.351  0.0000E+00  0.0000E+00  0.1056E+01  0.1056E+01
    -11.227  0.0000E+00  0.0000E+00  0.1056E+01  0.1056E+01
    -11.104  0.0000E+00  0.0000E+00  0.1056E+01  0.1056E+01
    -10.980 -0.9908E-42 -0.1235E-46  0.1056E+01  0.1056E+01
    -10.857 -0.2343E-23 -0.4736E-27  0.1056E+01  0.1056E+01
    -10.733 -0.2475E-10 -0.8130E-13  0.1056E+01  0.1056E+01
    -10.609 -0.1106E-02 -0.6201E-04  0.1055E+01  0.1056E+01
    -10.486  0.4895E+00  0.4155E-01  0.1116E+01  0.1061E+01
    -10.362  0.2524E+01  0.2527E+01  0.1428E+01  0.1373E+01
    -10.239  0.2389E+01  0.2495E+01  0.1723E+01  0.1681E+01
    -10.115 -0.7686E-02  0.3308E+00  0.1722E+01  0.1722E+01
     -9.991 -0.2579E-04 -0.5662E-03  0.1722E+01  0.1722E+01
     -9.868 -0.6121E-11 -0.6571E-11  0.1722E+01  0.1722E+01
     -9.744 -0.3272E-03 -0.2455E-04  0.1722E+01  0.1722E+01
     -9.620  0.1479E+00  0.1701E-01  0.1740E+01  0.1724E+01
     -9.497  0.1163E+01  0.9957E+00  0.1884E+01  0.1847E+01
     -9.373  0.3752E-01  0.3373E+00  0.1889E+01  0.1889E+01
     -9.250 -0.4617E-04 -0.1704E-02  0.1889E+01  0.1889E+01
     -9.126 -0.9740E-13 -0.2194E-09  0.1889E+01  0.1889E+01
     -9.002 -0.2697E-34 -0.2659E-36  0.1889E+01  0.1889E+01
     -8.879 -0.6032E-18 -0.2052E-19  0.1889E+01  0.1889E+01
     -8.755 -0.5700E-07 -0.6807E-08  0.1889E+01  0.1889E+01
     -8.632 -0.1532E-01 -0.7365E-02  0.1887E+01  0.1888E+01
     -8.508  0.9309E+00  0.6650E+00  0.2002E+01  0.1970E+01
     -8.384  0.4356E+00  0.7017E+00  0.2056E+01  0.2057E+01
     -8.261 -0.2884E-02 -0.1107E-01  0.2056E+01  0.2056E+01
     -8.137 -0.2870E-07 -0.1537E-05  0.2056E+01  0.2056E+01
     -8.013 -0.9023E-02 -0.7297E-02  0.2054E+01  0.2055E+01
     -7.890  0.9584E+00  0.3950E+00  0.2173E+01  0.2103E+01
     -7.766  0.7199E+00  0.1404E+01  0.2262E+01  0.2277E+01
     -7.643  0.1289E+00  0.6392E-02  0.2278E+01  0.2278E+01
     -7.519 -0.4723E-03 -0.4121E-04  0.2278E+01  0.2278E+01
     -7.395 -0.3099E-10 -0.1471E-12  0.2278E+01  0.2278E+01
     -7.272 -0.8576E-46  0.0000E+00  0.2278E+01  0.2278E+01
     -7.148 -0.2215E-26 -0.1281E-29  0.2278E+01  0.2278E+01
     -7.025 -0.2544E-12 -0.1496E-14  0.2278E+01  0.2278E+01
     -6.901 -0.1279E-03 -0.7725E-05  0.2278E+01  0.2278E+01
     -6.777  0.1032E+00 -0.5510E-01  0.2291E+01  0.2271E+01
     -6.654  0.3400E+01  0.2923E+01  0.2711E+01  0.2632E+01
     -6.530  0.1916E+01  0.2582E+01  0.2948E+01  0.2952E+01
     -6.406 -0.2644E-01 -0.5720E-01  0.2944E+01  0.2944E+01
     -6.283 -0.4939E-07 -0.1651E-05  0.2944E+01  0.2944E+01
     -6.159 -0.1035E-16 -0.9027E-18  0.2944E+01  0.2944E+01
     -6.036 -0.4109E-06 -0.9554E-07  0.2944E+01  0.2944E+01
     -5.912 -0.2987E-01 -0.2293E-01  0.2941E+01  0.2942E+01
     -5.788  0.9586E+00  0.9354E+00  0.3059E+01  0.3057E+01
     -5.665 -0.2985E-01 -0.1359E-01  0.3056E+01  0.3056E+01
     -5.541 -0.2167E-05 -0.7831E-05  0.3056E+01  0.3056E+01
     -5.418 -0.1002E-34 -0.3734E-38  0.3056E+01  0.3056E+01
     -5.294 -0.2962E-18 -0.9415E-21  0.3056E+01  0.3056E+01
     -5.170 -0.3883E-07 -0.1072E-08  0.3056E+01  0.3056E+01
     -5.047 -0.1604E-01 -0.4542E-02  0.3054E+01  0.3055E+01
     -4.923  0.1077E+01  0.7003E+00  0.3187E+01  0.3142E+01
     -4.799  0.1653E+01  0.1905E+01  0.3391E+01  0.3377E+01
     -4.676 -0.1696E-01  0.9579E-01  0.3389E+01  0.3389E+01
     -4.552 -0.1036E-04 -0.1215E-03  0.3389E+01  0.3389E+01
     -4.429  0.0000E+00 -0.4328E-12  0.3389E+01  0.3389E+01
     -4.305 -0.3349E-35 -0.3153E-46  0.3389E+01  0.3389E+01
     -4.181 -0.7153E-19 -0.5162E-27  0.3389E+01  0.3389E+01
     -4.058 -0.5997E-08 -0.3597E-13  0.3389E+01  0.3389E+01
     -3.934 -0.1053E-02 -0.9105E-05  0.3389E+01  0.3389E+01
     -3.811  0.3672E-01  0.8289E-02  0.3393E+01  0.3390E+01
     -3.687  0.7934E-01  0.5997E-01  0.3403E+01  0.3397E+01
     -3.563 -0.2715E-02  0.4426E-01  0.3403E+01  0.3403E+01
     -3.440 -0.8134E-02 -0.2019E-01  0.3402E+01  0.3400E+01
     -3.316  0.2854E+01  0.2183E+01  0.3755E+01  0.3670E+01
     -3.192  0.2657E+01  0.3366E+01  0.4083E+01  0.4086E+01
     -3.069  0.2029E+00 -0.9537E-01  0.4108E+01  0.4074E+01
     -2.945  0.3058E+01  0.2969E+01  0.4486E+01  0.4441E+01
     -2.822  0.1512E+00  0.5285E+00  0.4505E+01  0.4507E+01
     -2.698 -0.1551E-01 -0.1790E-01  0.4503E+01  0.4505E+01
     -2.574  0.4791E+00  0.2166E+00  0.4562E+01  0.4531E+01
     -2.451  0.4379E-01  0.2316E+00  0.4567E+01  0.4560E+01
     -2.327  0.1628E-01  0.7909E-01  0.4569E+01  0.4570E+01
     -2.204  0.1557E+00 -0.1281E-01  0.4589E+01  0.4568E+01
     -2.080  0.3088E+00  0.4619E+00  0.4627E+01  0.4625E+01
     -1.956  0.5934E-01  0.6566E-01  0.4634E+01  0.4633E+01
     -1.833  0.3853E-01  0.1964E-01  0.4639E+01  0.4636E+01
     -1.709  0.6473E+00  0.1586E+00  0.4719E+01  0.4655E+01
     -1.585  0.3907E+01  0.4453E+01  0.5202E+01  0.5206E+01
     -1.462  0.1288E+00 -0.9077E-01  0.5218E+01  0.5195E+01
     -1.338  0.5226E+00  0.3125E+00  0.5282E+01  0.5233E+01
     -1.215  0.4091E+00  0.7001E+00  0.5333E+01  0.5320E+01
     -1.091  0.5537E+00  0.1038E+00  0.5401E+01  0.5333E+01
     -0.967  0.2879E+01  0.3425E+01  0.5757E+01  0.5756E+01
     -0.844 -0.6048E-01 -0.4878E-01  0.5750E+01  0.5750E+01
     -0.720  0.1781E+00 -0.5440E-02  0.5772E+01  0.5749E+01
     -0.597  0.1830E+01  0.1037E+01  0.5998E+01  0.5878E+01
     -0.473  0.1836E+01  0.2836E+01  0.6225E+01  0.6228E+01
     -0.349  0.3436E+00 -0.5963E-01  0.6267E+01  0.6221E+01
     -0.226  0.2798E+00  0.4639E+00  0.6302E+01  0.6278E+01
     -0.102  0.2544E+00  0.4501E+00  0.6333E+01  0.6334E+01
      0.022  0.1636E+00 -0.1298E-01  0.6354E+01  0.6332E+01
      0.145  0.5116E+00  0.4476E+00  0.6417E+01  0.6387E+01
      0.269  0.2683E+00  0.4639E+00  0.6450E+01  0.6445E+01
      0.392  0.1665E+00  0.1903E+00  0.6471E+01  0.6468E+01
      0.516  0.4080E+00  0.3111E-01  0.6521E+01  0.6472E+01
      0.640  0.2801E+01  0.3116E+01  0.6867E+01  0.6857E+01
      0.763 -0.5098E-01  0.2958E-01  0.6861E+01  0.6861E+01
      0.887  0.4535E+00  0.2239E+00  0.6917E+01  0.6889E+01
      1.010  0.2280E+00  0.2980E+00  0.6945E+01  0.6926E+01
      1.134 -0.6817E-02  0.1535E+00  0.6944E+01  0.6945E+01
      1.258 -0.9767E-03 -0.7363E-03  0.6944E+01  0.6944E+01
      1.381  0.2465E+00 -0.1599E-01  0.6975E+01  0.6942E+01
      1.505  0.1121E+01  0.6668E+00  0.7113E+01  0.7025E+01
      1.628 -0.6156E-01  0.6954E+00  0.7106E+01  0.7111E+01
      1.752  0.1813E+01  0.1118E+01  0.7330E+01  0.7249E+01
      1.876  0.2496E-01  0.6813E+00  0.7333E+01  0.7333E+01
      1.999  0.6074E+00  0.1282E+00  0.7408E+01  0.7349E+01
      2.123  0.7357E+00  0.1075E+01  0.7499E+01  0.7482E+01
      2.247  0.1060E+00  0.2657E+00  0.7512E+01  0.7515E+01
      2.370  0.1020E+01  0.8576E-02  0.7638E+01  0.7516E+01
      2.494  0.3260E+00  0.1133E+01  0.7678E+01  0.7656E+01
      2.617  0.1045E+01  0.1759E+00  0.7808E+01  0.7678E+01
      2.741  0.6641E+00  0.1268E+01  0.7890E+01  0.7834E+01
      2.865 -0.6495E-02  0.4544E+00  0.7889E+01  0.7891E+01
      2.988 -0.4085E-05 -0.1376E-01  0.7889E+01  0.7889E+01
      3.112  0.0000E+00 -0.1124E-06  0.7889E+01  0.7889E+01
      3.235  0.0000E+00  0.0000E+00  0.7889E+01  0.7889E+01
      3.359  0.0000E+00  0.0000E+00  0.7889E+01  0.7889E+01
      3.483  0.0000E+00  0.0000E+00  0.7889E+01  0.7889E+01
      3.606  0.0000E+00 -0.2712E-31  0.7889E+01  0.7889E+01
      3.730 -0.4042E-29 -0.5212E-16  0.7889E+01  0.7889E+01
      3.854 -0.1641E-14 -0.3745E-06  0.7889E+01  0.7889E+01
      3.977 -0.2552E-05 -0.2036E-02  0.7889E+01  0.7889E+01
      4.101  0.2578E-02  0.1361E+00  0.7889E+01  0.7905E+01
      4.224  0.1676E+00  0.9032E-01  0.7910E+01  0.7917E+01
      4.348  0.5288E-01  0.1131E+00  0.7916E+01  0.7931E+01
      4.472  0.1316E+00  0.3707E-01  0.7933E+01  0.7935E+01
      4.595  0.7308E+00 -0.5325E-02  0.8023E+01  0.7935E+01
      4.719  0.1853E+00  0.1594E+00  0.8046E+01  0.7954E+01
      4.842  0.1564E+00  0.3270E+00  0.8065E+01  0.7995E+01
      4.966 -0.4024E-02  0.5783E+00  0.8065E+01  0.8066E+01
      5.090  0.2091E-01  0.1412E+00  0.8067E+01  0.8084E+01
      5.213  0.1302E+00 -0.7280E-02  0.8083E+01  0.8083E+01
      5.337 -0.4733E-02  0.1623E+00  0.8083E+01  0.8103E+01
      5.461  0.1638E+00  0.6878E-01  0.8103E+01  0.8111E+01
      5.584  0.6531E-01 -0.1247E-02  0.8111E+01  0.8111E+01
      5.708 -0.8661E-03 -0.1594E-08  0.8111E+01  0.8111E+01
      5.831 -0.5191E-09 -0.9425E-28  0.8111E+01  0.8111E+01
      5.955 -0.2958E-12 -0.2264E-13  0.8111E+01  0.8111E+01
      6.079 -0.8675E-04 -0.2080E-04  0.8111E+01  0.8111E+01
      6.202  0.8670E-01  0.1917E-01  0.8122E+01  0.8113E+01
      6.326  0.5447E+00  0.5509E+00  0.8189E+01  0.8182E+01
      6.449  0.1538E+00  0.2055E+00  0.8208E+01  0.8207E+01
      6.573  0.2028E+00  0.6183E-02  0.8233E+01  0.8208E+01
      6.697  0.1594E-01  0.2291E+00  0.8235E+01  0.8236E+01
      6.820  0.2388E+00 -0.7896E-02  0.8265E+01  0.8235E+01
      6.944  0.1352E+01  0.4392E+00  0.8432E+01  0.8289E+01
      7.068  0.1000E+01  0.1319E+01  0.8555E+01  0.8452E+01
      7.191  0.3084E+00  0.8367E+00  0.8594E+01  0.8556E+01
      7.315  0.5758E+00  0.8236E+00  0.8665E+01  0.8658E+01
      7.438  0.9033E+00  0.4935E-01  0.8776E+01  0.8664E+01
      7.562  0.5445E+00  0.9334E+00  0.8844E+01  0.8779E+01
      7.686  0.8292E+00  0.9240E+00  0.8946E+01  0.8893E+01
      7.809 -0.1475E-01  0.4167E+00  0.8944E+01  0.8945E+01
      7.933 -0.1303E-06 -0.3693E-02  0.8944E+01  0.8944E+01
      8.056  0.0000E+00 -0.1173E-08  0.8944E+01  0.8944E+01
      8.180  0.0000E+00  0.0000E+00  0.8944E+01  0.8944E+01
      8.304  0.0000E+00  0.0000E+00  0.8944E+01  0.8944E+01
      8.427  0.0000E+00  0.0000E+00  0.8944E+01  0.8944E+01
      8.551 -0.8711E-32 -0.5507E-37  0.8944E+01  0.8944E+01
      8.675 -0.1910E-16 -0.3686E-20  0.8944E+01  0.8944E+01
      8.798 -0.1571E-06 -0.9867E-09  0.8944E+01  0.8944E+01
      8.922 -0.1058E-02 -0.6648E-03  0.8944E+01  0.8944E+01
      9.045  0.3964E-01  0.3727E-01  0.8949E+01  0.8949E+01
      9.169 -0.1265E-01  0.2435E-03  0.8948E+01  0.8949E+01
      9.293  0.6918E+00  0.1628E+00  0.9033E+01  0.8969E+01
      9.416  0.4857E+00  0.5864E+00  0.9093E+01  0.9042E+01
      9.540  0.1721E-01  0.4620E+00  0.9095E+01  0.9099E+01
      9.663  0.4793E+00  0.7184E-01  0.9155E+01  0.9108E+01
      9.787  0.1251E+00  0.3987E+00  0.9170E+01  0.9157E+01
      9.911  0.5454E+00  0.2870E+00  0.9237E+01  0.9192E+01
     10.034  0.2553E+00  0.3483E+00  0.9269E+01  0.9235E+01
     10.158  0.8786E+00  0.7713E+00  0.9378E+01  0.9331E+01
     10.282  0.4825E-01  0.3900E+00  0.9384E+01  0.9379E+01
     10.405  0.5420E-02  0.4287E-01  0.9384E+01  0.9384E+01
     10.529 -0.4200E-05 -0.2031E-03  0.9384E+01  0.9384E+01
     10.652 -0.4872E-07 -0.1253E-10  0.9384E+01  0.9384E+01
     10.776 -0.9674E-02 -0.8719E-05  0.9383E+01  0.9384E+01
     10.900  0.5912E+00 -0.5362E-02  0.9456E+01  0.9384E+01
     11.023  0.8917E+00  0.8038E+00  0.9566E+01  0.9483E+01
     11.147  0.5540E+00  0.8316E+00  0.9635E+01  0.9586E+01
     11.270  0.5842E+00  0.4541E+00  0.9707E+01  0.9642E+01
     11.394  0.6538E+00  0.7126E+00  0.9788E+01  0.9730E+01
     11.518  0.1048E+00  0.5800E+00  0.9801E+01  0.9802E+01
     11.641  0.5523E-01  0.1062E-01  0.9808E+01  0.9803E+01
     11.765  0.4857E+00  0.4819E+00  0.9868E+01  0.9863E+01
     11.889 -0.2160E-01  0.2519E-01  0.9865E+01  0.9866E+01
     12.012  0.3131E+00  0.1489E+00  0.9904E+01  0.9884E+01
     12.136  0.5416E+00  0.6202E+00  0.9971E+01  0.9961E+01
     12.259  0.6641E+00  0.3574E+00  0.1005E+02  0.1000E+02
     12.383  0.1331E+01  0.1274E+01  0.1022E+02  0.1016E+02
     12.507  0.1486E+01  0.1423E+01  0.1040E+02  0.1034E+02
     12.630  0.6166E+00  0.1145E+01  0.1048E+02  0.1048E+02
     12.754  0.6442E-01 -0.1866E-01  0.1049E+02  0.1048E+02
     12.877  0.5998E+00  0.5252E+00  0.1056E+02  0.1054E+02
     13.001  0.1751E+00  0.1197E+00  0.1058E+02  0.1056E+02
     13.125  0.1586E+01  0.1676E+01  0.1078E+02  0.1076E+02
     13.248  0.1937E+01  0.1942E+01  0.1102E+02  0.1100E+02
     13.372 -0.2844E-01  0.7480E-01  0.1101E+02  0.1101E+02
     13.495  0.4398E+00  0.2038E+00  0.1107E+02  0.1104E+02
     13.619  0.1133E-01  0.2392E+00  0.1107E+02  0.1107E+02
     13.743  0.4646E+00  0.4425E+00  0.1113E+02  0.1112E+02
     13.866  0.2805E+00  0.1515E+00  0.1116E+02  0.1114E+02
     13.990  0.8863E+00  0.5255E+00  0.1127E+02  0.1121E+02
     14.114  0.5709E+00  0.4555E+00  0.1134E+02  0.1126E+02
     14.237  0.4924E+00  0.7921E+00  0.1140E+02  0.1136E+02
     14.361  0.9024E+00  0.6388E+00  0.1151E+02  0.1144E+02
     14.484  0.4377E+00  0.1014E+01  0.1157E+02  0.1157E+02
     14.608  0.1927E+01  0.1068E+01  0.1181E+02  0.1170E+02
     14.732  0.3473E+01  0.3363E+01  0.1224E+02  0.1211E+02
     14.855  0.1213E+01  0.2001E+01  0.1239E+02  0.1236E+02
     14.979  0.1761E+01  0.1922E+01  0.1260E+02  0.1260E+02
     15.102  0.4909E+00  0.1639E+00  0.1266E+02  0.1262E+02
     15.226  0.1188E+01  0.1492E+01  0.1281E+02  0.1280E+02
     15.350  0.1308E+01  0.9322E+00  0.1297E+02  0.1292E+02
     15.473  0.5169E+00  0.8856E+00  0.1304E+02  0.1303E+02
     15.597  0.1953E+00  0.3040E+00  0.1306E+02  0.1307E+02
     15.721  0.2336E+00  0.2288E+00  0.1309E+02  0.1309E+02
     15.844  0.3982E+00 -0.4303E-01  0.1314E+02  0.1309E+02
     15.968  0.1141E+01  0.1512E+01  0.1328E+02  0.1328E+02
     16.091  0.1421E+00  0.1349E+00  0.1330E+02  0.1329E+02
     16.215  0.3293E-01  0.9759E-01  0.1330E+02  0.1330E+02
     16.339  0.1214E+01  0.7772E+00  0.1345E+02  0.1340E+02
     16.462  0.8643E+00  0.1168E+01  0.1356E+02  0.1354E+02
     16.586 -0.1706E-01  0.9183E-01  0.1356E+02  0.1356E+02
     16.709 -0.7502E-02 -0.1077E-03  0.1355E+02  0.1356E+02
     16.833  0.3961E+00  0.1755E-01  0.1360E+02  0.1356E+02
     16.957  0.9934E+00  0.1329E+01  0.1373E+02  0.1372E+02
     17.080  0.4787E+00  0.5031E+00  0.1379E+02  0.1378E+02
     17.204  0.5713E+00  0.3146E+00  0.1386E+02  0.1382E+02
     17.328  0.3433E+00  0.3808E+00  0.1390E+02  0.1387E+02
     17.451  0.1561E+00  0.2201E+00  0.1392E+02  0.1390E+02
     17.575  0.6484E-01  0.2382E+00  0.1393E+02  0.1393E+02
     17.698 -0.4286E-02  0.8245E-01  0.1393E+02  0.1394E+02
     17.822  0.3121E+00  0.9755E-01  0.1396E+02  0.1395E+02
     17.946 -0.8297E-02  0.1128E+00  0.1396E+02  0.1396E+02
     18.069 -0.1271E-06 -0.6848E-03  0.1396E+02  0.1396E+02
     18.193 -0.6015E-12 -0.1139E-08  0.1396E+02  0.1396E+02
     18.316 -0.7366E-04 -0.1739E-02  0.1396E+02  0.1396E+02
     18.440  0.4890E-01  0.1392E+00  0.1397E+02  0.1398E+02
     18.564  0.9975E-01  0.1239E-01  0.1398E+02  0.1398E+02
     18.687  0.1381E+00 -0.1690E-02  0.1400E+02  0.1398E+02
     18.811  0.1299E-01  0.1551E+00  0.1400E+02  0.1400E+02
     18.935 -0.1010E-04 -0.3641E-02  0.1400E+02  0.1400E+02
     19.058  0.0000E+00 -0.1254E-07  0.1400E+02  0.1400E+02
     19.182  0.0000E+00  0.0000E+00  0.1400E+02  0.1400E+02
     19.305  0.0000E+00  0.0000E+00  0.1400E+02  0.1400E+02
     19.429  0.0000E+00  0.0000E+00  0.1400E+02  0.1400E+02
     19.553  0.0000E+00  0.0000E+00  0.1400E+02  0.1400E+02
     19.676  0.0000E+00  0.0000E+00  0.1400E+02  0.1400E+02
     19.800  0.0000E+00  0.0000E+00  0.1400E+02  0.1400E+02
     19.923  0.0000E+00  0.0000E+00  0.1400E+02  0.1400E+02
     20.047  0.0000E+00  0.0000E+00  0.1400E+02  0.1400E+02
     20.171  0.0000E+00  0.0000E+00  0.1400E+02  0.1400E+02
     20.294  0.0000E+00  0.0000E+00  0.1400E+02  0.1400E+02
     20.418  0.0000E+00  0.0000E+00  0.1400E+02  0.1400E+02
     20.41790874    -16.66646866  301      4.70918460      1.00000000
    -16.666  0.0000E+00  0.0000E+00  0.0000E+00  0.0000E+00  0.0000E+00  0.0000E+00  0.0000E+00  0.0000E+00  0.0000E+00  0.0000E+00  0.0000E+00  0.0000E+00  0.0000E+00  0.0000E+00  0.0000E+00  0.0000E+00  0.0000E+00  0.0000E+00
    -16.543  0.0000E+00  0.0000E+00  0.0000E+00  0.0000E+00  0.0000E+00  0.0000E+00  0.0000E+00  0.0000E+00  0.0000E+00  0.0000E+00  0.0000E+00  0.0000E+00  0.0000E+00  0.0000E+00  0.0000E+00  0.0000E+00  0.0000E+00  0.0000E+00
    -16.419  0.0000E+00  0.0000E+00  0.0000E+00  0.0000E+00  0.0000E+00  0.0000E+00  0.0000E+00  0.0000E+00  0.0000E+00  0.0000E+00  0.0000E+00  0.0000E+00  0.0000E+00  0.0000E+00  0.0000E+00  0.0000E+00  0.0000E+00  0.0000E+00
    -16.296  0.0000E+00  0.0000E+00  0.0000E+00  0.0000E+00  0.0000E+00  0.0000E+00  0.0000E+00  0.0000E+00  0.0000E+00  0.0000E+00  0.0000E+00  0.0000E+00  0.0000E+00  0.0000E+00  0.0000E+00  0.0000E+00  0.0000E+00  0.0000E+00
    -16.172  0.0000E+00  0.0000E+00  0.0000E+00  0.0000E+00  0.0000E+00  0.0000E+00  0.0000E+00  0.0000E+00  0.0000E+00  0.0000E+00  0.0000E+00  0.0000E+00  0.0000E+00  0.0000E+00  0.0000E+00  0.0000E+00  0.0000E+00  0.0000E+00
    -16.048  0.0000E+00  0.0000E+00  0.0000E+00  0.0000E+00  0.0000E+00  0.0000E+00  0.0000E+00  0.0000E+00  0.0000E+00  0.0000E+00  0.0000E+00  0.0000E+00  0.0000E+00  0.0000E+00  0.0000E+00  0.0000E+00  0.0000E+00  0.0000E+00
    -15.925  0.0000E+00  0.0000E+00  0.0000E+00  0.0000E+00  0.0000E+00  0.0000E+00  0.0000E+00  0.0000E+00  0.0000E+00  0.0000E+00  0.0000E+00  0.0000E+00  0.0000E+00  0.0000E+00  0.0000E+00  0.0000E+00  0.0000E+00  0.0000E+00
    -15.801  0.0000E+00  0.0000E+00  0.0000E+00  0.0000E+00  0.0000E+00  0.0000E+00  0.0000E+00  0.0000E+00  0.0000E+00  0.0000E+00  0.0000E+00  0.0000E+00  0.0000E+00  0.0000E+00  0.0000E+00  0.0000E+00  0.0000E+00  0.0000E+00
    -15.678  0.0000E+00  0.0000E+00  0.0000E+00  0.0000E+00  0.0000E+00  0.0000E+00  0.0000E+00  0.0000E+00  0.0000E+00  0.0000E+00  0.0000E+00  0.0000E+00  0.0000E+00  0.0000E+00  0.0000E+00  0.0000E+00  0.0000E+00  0.0000E+00
    -15.554  0.0000E+00  0.0000E+00  0.0000E+00  0.0000E+00  0.0000E+00  0.0000E+00  0.0000E+00  0.0000E+00  0.0000E+00  0.0000E+00  0.0000E+00  0.0000E+00  0.0000E+00  0.0000E+00  0.0000E+00  0.0000E+00  0.0000E+00  0.0000E+00
    -15.430 -0.1203E-36 -0.1813E-41 -0.1808E-51 -0.1306E-56 -0.9523E-44 -0.9045E-49 -0.4782E-51 -0.5022E-56  0.0000E+00  0.0000E+00  0.0000E+00  0.0000E+00  0.0000E+00  0.0000E+00  0.0000E+00  0.0000E+00  0.0000E+00  0.0000E+00
    -15.307 -0.3948E-20 -0.1182E-23 -0.5938E-35 -0.8463E-39 -0.2038E-26 -0.3835E-30 -0.1585E-34 -0.3255E-38  0.0000E+00  0.0000E+00  0.0000E+00  0.0000E+00  0.0000E+00  0.0000E+00  0.0000E+00  0.0000E+00  0.0000E+00  0.0000E+00
    -15.183 -0.5448E-09 -0.3303E-11 -0.8226E-24 -0.2277E-26 -0.1773E-14 -0.6838E-17 -0.2316E-23 -0.8765E-26  0.0000E+00  0.0000E+00  0.0000E+00  0.0000E+00  0.0000E+00  0.0000E+00  0.0000E+00  0.0000E+00  0.0000E+00  0.0000E+00
    -15.059 -0.2577E-03 -0.3686E-04 -0.3968E-18 -0.2020E-19 -0.4539E-08 -0.4235E-09 -0.1402E-17 -0.7806E-19  0.0000E+00  0.0000E+00  0.0000E+00  0.0000E+00  0.0000E+00  0.0000E+00  0.0000E+00  0.0000E+00  0.0000E+00  0.0000E+00
    -14.936  0.1810E-01  0.9147E-02  0.2832E-16  0.3218E-17  0.5736E-06  0.1481E-06  0.1041E-15  0.1377E-16  0.0000E+00  0.0000E+00  0.0000E+00  0.0000E+00  0.0000E+00  0.0000E+00  0.0000E+00  0.0000E+00  0.0000E+00  0.0000E+00
    -14.812  0.2216E-01  0.2550E-01  0.5711E-16  0.2588E-16  0.3146E-05  0.2578E-05  0.1706E-15  0.6130E-16  0.0000E+00  0.0000E+00  0.0000E+00  0.0000E+00  0.0000E+00  0.0000E+00  0.0000E+00  0.0000E+00  0.0000E+00  0.0000E+00
    -14.689  0.2580E-01  0.2235E-01  0.3890E-16  0.1693E-16  0.2465E-05  0.2950E-05  0.1277E-15  0.5890E-16  0.0000E+00  0.0000E+00  0.0000E+00  0.0000E+00  0.0000E+00  0.0000E+00  0.0000E+00  0.0000E+00  0.0000E+00  0.0000E+00
    -14.565  0.7154E-02  0.1552E-01 -0.1217E-13 -0.1877E-16  0.1136E-06  0.4283E-06 -0.3651E-13 -0.5789E-16  0.0000E+00  0.0000E+00  0.0000E+00  0.0000E+00  0.0000E+00  0.0000E+00  0.0000E+00  0.0000E+00  0.0000E+00  0.0000E+00
    -14.441 -0.8067E-04 -0.1714E-03 -0.6534E-06 -0.2896E-07 -0.7953E-09 -0.2743E-08 -0.1960E-05 -0.8687E-07  0.0000E+00  0.0000E+00  0.0000E+00  0.0000E+00  0.0000E+00  0.0000E+00  0.0000E+00  0.0000E+00  0.0000E+00  0.0000E+00
    -14.318  0.2949E-01  0.7000E-03  0.3240E-03  0.7828E-05  0.2796E-06 -0.1213E-06  0.9720E-03  0.2348E-04  0.0000E+00  0.0000E+00  0.0000E+00  0.0000E+00  0.0000E+00  0.0000E+00  0.0000E+00  0.0000E+00  0.0000E+00  0.0000E+00
    -14.194  0.1633E+00  0.1640E+00  0.1795E-02  0.1838E-02  0.1329E-04  0.9367E-05  0.5386E-02  0.5515E-02  0.0000E+00  0.0000E+00  0.0000E+00  0.0000E+00  0.0000E+00  0.0000E+00  0.0000E+00  0.0000E+00  0.0000E+00  0.0000E+00
    -14.071  0.1330E+00  0.1176E+00  0.1467E-02  0.1321E-02  0.1771E-04  0.1743E-04  0.4400E-02  0.3964E-02  0.0000E+00  0.0000E+00  0.0000E+00  0.0000E+00  0.0000E+00  0.0000E+00  0.0000E+00  0.0000E+00  0.0000E+00  0.0000E+00
    -13.947  0.9910E-01  0.1404E+00  0.1094E-02  0.1581E-02  0.2936E-05  0.6534E-05  0.3283E-02  0.4743E-02  0.0000E+00  0.0000E+00  0.0000E+00  0.0000E+00  0.0000E+00  0.0000E+00  0.0000E+00  0.0000E+00  0.0000E+00  0.0000E+00
    -13.823 -0.1246E-02 -0.3196E-02 -0.1376E-04 -0.3600E-04 -0.2123E-07 -0.9417E-07 -0.4129E-04 -0.1080E-03  0.0000E+00  0.0000E+00  0.0000E+00  0.0000E+00  0.0000E+00  0.0000E+00  0.0000E+00  0.0000E+00  0.0000E+00  0.0000E+00
    -13.700 -0.1866E-08 -0.1370E-06 -0.2062E-10 -0.1543E-08 -0.4868E-14 -0.5562E-12 -0.6185E-10 -0.4630E-08  0.0000E+00  0.0000E+00  0.0000E+00  0.0000E+00  0.0000E+00  0.0000E+00  0.0000E+00  0.0000E+00  0.0000E+00  0.0000E+00
    -13.576  0.0000E+00  0.0000E+00  0.0000E+00  0.0000E+00  0.0000E+00  0.0000E+00  0.0000E+00  0.0000E+00  0.0000E+00  0.0000E+00  0.0000E+00  0.0000E+00  0.0000E+00  0.0000E+00  0.0000E+00  0.0000E+00  0.0000E+00  0.0000E+00
    -13.452 -0.3467E-35 -0.8352E-40 -0.3564E-36 -0.8799E-41 -0.5280E-42 -0.8524E-47 -0.1194E-36 -0.2950E-41  0.0000E+00  0.0000E+00  0.0000E+00  0.0000E+00  0.0000E+00  0.0000E+00  0.0000E+00  0.0000E+00  0.0000E+00  0.0000E+00
    -13.329 -0.7204E-19 -0.3128E-22 -0.7405E-20 -0.3295E-23 -0.5745E-25 -0.1673E-28 -0.2482E-20 -0.1105E-23  0.0000E+00  0.0000E+00  0.0000E+00  0.0000E+00  0.0000E+00  0.0000E+00  0.0000E+00  0.0000E+00  0.0000E+00  0.0000E+00
    -13.205 -0.6386E-08 -0.5080E-10 -0.6565E-09 -0.5353E-11 -0.2518E-13 -0.1371E-15 -0.2200E-09 -0.1794E-11  0.0000E+00  0.0000E+00  0.0000E+00  0.0000E+00  0.0000E+00  0.0000E+00  0.0000E+00  0.0000E+00  0.0000E+00  0.0000E+00
    -13.082 -0.1857E-02 -0.3280E-03 -0.1909E-03 -0.3456E-04 -0.3176E-07 -0.3815E-08 -0.6397E-04 -0.1159E-04  0.0000E+00  0.0000E+00  0.0000E+00  0.0000E+00  0.0000E+00  0.0000E+00  0.0000E+00  0.0000E+00  0.0000E+00  0.0000E+00
    -12.958  0.1134E+00  0.6251E-01  0.1166E-01  0.6588E-02  0.3629E-05  0.1104E-05  0.3908E-02  0.2209E-02  0.0000E+00  0.0000E+00  0.0000E+00  0.0000E+00  0.0000E+00  0.0000E+00  0.0000E+00  0.0000E+00  0.0000E+00  0.0000E+00
    -12.834  0.1272E+00  0.1477E+00  0.1310E-01  0.1557E-01  0.1545E-04  0.1390E-04  0.4389E-02  0.5221E-02  0.0000E+00  0.0000E+00  0.0000E+00  0.0000E+00  0.0000E+00  0.0000E+00  0.0000E+00  0.0000E+00  0.0000E+00  0.0000E+00
    -12.711  0.1585E+00  0.1588E+00  0.1633E-01  0.1677E-01  0.8618E-05  0.1141E-04  0.5474E-02  0.5621E-02  0.0000E+00  0.0000E+00  0.0000E+00  0.0000E+00  0.0000E+00  0.0000E+00  0.0000E+00  0.0000E+00  0.0000E+00  0.0000E+00
    -12.587 -0.1356E-03  0.2360E-01 -0.1394E-04  0.2493E-02 -0.1197E-06  0.1843E-06 -0.4672E-05  0.8358E-03  0.0000E+00  0.0000E+00  0.0000E+00  0.0000E+00  0.0000E+00  0.0000E+00  0.0000E+00  0.0000E+00  0.0000E+00  0.0000E+00
    -12.464 -0.3546E-03 -0.7113E-04 -0.1645E-04 -0.5823E-05 -0.4031E-08 -0.6006E-09 -0.4881E-04 -0.5631E-05  0.0000E+00  0.0000E+00  0.0000E+00  0.0000E+00  0.0000E+00  0.0000E+00  0.0000E+00  0.0000E+00  0.0000E+00  0.0000E+00
    -12.340  0.6442E-01  0.1893E-01  0.2968E-02  0.8987E-03  0.1137E-05  0.7664E-07  0.8904E-02  0.2696E-02  0.0000E+00  0.0000E+00  0.0000E+00  0.0000E+00  0.0000E+00  0.0000E+00  0.0000E+00  0.0000E+00  0.0000E+00  0.0000E+00
    -12.216  0.1485E+00  0.1626E+00  0.6838E-02  0.7719E-02  0.1345E-04  0.1044E-04  0.2051E-01  0.2316E-01  0.0000E+00  0.0000E+00  0.0000E+00  0.0000E+00  0.0000E+00  0.0000E+00  0.0000E+00  0.0000E+00  0.0000E+00  0.0000E+00
    -12.093  0.1628E+00  0.1506E+00  0.7486E-02  0.7144E-02  0.9866E-05  0.1239E-04  0.2246E-01  0.2143E-01  0.0000E+00  0.0000E+00  0.0000E+00  0.0000E+00  0.0000E+00  0.0000E+00  0.0000E+00  0.0000E+00  0.0000E+00  0.0000E+00
    -11.969  0.1030E-01  0.4788E-01  0.4736E-03  0.2269E-02 -0.2380E-07  0.6857E-06  0.1421E-02  0.6808E-02  0.0000E+00  0.0000E+00  0.0000E+00  0.0000E+00  0.0000E+00  0.0000E+00  0.0000E+00  0.0000E+00  0.0000E+00  0.0000E+00
    -11.845 -0.1267E-04 -0.1767E-03 -0.5828E-06 -0.8374E-05 -0.9365E-10 -0.1815E-08 -0.1748E-05 -0.2512E-04  0.0000E+00  0.0000E+00  0.0000E+00  0.0000E+00  0.0000E+00  0.0000E+00  0.0000E+00  0.0000E+00  0.0000E+00  0.0000E+00
    -11.722 -0.4888E-13 -0.1278E-10 -0.2247E-14 -0.6057E-12 -0.2076E-29 -0.2658E-16 -0.6742E-14 -0.1817E-11  0.0000E+00  0.0000E+00  0.0000E+00  0.0000E+00  0.0000E+00  0.0000E+00  0.0000E+00  0.0000E+00  0.0000E+00  0.0000E+00
    -11.598  0.0000E+00  0.0000E+00  0.0000E+00  0.0000E+00  0.0000E+00  0.0000E+00  0.0000E+00  0.0000E+00  0.0000E+00  0.0000E+00  0.0000E+00  0.0000E+00  0.0000E+00  0.0000E+00  0.0000E+00  0.0000E+00  0.0000E+00  0.0000E+00
    -11.475  0.0000E+00  0.0000E+00  0.0000E+00  0.0000E+00  0.0000E+00  0.0000E+00  0.0000E+00  0.0000E+00  0.0000E+00  0.0000E+00  0.0000E+00  0.0000E+00  0.0000E+00  0.0000E+00  0.0000E+00  0.0000E+00  0.0000E+00  0.0000E+00
    -11.351  0.0000E+00  0.0000E+00  0.0000E+00  0.0000E+00  0.0000E+00  0.0000E+00  0.0000E+00  0.0000E+00  0.0000E+00  0.0000E+00  0.0000E+00  0.0000E+00  0.0000E+00  0.0000E+00  0.0000E+00  0.0000E+00  0.0000E+00  0.0000E+00
    -11.227  0.0000E+00  0.0000E+00  0.0000E+00  0.0000E+00  0.0000E+00  0.0000E+00  0.0000E+00  0.0000E+00  0.0000E+00  0.0000E+00  0.0000E+00  0.0000E+00  0.0000E+00  0.0000E+00  0.0000E+00  0.0000E+00  0.0000E+00  0.0000E+00
    -11.104  0.0000E+00  0.0000E+00  0.0000E+00  0.0000E+00  0.0000E+00  0.0000E+00  0.0000E+00  0.0000E+00  0.0000E+00  0.0000E+00  0.0000E+00  0.0000E+00  0.0000E+00  0.0000E+00  0.0000E+00  0.0000E+00  0.0000E+00  0.0000E+00
    -10.980 -0.1293E-42 -0.1567E-47 -0.2411E-43 -0.3072E-48 -0.2027E-49 -0.9395E-60 -0.1793E-43 -0.2309E-48  0.0000E+00  0.0000E+00  0.0000E+00  0.0000E+00  0.0000E+00  0.0000E+00  0.0000E+00  0.0000E+00  0.0000E+00  0.0000E+00
    -10.857 -0.3057E-24 -0.6009E-28 -0.5703E-25 -0.1178E-28 -0.1870E-30 -0.2659E-34 -0.4240E-25 -0.8854E-29  0.0000E+00  0.0000E+00  0.0000E+00  0.0000E+00  0.0000E+00  0.0000E+00  0.0000E+00  0.0000E+00  0.0000E+00  0.0000E+00
    -10.733 -0.3230E-11 -0.1032E-13 -0.6024E-12 -0.2022E-14 -0.7311E-17 -0.1730E-19 -0.4478E-12 -0.1520E-14  0.0000E+00  0.0000E+00  0.0000E+00  0.0000E+00  0.0000E+00  0.0000E+00  0.0000E+00  0.0000E+00  0.0000E+00  0.0000E+00
    -10.609 -0.1444E-03 -0.7873E-05 -0.2693E-04 -0.1543E-05 -0.1053E-08 -0.4395E-10 -0.2001E-04 -0.1159E-05  0.0000E+00  0.0000E+00  0.0000E+00  0.0000E+00  0.0000E+00  0.0000E+00  0.0000E+00  0.0000E+00  0.0000E+00  0.0000E+00
    -10.486  0.6390E-01  0.5248E-02  0.1192E-01  0.1032E-02  0.4701E-06 -0.1516E-06  0.8856E-02  0.7766E-03  0.0000E+00  0.0000E+00  0.0000E+00  0.0000E+00  0.0000E+00  0.0000E+00  0.0000E+00  0.0000E+00  0.0000E+00  0.0000E+00