    4    4    1    2
  0.8797333E+01  0.2461200E-09  0.2461200E-09  0.6707900E-09  0.5000000E-15
  1.000000000000000E-004
  CAR 
 unknown system                          
   16   28   14
 
  0.0000000E+00  0.0000000E+00  0.0000000E+00  0.4629630E-02
   1      -14.980815    -14.950790
   2      -14.680233    -14.650932
   3       -3.859698     -3.793030
   4       -1.898495     -1.823001
   5        1.709700      1.721425
   6        1.709711      1.721438
   7        1.728360      1.740469
   8        1.728371      1.740482
   9        8.973415      9.007674
  10       13.081265     13.092353
  11       13.081275     13.092365
  12       13.135418     13.145953
  13       13.135428     13.145965
  14       15.750346     15.297540
 
  0.1666667E+00 -0.1387779E-16  0.0000000E+00  0.2777778E-01
   1      -14.317478    -14.287775
   2      -14.029035    -14.000004
   3       -3.056891     -2.989639
   4       -1.150224     -1.073419
   5       -0.613503     -0.597003
   6       -0.549439     -0.532910
   7        0.561549      0.573274
   8        0.601721      0.613435
   9        9.777440      9.811479
  10       13.030581     13.052883
  11       13.216183     13.233485
  12       13.896804     13.982751
  13       14.275006     14.387707
  14       15.641329     15.652107
 
  0.3333333E+00  0.0000000E+00  0.0000000E+00  0.2777778E-01
   1      -12.361446    -12.332659
   2      -12.108104    -12.079725
   3       -4.970031     -4.948402
   4       -4.836192     -4.814831
   5       -1.065995     -1.054388
   6       -1.013446     -1.002002
   7       -0.742883     -0.674493
   8        0.938556      1.021483
   9        9.214956      9.284315
  10       10.098729     10.202836
  11       12.077238     12.102341
  12       12.364330     12.413360
  13       12.763600     12.789924
  14       17.438170     17.510632
 
  0.5000000E+00 -0.2775558E-16  0.0000000E+00  0.1388889E-01
   1       -9.621405     -9.596703
   2       -9.517182     -9.477313
   3       -8.558119     -8.545717
   4       -8.480589     -8.454832
   5       -1.705482     -1.693916
   6       -1.650210     -1.638843
   7        1.921362      1.961821
   8        2.560240      2.694693
   9        6.231659      6.233932
  10        6.838509      6.977955
  11       11.959734     11.997130
  12       12.356247     12.393138
  13       16.015014     16.003418
  14       16.101153     16.183251
 
  0.1666667E+00  0.1666667E+00  0.0000000E+00  0.2777778E-01
   1      -13.007655    -12.978585
   2      -12.742723    -12.714187
   3       -3.054915     -3.034625
   4       -3.001212     -2.979037
   5       -1.696723     -1.685072
   6       -1.657544     -1.644767
   7       -1.489359     -1.421110
   8        0.288058      0.368190
   9       10.848536     10.933862
  10       11.324728     11.422807
  11       11.394560     11.428263
  12       14.678666     14.704436
  13       14.920733     14.930579
  14       16.274550     16.316871
 
  0.3333333E+00  0.1666667E+00  0.0000000E+00  0.5555556E-01
   1      -10.487888    -10.459891
   2      -10.271475    -10.243042
   3       -6.756152     -6.732932
   4       -6.609116     -6.585622
   5       -3.362405     -3.348436
   6       -3.271522     -3.257630
   7        1.375322      1.440311
   8        2.695260      2.793111
   9        6.882301      6.948176
  10        7.615068      7.709536
  11       14.430838     14.444345
  12       14.604795     14.664851
  13       15.119817     15.144248
  14       17.140706     17.215792
 
  0.3333333E+00  0.3333333E+00  0.0000000E+00  0.9259259E-02
   1       -7.942736     -7.971152
   2       -7.903352     -7.817431
   3       -7.903352     -7.817431
   4       -7.753486     -7.780836
   5       -5.841928     -5.832255
   6       -5.841928     -5.832255
   7        4.135888      4.027510
   8        4.558213      4.833632
   9        4.558213      4.833632
  10        5.490174      5.373309
  11       15.839129     15.888271
  12       15.839129     15.888271
  13       16.993088     16.943201
  14       17.238007     17.323533
 
  0.0000000E+00  0.0000000E+00  0.1666667E+00  0.9259259E-02
   1      -14.961897    -14.931915
   2      -14.701659    -14.672295
   3       -3.748491     -3.681499
   4       -2.059191     -1.984711
   5        1.711566      1.723324
   6        1.711577      1.723337
   7        1.727344      1.739444
   8        1.727355      1.739458
   9        9.312164      9.347939
  10       13.085440     13.096531
  11       13.085450     13.096543
  12       13.128997     13.139551
  13       13.129008     13.139563
  14       14.596059     14.647889
 
  0.1666667E+00 -0.1387779E-16  0.1666667E+00  0.5555556E-01
   1      -14.299273    -14.269608
   2      -14.049531    -14.020449
   3       -2.948464     -2.880849
   4       -1.305918     -1.230214
   5       -0.609142     -0.592626
   6       -0.553634     -0.537103
   7        0.564412      0.576157
   8        0.598774      0.610474
   9       10.104258     10.140067
  10       13.033367     13.056522
  11       13.202082     13.219636
  12       13.929661     14.012133
  13       14.243023     14.357138
  14       15.267776     15.330734
 
  0.3333333E+00  0.0000000E+00  0.1666667E+00  0.5555556E-01
   1      -12.345318    -12.316558
   2      -12.125980    -12.097567
   3       -4.961327     -4.939711
   4       -4.845525     -4.824148
   5       -1.062493     -1.050899
   6       -1.016949     -1.005491
   7       -0.645118     -0.576132
   8        0.805599      0.886966
   9        9.254285      9.326579
  10       10.025790     10.126985
  11       12.253054     12.275193
  12       12.424333     12.476189
  13       12.838625     12.866908
  14       16.978360     17.045092
 
  0.5000000E+00 -0.2775558E-16  0.1666667E+00  0.2777778E-01
   1       -9.613147     -9.587604
   2       -9.522596     -9.483900
   3       -8.555567     -8.542101
   4       -8.488111     -8.463065
   5       -1.701788     -1.690238
   6       -1.653729     -1.642334
   7        1.978004      2.022652
   8        2.538165      2.664816
   9        6.218884      6.231593
  10        6.752233      6.883755
  11       11.985036     12.022661
  12       12.328725     12.365921
  13       16.273779     16.261117
  14       16.284947     16.370181
 
  0.1666667E+00  0.1666667E+00  0.1666667E+00  0.5555556E-01
   1      -12.990851    -12.961815
   2      -12.761479    -12.732902
   3       -3.051242     -3.030838
   4       -3.004727     -2.982689
   5       -1.694455     -1.682714
   6       -1.660478     -1.647768
   7       -1.387218     -1.318487
   8        0.145048      0.223879
   9       10.878767     10.965245
  10       11.282678     11.385291
  11       11.702429     11.732276
  12       14.680504     14.705936
  13       14.921420     14.932822
  14       16.274146     16.322683
 
  0.3333333E+00  0.1666667E+00  0.1666667E+00  0.1111111E+00
   1      -10.473981    -10.445958
   2      -10.286599    -10.258201
   3       -6.746628     -6.723382
   4       -6.619283     -6.595799
   5       -3.356554     -3.342581
   6       -3.277829     -3.263925
   7        1.457253      1.523578
   8        2.600365      2.694742
   9        6.917076      6.985871
  10        7.555487      7.649165
  11       14.535283     14.552357
  12       14.666831     14.728972
  13       15.126707     15.149468
  14       16.854202     16.919314
 
  0.3333333E+00  0.3333333E+00  0.1666667E+00  0.1851852E-01
   1       -7.930525     -7.958876
   2       -7.902792     -7.816848
   3       -7.902792     -7.816848
   4       -7.766632     -7.794062
   5       -5.843118     -5.833444
   6       -5.843118     -5.833443
   7        4.216712      4.107940
   8        4.566731      4.842568
   9        4.566731      4.842568
  10        5.386090      5.270062
  11       15.482934     15.536236
  12       15.482935     15.536236
  13       17.195298     17.146626
  14       17.758447     17.837502
 
  0.0000000E+00  0.0000000E+00  0.3333333E+00  0.9259259E-02
   1      -14.909278    -14.879399
   2      -14.759233    -14.729725
   3       -3.434191     -3.366168
   4       -2.468471     -2.396302
   5        1.714573      1.726397
   6        1.714584      1.726410
   7        1.724057      1.736081
   8        1.724067      1.736095
   9       10.250642     10.290180
  10       13.092882     13.103847
  11       13.092893     13.103859
  12       13.119523     13.130206
  13       13.119534     13.130218
  14       13.167585     13.216852
 
  0.1666667E+00 -0.1387779E-16  0.3333333E+00  0.5555556E-01
   1      -14.248715    -14.219156
   2      -14.104650    -14.075430
   3       -2.642013     -2.573267
   4       -1.702802     -1.629573
   5       -0.597498     -0.580966
   6       -0.565371     -0.548836
   7        0.571642      0.583376
   8        0.591379      0.603093
   9       11.005763     11.046156
  10       13.013936     13.042183
  11       13.171172     13.188887
  12       13.857727     13.878026
  13       14.020311     14.159287
  14       14.268440     14.356266
 
  0.3333333E+00  0.0000000E+00  0.3333333E+00  0.5555556E-01
   1      -12.300661    -12.271968
   2      -12.174111    -12.145617
   3       -4.937354     -4.915779
   4       -4.870477     -4.849047
   5       -1.052797     -1.041226
   6       -1.026722     -1.015237
   7       -0.369585     -0.298785
   8        0.462004      0.539718
   9        9.385461      9.464563
  10        9.834524      9.929226
  11       12.385540     12.416368
  12       12.514696     12.552580
  13       13.460062     13.498287
  14       15.887502     15.943115
 
  0.5000000E+00 -0.2775558E-16  0.3333333E+00  0.2777778E-01
   1       -9.591356     -9.563390
   2       -9.538740     -9.503158
   3       -8.546456     -8.530191
   4       -8.507138     -8.484167
   5       -1.691506     -1.679984
   6       -1.663844     -1.652412
   7        2.125956      2.183585
   8        2.457645      2.563200
   9        6.229252      6.270070
  10        6.545615      6.655017
  11       12.055118     12.093127
  12       12.253782     12.291553
  13       16.764561     16.855612
  14       16.939333     16.931110
 
  0.1666667E+00  0.1666667E+00  0.3333333E+00  0.5555556E-01
   1      -12.944261    -12.915315
   2      -12.811917    -12.783233
   3       -3.041117     -3.020386
   4       -3.014256     -2.992577
   5       -1.688041     -1.676077
   6       -1.668362     -1.655836
   7       -1.099036     -1.028831
   8       -0.221868     -0.146040
   9       10.963263     11.053061
  10       11.195599     11.295401
  11       12.521728     12.556240
  12       14.586337     14.616563
  13       14.917504     14.933003
  14       15.249520     15.298930
 
  0.3333333E+00  0.1666667E+00  0.3333333E+00  0.1111111E+00
   1      -10.435570    -10.407476
   2      -10.327436    -10.299126
   3       -6.720385     -6.697071
   4       -6.646875     -6.623426
   5       -3.340417     -3.326444
   6       -3.294897     -3.280962
   7        1.685846      1.756261
   8        2.345826      2.431966
   9        7.025458      7.101472
  10        7.398319      7.488798
  11       14.633810     14.668503
  12       14.785207     14.834734
  13       15.348222     15.377536
  14       16.377727     16.434922
 
  0.3333333E+00  0.3333333E+00  0.3333333E+00  0.1851852E-01
   1       -7.901706     -7.924996
   2       -7.901706     -7.829918
   3       -7.896828     -7.815725
   4       -7.802277     -7.815725
   5       -5.845524     -5.835848
   6       -5.845524     -5.835848
   7        4.442138      4.332237
   8        4.583171      4.859842
   9        4.583171      4.859842
  10        5.113843      4.999823
  11       15.041017     15.094915
  12       15.041017     15.094915
  13       17.738912     17.692374
  14       18.658033     18.732255
 
  0.0000000E+00  0.0000000E+00  0.5000000E+00  0.4629630E-02
   1      -14.835513    -14.805812
   2      -14.835513    -14.805812
   3       -2.974411     -2.904618
   4       -2.974411     -2.904618
   5        1.719911      1.731830
   6        1.719911      1.731830
   7        1.719922      1.731843
   8        1.719922      1.731843
   9       11.608834     11.653183
  10       11.608834     11.653183
  11       13.106381     13.117203
  12       13.106381     13.117203
  13       13.106391     13.117215
  14       13.106391     13.117215
 
  0.1666667E+00 -0.1387779E-16  0.5000000E+00  0.2777778E-01
   1      -14.177825    -14.148428
   2      -14.177825    -14.148428
   3       -2.194280     -2.123609
   4       -2.194280     -2.123609
   5       -0.581583     -0.565051
   6       -0.581583     -0.565051
   7        0.581317      0.593043
   8        0.581317      0.593043
   9       12.276035     12.322663
  10       12.276035     12.322663
  11       13.178911     13.196311
  12       13.178911     13.196311
  13       14.120899     14.222920
  14       14.120900     14.222923
 
  0.3333333E+00  0.0000000E+00  0.5000000E+00  0.2777778E-01
   1      -12.238258    -12.209663
   2      -12.238258    -12.209663
   3       -4.904181     -4.882675
   4       -4.904181     -4.882675
   5       -1.039709     -1.028179
   6       -1.039709     -1.028179
   7        0.029501      0.103313
   8        0.029501      0.103313
   9        9.596619      9.683634
  10        9.596619      9.683634
  11       12.466306     12.500467
  12       12.466306     12.500467
  13       14.603864     14.649614
  14       14.603864     14.649614
 
  0.5000000E+00 -0.2775558E-16  0.5000000E+00  0.1388889E-01
   1       -9.563631     -9.532031
   2       -9.563631     -9.532031
   3       -8.529277     -8.509473
   4       -8.529277     -8.509473
   5       -1.677897     -1.666422
   6       -1.677897     -1.666422
   7        2.308883      2.388255
   8        2.308883      2.388255
   9        6.338796      6.415656
  10        6.338796      6.415656
  11       12.152890     12.190993
  12       12.152890     12.190993
  13       17.281186     17.352417
  14       17.281187     17.352417
 
  0.1666667E+00  0.1666667E+00  0.5000000E+00  0.2777778E-01
   1      -12.879039    -12.850218
   2      -12.879039    -12.850218
   3       -3.027530     -3.006334
   4       -3.027530     -3.006334
   5       -1.678595     -1.666341
   6       -1.678595     -1.666341
   7       -0.679421     -0.606769
   8       -0.679421     -0.606769
   9       11.079250     11.173916
  10       11.079250     11.173916
  11       13.664284     13.706203
  12       13.664284     13.706203
  13       14.920254     14.942184
  14       14.920254     14.942184
 
  0.3333333E+00  0.1666667E+00  0.5000000E+00  0.5555556E-01
   1      -10.382105    -10.353907
   2      -10.382105    -10.353907
   3       -6.683965     -6.660576
   4       -6.683965     -6.660576
   5       -3.317883     -3.303923
   6       -3.317883     -3.303923
   7        2.009161      2.086431
   8        2.009161      2.086431
   9        7.200640      7.284854
  10        7.200640      7.284854
  11       14.724298     14.765954
  12       14.724298     14.765954
  13       15.855440     15.900867
  14       15.855440     15.900867
 
  0.3333333E+00  0.3333333E+00  0.5000000E+00  0.9259259E-02
   1       -7.901172     -7.877959
   2       -7.901172     -7.877959
   3       -7.850048     -7.815174
   4       -7.850048     -7.815174
   5       -5.846758     -5.837080
   6       -5.846758     -5.837080
   7        4.591425      4.654721
   8        4.591425      4.654721
   9        4.766457      4.868505
  10        4.766457      4.868505
  11       14.873433     14.926951
  12       14.873433     14.926951
  13       18.450612     18.410370
  14       18.450617     18.410373
