       N       E                     dE             d eps       ncg     rms          rms(c)
DAV:   1     0.338416928679E+02    0.33842E+02   -0.75935E+03  1568   0.924E+02
DAV:   2    -0.349260799911E+02   -0.68768E+02   -0.62927E+02  2218   0.190E+02
DAV:   3    -0.376102321650E+02   -0.26842E+01   -0.26704E+01  2126   0.364E+01
DAV:   4    -0.376364440248E+02   -0.26212E-01   -0.26205E-01  1878   0.421E+00
DAV:   5    -0.376369595698E+02   -0.51555E-03   -0.51534E-03  2114   0.560E-01    0.120E+01
DAV:   6    -0.368955855516E+02    0.74137E+00   -0.21130E+00  1760   0.946E+00    0.475E+00
DAV:   7    -0.367958633649E+02    0.99722E-01   -0.11976E+00  1820   0.749E+00    0.186E+00
DAV:   8    -0.367467782524E+02    0.49085E-01   -0.23306E-01  1790   0.363E+00    0.649E-01
DAV:   9    -0.367587710358E+02   -0.11993E-01   -0.18695E-02  1808   0.126E+00    0.323E-01
DAV:  10    -0.367595200794E+02   -0.74904E-03   -0.16144E-03  1976   0.443E-01    0.122E-01
DAV:  11    -0.367598328453E+02   -0.31277E-03   -0.46805E-04  1772   0.196E-01    0.469E-02
DAV:  12    -0.367599112816E+02   -0.78436E-04   -0.11634E-04  1500   0.949E-02
   1 F= -.36759911E+02 E0= -.36759955E+02  d E =0.130209E-03  mag=     0.0910
