 vasp.5.2.12 11Nov11 complex                                                    
  
 executed on             LinuxIFC date 2012.10.17  09:53:37
 running on    1 nodes
 distr:  one band on    1 nodes,    1 groups


--------------------------------------------------------------------------------------------------------


 INCAR:
 POTCAR:   PAW_PBE C 08Apr2002                    
 POTCAR:   PAW_PBE C 08Apr2002                    
   VRHFIN =C: s2p2                                                              
   LEXCH  = PE                                                                  
   EATOM  =   147.1560 eV,   10.8157 Ry                                         
                                                                                
   TITEL  = PAW_PBE C 08Apr2002                                                 
   LULTRA =        F    use ultrasoft PP ?                                      
   IUNSCR =        0    unscreen: 0-lin 1-nonlin 2-no                           
   RPACOR =     .000    partial core radius                                     
   POMASS =   12.011; ZVAL   =    4.000    mass and valenz                      
   RCORE  =    1.500    outmost cutoff radius                                   
   RWIGS  =    1.630; RWIGS  =     .863    wigner-seitz radius (au A)           
   ENMAX  =  400.000; ENMIN  =  300.000 eV                                      
   ICORE  =        2    local potential                                         
   LCOR   =        T    correct aug charges                                     
   LPAW   =        T    paw PP                                                  
   EAUG   =  644.873                                                            
   DEXC   =     .000                                                            
   RMAX   =    2.266    core radius for proj-oper                               
   RAUG   =    1.300    factor for augmentation sphere                          
   RDEP   =    1.501    radius for radial grids                                 
   RDEPT  =    1.300    core radius for aug-charge                              
   QCUT   =   -5.516; QGAM   =   11.032    optimization parameters              
                                                                                
   Description                                                                  
     l     E      TYP  RCUT    TYP  RCUT                                        
     0   .000     23  1.200                                                     
     0   .000     23  1.200                                                     
     1   .000     23  1.500                                                     
     1  2.500     23  1.500                                                     
     2   .000      7  1.500                                                     
  local pseudopotential read in
  atomic valenz-charges read in
  non local Contribution for L=           0  read in
    real space projection operators read in
  non local Contribution for L=           0  read in
    real space projection operators read in
  non local Contribution for L=           1  read in
    real space projection operators read in
  non local Contribution for L=           1  read in
    real space projection operators read in
    PAW grid and wavefunctions read in
 
   number of l-projection  operators is LMAX  =           4
   number of lm-projection operators is LMMAX =           8
 
 PAW_PBE C 08Apr2002                    :
 energy of atom  1       EATOM= -147.1560
 kinetic energy error for atom=    0.0116 (will be added to EATOM!!)
 
 
 POSCAR:  C                                      
  positions in cartesian coordinates
  No initial velocities read in
 exchange correlation table for  LEXCH =        8
   RHO(1)=    0.500       N(1)  =     2000
   RHO(2)=  100.500       N(2)  =     4000
 


--------------------------------------------------------------------------------------------------------


 ion  position               nearest neighbor table
   1  0.000  0.000  0.000-   2 1.42   2 1.42   2 1.42
   2  0.333  0.667  0.000-   1 1.42   1 1.42   1 1.42
   3  0.333  0.667  0.500-   4 1.42   4 1.42   4 1.42
   4  0.667  0.333  0.500-   3 1.42   3 1.42   3 1.42
 
  LATTYP: Found a hexagonal cell.
 ALAT       =     2.4612000000
 C/A-ratio  =     2.7254591256
  
  Lattice vectors:
  
 A1 = (   2.4612000000,   0.0000000000,   0.0000000000)
 A2 = (  -1.2306000000,   2.1314617238,   0.0000000000)
 A3 = (   0.0000000000,   0.0000000000,   6.7079000000)
 Subroutine PRICEL returns:
 Original cell was already a primitive cell.
 

Analysis of symmetry for initial positions (statically):

 Routine SETGRP: Setting up the symmetry group for a 
 hexagonal supercell.


 Subroutine GETGRP returns: Found 24 space group operations
 (whereof 12 operations were pure point group operations)
 out of a pool of 24 trial point group operations.


The static configuration has the point symmetry D_3h.
 The point group associated with its full space group is D_6h.

Analysis of symmetry for dynamics (positions and initial velocities):

 Subroutine DYNSYM returns: Found 24 space group operations
 (whereof 12 operations were pure point group operations)
 out of a pool of 24 trial space group operations
 (whereof 12 operations were pure point group operations)
 and found also     1 'primitive' translations


The dynamic configuration has the point symmetry D_3h.
 The point group associated with its full space group is D_6h.

Analysis of magnetic symmetry:

 Subroutine MAGSYM returns: Found 24 space group operations
 (whereof 12 operations were pure point group operations)
 out of a pool of 24 trial space group operations
 (whereof 12 operations were pure point group operations)
 and found also     1 'primitive' translations


The magnetic configuration has the point symmetry D_3h.
 The point group associated with its full space group is D_6h.
 
 
 KPOINTS: KPOINTS created by Atomic Simulation Env

Automatic generation of k-mesh.
 
 Subroutine IBZKPT returns following result:
 ===========================================
 
 Found     28 irreducible k-points:
 
 Following reciprocal coordinates:
            Coordinates               Weight
  0.000000  0.000000  0.000000      1.000000
  0.166667  0.000000  0.000000      6.000000
  0.333333  0.000000  0.000000      6.000000
  0.500000  0.000000  0.000000      3.000000
  0.166667  0.166667  0.000000      6.000000
  0.333333  0.166667  0.000000     12.000000
  0.333333  0.333333  0.000000      2.000000
  0.000000  0.000000  0.166667      2.000000
  0.166667  0.000000  0.166667     12.000000
  0.333333  0.000000  0.166667     12.000000
  0.500000  0.000000  0.166667      6.000000
  0.166667  0.166667  0.166667     12.000000
  0.333333  0.166667  0.166667     24.000000
  0.333333  0.333333  0.166667      4.000000
  0.000000  0.000000  0.333333      2.000000
  0.166667  0.000000  0.333333     12.000000
  0.333333  0.000000  0.333333     12.000000
  0.500000  0.000000  0.333333      6.000000
  0.166667  0.166667  0.333333     12.000000
  0.333333  0.166667  0.333333     24.000000
  0.333333  0.333333  0.333333      4.000000
  0.000000  0.000000  0.500000      1.000000
  0.166667  0.000000  0.500000      6.000000
  0.333333  0.000000  0.500000      6.000000
  0.500000  0.000000  0.500000      3.000000
  0.166667  0.166667  0.500000      6.000000
  0.333333  0.166667  0.500000     12.000000
  0.333333  0.333333  0.500000      2.000000
 
 Following cartesian coordinates:
            Coordinates               Weight
  0.000000  0.000000  0.000000      1.000000
  0.067718  0.039097  0.000000      6.000000
  0.135435  0.078194  0.000000      6.000000
  0.203153  0.117290  0.000000      3.000000
  0.067718  0.117290  0.000000      6.000000
  0.135435  0.156387  0.000000     12.000000
  0.135435  0.234581  0.000000      2.000000
  0.000000  0.000000  0.024846      2.000000
  0.067718  0.039097  0.024846     12.000000
  0.135435  0.078194  0.024846     12.000000
  0.203153  0.117290  0.024846      6.000000
  0.067718  0.117290  0.024846     12.000000
  0.135435  0.156387  0.024846     24.000000
  0.135435  0.234581  0.024846      4.000000
  0.000000  0.000000  0.049693      2.000000
  0.067718  0.039097  0.049693     12.000000
  0.135435  0.078194  0.049693     12.000000
  0.203153  0.117290  0.049693      6.000000
  0.067718  0.117290  0.049693     12.000000
  0.135435  0.156387  0.049693     24.000000
  0.135435  0.234581  0.049693      4.000000
  0.000000  0.000000  0.074539      1.000000
  0.067718  0.039097  0.074539      6.000000
  0.135435  0.078194  0.074539      6.000000
  0.203153  0.117290  0.074539      3.000000
  0.067718  0.117290  0.074539      6.000000
  0.135435  0.156387  0.074539     12.000000
  0.135435  0.234581  0.074539      2.000000
 


--------------------------------------------------------------------------------------------------------




 Dimension of arrays:
   k-points           NKPTS =     28   k-points in BZ     NKDIM =     28   number of bands    NBANDS=     14
   number of dos      NEDOS =    301   number of ions     NIONS =      4
   non local maximal  LDIM  =      4   non local SUM 2l+1 LMDIM =      8
   total plane-waves  NPLWV =  15552
   max r-space proj   IRMAX =      1   max aug-charges    IRDMAX=   5414
   dimension x,y,z NGX =    18 NGY =   18 NGZ =   48
   dimension x,y,z NGXF=    36 NGYF=   36 NGZF=   96
   support grid    NGXF=    36 NGYF=   36 NGZF=   96
   ions per type =               4
 NGX,Y,Z   is equivalent  to a cutoff of  12.16, 12.16, 11.90 a.u.
 NGXF,Y,Z  is equivalent  to a cutoff of  24.32, 24.32, 23.79 a.u.


 I would recommend the setting:
   dimension x,y,z NGX =    17 NGY =   17 NGZ =   46
 SYSTEM =  unknown system                          
 POSCAR =   C                                      

 Startparameter for this run:
   NWRITE =      2    write-flag & timer
   PREC   = accura    normal or accurate (medium, high low for compatibility)
   ISTART =      0    job   : 0-new  1-cont  2-samecut
   ICHARG =      2    charge: 1-file 2-atom 10-const
   ISPIN  =      2    spin polarized calculation?
   LNONCOLLINEAR =      F non collinear calculations
   LSORBIT =      F    spin-orbit coupling
   INIWAV =      1    electr: 0-lowe 1-rand  2-diag
   LASPH  =      F    aspherical Exc in radial PAW
   METAGGA=      F    non-selfconsistent MetaGGA calc.

 Electronic Relaxation 1
   ENCUT  =  450.0 eV  33.07 Ry    5.75 a.u.   4.26  4.26 11.60*2*pi/ulx,y,z
   ENINI  =  450.0     initial cutoff
   ENAUG  =  644.9 eV  augmentation charge cutoff
   NELM   =     60;   NELMIN=  2; NELMDL= -5     # of ELM steps 
   EDIFF  = 0.1E-03   stopping-criterion for ELM
   LREAL  =      F    real-space projection
   NLSPLINE    = F    spline interpolate recip. space projectors
   LCOMPAT=      F    compatible to vasp.4.4
   GGA_COMPAT  = T    GGA compatible to vasp.4.4-vasp.4.6
   LMAXPAW     = -100 max onsite density
   LMAXMIX     =    2 max onsite mixed and CHGCAR
   VOSKOWN=      0    Vosko Wilk Nusair interpolation
   ROPT   =    0.00000
 Ionic relaxation
   EDIFFG = 0.1E-02   stopping-criterion for IOM
   NSW    =      0    number of steps for IOM
   NBLOCK =      1;   KBLOCK =      1    inner block; outer block 
   IBRION =     -1    ionic relax: 0-MD 1-quasi-New 2-CG
   NFREE  =      0    steps in history (QN), initial steepest desc. (CG)
   ISIF   =      2    stress and relaxation
   IWAVPR =     10    prediction:  0-non 1-charg 2-wave 3-comb
   ISYM   =      2    0-nonsym 1-usesym 2-fastsym
   LCORR  =      T    Harris-Foulkes like correction to forces

   POTIM  = 0.5000    time-step for ionic-motion
   TEIN   =    0.0    initial temperature
   TEBEG  =    0.0;   TEEND  =   0.0 temperature during run
   SMASS  =  -3.00    Nose mass-parameter (am)
   estimated Nose-frequenzy (Omega)   =  0.10E-29 period in steps =****** mass=  -0.138E-27a.u.
   SCALEE = 1.0000    scale energy and forces
   NPACO  =    256;   APACO  = 16.0  distance and # of slots for P.C.
   PSTRESS=    0.0 pullay stress

  Mass of Ions in am
   POMASS =  12.01
  Ionic Valenz
   ZVAL   =   4.00
  Atomic Wigner-Seitz radii
   RWIGS  =  -1.00
  virtual crystal weights 
   VCA    =   1.00
   NELECT =      16.0000    total number of electrons
   NUPDOWN=      -1.0000    fix difference up-down

 DOS related values:
   EMIN   =  10.00;   EMAX   =-10.00  energy-range for DOS
   EFERMI =   0.00
   ISMEAR =     1;   SIGMA  =   0.05  broadening in eV -4-tet -1-fermi 0-gaus

 Electronic relaxation 2 (details)
   IALGO  =     38    algorithm
   LDIAG  =      T    sub-space diagonalisation (order eigenvalues)
   LSUBROT=      T    optimize rotation matrix (better conditioning)
   TURBO    =      0    0=normal 1=particle mesh
   IRESTART =      0    0=no restart 2=restart with 2 vectors
   NREBOOT  =      0    no. of reboots
   NMIN     =      0    reboot dimension
   EREF     =   0.00    reference energy to select bands
   IMIX   =      4    mixing-type and parameters
     AMIX     =   0.40;   BMIX     =  1.00
     AMIX_MAG =   1.60;   BMIX_MAG =  1.00
     AMIN     =   0.10
     WC   =   100.;   INIMIX=   1;  MIXPRE=   1

 Intra band minimization:
   WEIMIN = 0.0000     energy-eigenvalue tresh-hold
   EBREAK =  0.18E-05  absolut break condition
   DEPER  =   0.30     relativ break condition  

   TIME   =   0.40     timestep for ELM

  volume/ion in A,a.u.               =       8.80        59.37
  Fermi-wavevector in a.u.,A,eV,Ry     =   1.258861  2.378903 21.561578  1.584731
  Thomas-Fermi vector in A             =   2.392450
 
 Write flags
   LWAVE  =      T    write WAVECAR
   LCHARG =      T    write CHGCAR
   LVTOT  =      F    write LOCPOT, total local potential
   LVHAR  =      F    write LOCPOT, Hartree potential only
   LELF   =      F    write electronic localiz. function (ELF)
   LORBIT =     11    0 simple, 1 ext, 2 COOP (PROOUT)


 Dipole corrections
   LMONO  =      F    monopole corrections only (constant potential shift)
   LDIPOL =      F    correct potential (dipole corrections)
   IDIPOL =      0    1-x, 2-y, 3-z, 4-all directions 
   EPSILON=  1.0000000 bulk dielectric constant

 Exchange correlation treatment:
   GGA     =    --    GGA type
   LEXCH   =     8    internal setting for exchange type
   VOSKOWN=      0    Vosko Wilk Nusair interpolation
   LHFCALC =     F    Hartree Fock is set to
   LHFONE  =     F    Hartree Fock one center treatment
   AEXX    =    0.0000 exact exchange contribution

 Linear response parameters
   LEPSILON=     F    determine dielectric tensor
   LRPA    =     F    only Hartree local field effects (RPA)
   LNABLA  =     F    use nabla operator in PAW spheres
   LVEL    =     F    velocity operator in full k-point grid
   LINTERFAST=   F  fast interpolation
   KINTER  =     0    interpolate to denser k-point grid
   CSHIFT  =0.1000    complex shift for real part using Kramers Kronig
   OMEGAMAX=  -1.0    maximum frequency
   RTIME   =    0.100 relaxation time in fs

 Orbital magnetization related:
   ORBITALMAG=     F  switch on orbital magnetization
   LCHIMAG   =     F  perturbation theory with respect to B field
   DQ        =  0.001000  dq finite difference perturbation B field



--------------------------------------------------------------------------------------------------------


 Static calculation
 charge density and potential will be updated during run
 spin polarized calculation
 Variant of blocked Davidson
 Davidson routine will perform the subspace rotation
 perform sub-space diagonalisation
    after iterative eigenvector-optimisation
 modified Broyden-mixing scheme, WC =      100.0
 initial mixing is a Kerker type mixing with AMIX =  0.4000 and BMIX =      1.0000
 Hartree-type preconditioning will be used
 using additional bands            6
 reciprocal scheme for non local part
 calculate Harris-corrections to forces 
   (improved forces if not selfconsistent)
 use gradient corrections 
 use of overlap-Matrix (Vanderbilt PP)
 Methfessel and Paxton  Order N= 1 SIGMA  =   0.05


--------------------------------------------------------------------------------------------------------


  energy-cutoff  :      450.00
  volume of cell :       35.19
      direct lattice vectors                 reciprocal lattice vectors
     2.461200000  0.000000000  0.000000000     0.406305867  0.234580802  0.000000000
    -1.230600000  2.131461724  0.000000000     0.000000000  0.469161603  0.000000000
     0.000000000  0.000000000  6.707900000     0.000000000  0.000000000  0.149077953

  length of vectors
     2.461200000  2.461200000  6.707900000     0.469161603  0.469161603  0.149077953


 
 k-points in units of 2pi/SCALE and weight: KPOINTS created by Atomic Simulation Env
   0.00000000  0.00000000  0.00000000       0.005
   0.06771764  0.03909680  0.00000000       0.028
   0.13543529  0.07819360  0.00000000       0.028
   0.20315293  0.11729040  0.00000000       0.014
   0.06771764  0.11729040  0.00000000       0.028
   0.13543529  0.15638720  0.00000000       0.056
   0.13543529  0.23458080  0.00000000       0.009
   0.00000000  0.00000000  0.02484633       0.009
   0.06771764  0.03909680  0.02484633       0.056
   0.13543529  0.07819360  0.02484633       0.056
   0.20315293  0.11729040  0.02484633       0.028
   0.06771764  0.11729040  0.02484633       0.056
   0.13543529  0.15638720  0.02484633       0.111
   0.13543529  0.23458080  0.02484633       0.019
   0.00000000  0.00000000  0.04969265       0.009
   0.06771764  0.03909680  0.04969265       0.056
   0.13543529  0.07819360  0.04969265       0.056
   0.20315293  0.11729040  0.04969265       0.028
   0.06771764  0.11729040  0.04969265       0.056
   0.13543529  0.15638720  0.04969265       0.111
   0.13543529  0.23458080  0.04969265       0.019
   0.00000000  0.00000000  0.07453898       0.005
   0.06771764  0.03909680  0.07453898       0.028
   0.13543529  0.07819360  0.07453898       0.028
   0.20315293  0.11729040  0.07453898       0.014
   0.06771764  0.11729040  0.07453898       0.028
   0.13543529  0.15638720  0.07453898       0.056
   0.13543529  0.23458080  0.07453898       0.009
 
 k-points in reciprocal lattice and weights: KPOINTS created by Atomic Simulation Env
   0.00000000  0.00000000  0.00000000       0.005
   0.16666667  0.00000000  0.00000000       0.028
   0.33333333  0.00000000  0.00000000       0.028
   0.50000000  0.00000000  0.00000000       0.014
   0.16666667  0.16666667  0.00000000       0.028
   0.33333333  0.16666667  0.00000000       0.056
   0.33333333  0.33333333  0.00000000       0.009
   0.00000000  0.00000000  0.16666667       0.009
   0.16666667  0.00000000  0.16666667       0.056
   0.33333333  0.00000000  0.16666667       0.056
   0.50000000  0.00000000  0.16666667       0.028
   0.16666667  0.16666667  0.16666667       0.056
   0.33333333  0.16666667  0.16666667       0.111
   0.33333333  0.33333333  0.16666667       0.019
   0.00000000  0.00000000  0.33333333       0.009
   0.16666667  0.00000000  0.33333333       0.056
   0.33333333  0.00000000  0.33333333       0.056
   0.50000000  0.00000000  0.33333333       0.028
   0.16666667  0.16666667  0.33333333       0.056
   0.33333333  0.16666667  0.33333333       0.111
   0.33333333  0.33333333  0.33333333       0.019
   0.00000000  0.00000000  0.50000000       0.005
   0.16666667  0.00000000  0.50000000       0.028
   0.33333333  0.00000000  0.50000000       0.028
   0.50000000  0.00000000  0.50000000       0.014
   0.16666667  0.16666667  0.50000000       0.028
   0.33333333  0.16666667  0.50000000       0.056
   0.33333333  0.33333333  0.50000000       0.009
 
 position of ions in fractional coordinates (direct lattice) 
   0.00000000  0.00000000  0.00000000
   0.33333333  0.66666667  0.00000000
   0.33333333  0.66666667  0.50000000
   0.66666667  0.33333333  0.50000000
 
 position of ions in cartesian coordinates  (Angst):
   0.00000000  0.00000000  0.00000000
   0.00000000  1.42097448  0.00000000
   0.00000000  1.42097448  3.35395000
   1.23060000  0.71048724  3.35395000
 


--------------------------------------------------------------------------------------------------------


 k-point  1 :  0.00000.00000.0000  plane waves:     785
 k-point  2 :  0.16670.00000.0000  plane waves:     767
 k-point  3 :  0.33330.00000.0000  plane waves:     754
 k-point  4 :  0.50000.00000.0000  plane waves:     772
 k-point  5 :  0.16670.16670.0000  plane waves:     756
 k-point  6 :  0.33330.16670.0000  plane waves:     760
 k-point  7 :  0.33330.33330.0000  plane waves:     768
 k-point  8 :  0.00000.00000.1667  plane waves:     779
 k-point  9 :  0.16670.00000.1667  plane waves:     766
 k-point 10 :  0.33330.00000.1667  plane waves:     761
 k-point 11 :  0.50000.00000.1667  plane waves:     764
 k-point 12 :  0.16670.16670.1667  plane waves:     761
 k-point 13 :  0.33330.16670.1667  plane waves:     764
 k-point 14 :  0.33330.33330.1667  plane waves:     762
 k-point 15 :  0.00000.00000.3333  plane waves:     779
 k-point 16 :  0.16670.00000.3333  plane waves:     763
 k-point 17 :  0.33330.00000.3333  plane waves:     761
 k-point 18 :  0.50000.00000.3333  plane waves:     756
 k-point 19 :  0.16670.16670.3333  plane waves:     761
 k-point 20 :  0.33330.16670.3333  plane waves:     767
 k-point 21 :  0.33330.33330.3333  plane waves:     765
 k-point 22 :  0.00000.00000.5000  plane waves:     768
 k-point 23 :  0.16670.00000.5000  plane waves:     764
 k-point 24 :  0.33330.00000.5000  plane waves:     758
 k-point 25 :  0.50000.00000.5000  plane waves:     768
 k-point 26 :  0.16670.16670.5000  plane waves:     754
 k-point 27 :  0.33330.16670.5000  plane waves:     766
 k-point 28 :  0.33330.33330.5000  plane waves:     768

 maximum and minimum number of plane-waves per node :       785      754

 maximum number of plane-waves:       785
 maximum index in each direction: 
   IXMAX=    4   IYMAX=    4   IZMAX=   11
   IXMIN=   -4   IYMIN=   -4   IZMIN=  -12

 NGX is ok and might be reduce to  18
 NGY is ok and might be reduce to  18
 NGZ is ok and might be reduce to  48

 serial   3D FFT for wavefunctions
 parallel 3D FFT for charge:
    minimum data exchange during FFTs selected (reduces bandwidth)


 total amount of memory used by VASP on root node    56405. kBytes
========================================================================

   base      :      30000. kBytes
   nonl-proj :       1456. kBytes
   fftplans  :       4320. kBytes
   grid      :      10357. kBytes
   one-center:         24. kBytes
   wavefun   :      10248. kBytes
 
 Broyden mixing: mesh for mixing (old mesh)
   NGX =  9   NGY =  9   NGZ = 23
  (NGX  = 36   NGY  = 36   NGZ  = 96)
  gives a total of   1863 points

 initial charge density was supplied:
 charge density of overlapping atoms calculated
 number of electron      16.0000000 magnetization       4.0000000
 keeping initial charge density in first step


--------------------------------------------------------------------------------------------------------


 Maximum index for augmentation-charges         5067 (set IRDMAX)


--------------------------------------------------------------------------------------------------------


 First call to EWALD:  gamma=   0.541
 Maximum number of real-space cells 4x 4x 2
 Maximum number of reciprocal cells 2x 2x 5

    FEWALD:  cpu time    0.00: real time    0.00


----------------------------------------- Iteration    1(   1)  ---------------------------------------


    POTLOK:  cpu time    0.39: real time    0.39
    SETDIJ:  cpu time    0.05: real time    0.05
     EDDAV:  cpu time    4.31: real time    4.31
       DOS:  cpu time    0.01: real time    0.01
    --------------------------------------------
      LOOP:  cpu time    4.75: real time    4.75

 eigenvalue-minimisations  :  1568
 total energy-change (2. order) : 0.3384169E+02  (-0.7593461E+03)
 number of electron      16.0000000 magnetization       4.0000000
 augmentation part       16.0000000 magnetization       4.0000000

 Free energy of the ion-electron system (eV)
  ---------------------------------------------------
  alpha Z        PSCENC =        37.04766603
  Ewald energy   TEWEN  =      -460.60042082
  -1/2 Hartree   DENC   =      -148.78490797
  -exchange  EXHF       =         0.00000000
  -V(xc)+E(xc)   XCENC  =        56.10990954
  PAW double counting   =       150.95130483     -155.51722924
  entropy T*S    EENTRO =        -0.00020359
  eigenvalues    EBANDS =       -33.94193985
  atomic energy  EATOM  =       588.57751394
  ---------------------------------------------------
  free energy    TOTEN  =        33.84169287 eV

  energy without entropy =       33.84189646  energy(sigma->0) =       33.84176073


--------------------------------------------------------------------------------------------------------




----------------------------------------- Iteration    1(   2)  ---------------------------------------


     EDDAV:  cpu time    5.56: real time    5.57
       DOS:  cpu time    0.00: real time    0.01
    --------------------------------------------
      LOOP:  cpu time    5.57: real time    5.57

 eigenvalue-minimisations  :  2218
 total energy-change (2. order) :-0.6876777E+02  (-0.6292740E+02)
 number of electron      16.0000000 magnetization       4.0000000
 augmentation part       16.0000000 magnetization       4.0000000

 Free energy of the ion-electron system (eV)
  ---------------------------------------------------
  alpha Z        PSCENC =        37.04766603
  Ewald energy   TEWEN  =      -460.60042082
  -1/2 Hartree   DENC   =      -148.78490797
  -exchange  EXHF       =         0.00000000
  -V(xc)+E(xc)   XCENC  =        56.10990954
  PAW double counting   =       150.95130483     -155.51722924
  entropy T*S    EENTRO =         0.00006995
  eigenvalues    EBANDS =      -102.70998626
  atomic energy  EATOM  =       588.57751394
  ---------------------------------------------------
  free energy    TOTEN  =       -34.92607999 eV

  energy without entropy =      -34.92614994  energy(sigma->0) =      -34.92610331


--------------------------------------------------------------------------------------------------------




----------------------------------------- Iteration    1(   3)  ---------------------------------------


     EDDAV:  cpu time    5.40: real time    5.40
       DOS:  cpu time    0.00: real time    0.01
    --------------------------------------------
      LOOP:  cpu time    5.41: real time    5.42

 eigenvalue-minimisations  :  2126
 total energy-change (2. order) :-0.2684152E+01  (-0.2670364E+01)
 number of electron      16.0000000 magnetization       4.0000000
 augmentation part       16.0000000 magnetization       4.0000000

 Free energy of the ion-electron system (eV)
  ---------------------------------------------------
  alpha Z        PSCENC =        37.04766603
  Ewald energy   TEWEN  =      -460.60042082
  -1/2 Hartree   DENC   =      -148.78490797
  -exchange  EXHF       =         0.00000000
  -V(xc)+E(xc)   XCENC  =        56.10990954
  PAW double counting   =       150.95130483     -155.51722924
  entropy T*S    EENTRO =         0.00001809
  eigenvalues    EBANDS =      -105.39408657
  atomic energy  EATOM  =       588.57751394
  ---------------------------------------------------
  free energy    TOTEN  =       -37.61023216 eV

  energy without entropy =      -37.61025026  energy(sigma->0) =      -37.61023820


--------------------------------------------------------------------------------------------------------




----------------------------------------- Iteration    1(   4)  ---------------------------------------


     EDDAV:  cpu time    4.91: real time    4.91
       DOS:  cpu time    0.00: real time    0.00
    --------------------------------------------
      LOOP:  cpu time    4.92: real time    4.93

 eigenvalue-minimisations  :  1878
 total energy-change (2. order) :-0.2621186E-01  (-0.2620508E-01)
 number of electron      16.0000000 magnetization       4.0000000
 augmentation part       16.0000000 magnetization       4.0000000

 Free energy of the ion-electron system (eV)
  ---------------------------------------------------
  alpha Z        PSCENC =        37.04766603
  Ewald energy   TEWEN  =      -460.60042082
  -1/2 Hartree   DENC   =      -148.78490797
  -exchange  EXHF       =         0.00000000
  -V(xc)+E(xc)   XCENC  =        56.10990954
  PAW double counting   =       150.95130483     -155.51722924
  entropy T*S    EENTRO =         0.00001807
  eigenvalues    EBANDS =      -105.42029841
  atomic energy  EATOM  =       588.57751394
  ---------------------------------------------------
  free energy    TOTEN  =       -37.63644402 eV

  energy without entropy =      -37.63646210  energy(sigma->0) =      -37.63645005


--------------------------------------------------------------------------------------------------------




----------------------------------------- Iteration    1(   5)  ---------------------------------------


     EDDAV:  cpu time    5.38: real time    5.38
       DOS:  cpu time    0.00: real time    0.01
    CHARGE:  cpu time    0.39: real time    0.39
    MIXING:  cpu time    0.01: real time    0.01
    --------------------------------------------
      LOOP:  cpu time    5.78: real time    5.79

 eigenvalue-minimisations  :  2114
 total energy-change (2. order) :-0.5155450E-03  (-0.5153365E-03)
 number of electron      15.9999995 magnetization       1.1751765
 augmentation part        0.4275690 magnetization       0.9689670

 Broyden mixing:
  rms(total) = 0.11964E+01    rms(broyden)= 0.11963E+01
  rms(prec ) = 0.15543E+01
  weight for this iteration     100.00

 Free energy of the ion-electron system (eV)
  ---------------------------------------------------
  alpha Z        PSCENC =        37.04766603
  Ewald energy   TEWEN  =      -460.60042082
  -1/2 Hartree   DENC   =      -148.78490797
  -exchange  EXHF       =         0.00000000
  -V(xc)+E(xc)   XCENC  =        56.10990954
  PAW double counting   =       150.95130483     -155.51722924
  entropy T*S    EENTRO =         0.00001807
  eigenvalues    EBANDS =      -105.42081396
  atomic energy  EATOM  =       588.57751394
  ---------------------------------------------------
  free energy    TOTEN  =       -37.63695957 eV

  energy without entropy =      -37.63697764  energy(sigma->0) =      -37.63696559


--------------------------------------------------------------------------------------------------------




----------------------------------------- Iteration    1(   6)  ---------------------------------------


    POTLOK:  cpu time    0.39: real time    0.39
    SETDIJ:  cpu time    0.05: real time    0.05
     EDDAV:  cpu time    4.68: real time    4.68
       DOS:  cpu time    0.00: real time    0.00
    CHARGE:  cpu time    0.38: real time    0.39
    MIXING:  cpu time    0.01: real time    0.01
    --------------------------------------------
      LOOP:  cpu time    5.52: real time    5.53

 eigenvalue-minimisations  :  1760
 total energy-change (2. order) : 0.7413740E+00  (-0.2113038E+00)
 number of electron      15.9999995 magnetization       0.1534841
 augmentation part        0.4080301 magnetization       0.0269411

 Broyden mixing:
  rms(total) = 0.47499E+00    rms(broyden)= 0.47494E+00
  rms(prec ) = 0.69400E+00
  weight for this iteration     100.00

 eigenvalues of (default mixing * dielectric matrix)
  average eigenvalue GAMMA=   0.9667
  0.9667

 Free energy of the ion-electron system (eV)
  ---------------------------------------------------
  alpha Z        PSCENC =        37.04766603
  Ewald energy   TEWEN  =      -460.60042082
  -1/2 Hartree   DENC   =      -165.34502776
  -exchange  EXHF       =         0.00000000
  -V(xc)+E(xc)   XCENC  =        56.79117528
  PAW double counting   =       206.02569133     -210.99173447
  entropy T*S    EENTRO =         0.00010276
  eigenvalues    EBANDS =       -88.40055184
  atomic energy  EATOM  =       588.57751394
  ---------------------------------------------------
  free energy    TOTEN  =       -36.89558555 eV

  energy without entropy =      -36.89568832  energy(sigma->0) =      -36.89561981


--------------------------------------------------------------------------------------------------------




----------------------------------------- Iteration    1(   7)  ---------------------------------------


    POTLOK:  cpu time    0.39: real time    0.39
    SETDIJ:  cpu time    0.05: real time    0.05
     EDDAV:  cpu time    4.81: real time    4.81
       DOS:  cpu time    0.01: real time    0.01
    CHARGE:  cpu time    0.39: real time    0.39
    MIXING:  cpu time    0.01: real time    0.01
    --------------------------------------------
      LOOP:  cpu time    5.64: real time    5.66

 eigenvalue-minimisations  :  1820
 total energy-change (2. order) : 0.9972219E-01  (-0.1197630E+00)
 number of electron      15.9999995 magnetization      -0.0537667
 augmentation part        0.3942603 magnetization      -0.1463414

 Broyden mixing:
  rms(total) = 0.18571E+00    rms(broyden)= 0.18565E+00
  rms(prec ) = 0.26314E+00
  weight for this iteration     100.00

 eigenvalues of (default mixing * dielectric matrix)
  average eigenvalue GAMMA=   1.2017
  0.8307  1.5727

 Free energy of the ion-electron system (eV)
  ---------------------------------------------------
  alpha Z        PSCENC =        37.04766603
  Ewald energy   TEWEN  =      -460.60042082
  -1/2 Hartree   DENC   =      -176.92628867
  -exchange  EXHF       =         0.00000000
  -V(xc)+E(xc)   XCENC  =        57.26019556
  PAW double counting   =       249.19492104     -254.35747032
  entropy T*S    EENTRO =         0.00032706
  eigenvalues    EBANDS =       -76.99230718
  atomic energy  EATOM  =       588.57751394
  ---------------------------------------------------
  free energy    TOTEN  =       -36.79586336 eV

  energy without entropy =      -36.79619043  energy(sigma->0) =      -36.79597239


--------------------------------------------------------------------------------------------------------




----------------------------------------- Iteration    1(   8)  ---------------------------------------


    POTLOK:  cpu time    0.40: real time    0.40
    SETDIJ:  cpu time    0.05: real time    0.05
     EDDAV:  cpu time    4.81: real time    4.82
       DOS:  cpu time    0.01: real time    0.01
    CHARGE:  cpu time    0.39: real time    0.39
    MIXING:  cpu time    0.01: real time    0.01
    --------------------------------------------
      LOOP:  cpu time    5.67: real time    5.68

 eigenvalue-minimisations  :  1790
 total energy-change (2. order) : 0.4908511E-01  (-0.2330632E-01)
 number of electron      15.9999995 magnetization       0.0632577
 augmentation part        0.3870661 magnetization      -0.0237999

 Broyden mixing:
  rms(total) = 0.64859E-01    rms(broyden)= 0.64816E-01
  rms(prec ) = 0.77250E-01
  weight for this iteration     100.00

 eigenvalues of (default mixing * dielectric matrix)
  average eigenvalue GAMMA=   1.1876
  1.8138  0.9817  0.7672

 Free energy of the ion-electron system (eV)
  ---------------------------------------------------
  alpha Z        PSCENC =        37.04766603
  Ewald energy   TEWEN  =      -460.60042082
  -1/2 Hartree   DENC   =      -182.75870524
  -exchange  EXHF       =         0.00000000
  -V(xc)+E(xc)   XCENC  =        57.64730481
  PAW double counting   =       273.29321120     -278.52351058
  entropy T*S    EENTRO =         0.00012133
  eigenvalues    EBANDS =       -71.42995892
  atomic energy  EATOM  =       588.57751394
  ---------------------------------------------------
  free energy    TOTEN  =       -36.74677825 eV

  energy without entropy =      -36.74689958  energy(sigma->0) =      -36.74681870


--------------------------------------------------------------------------------------------------------




----------------------------------------- Iteration    1(   9)  ---------------------------------------


    POTLOK:  cpu time    0.40: real time    0.40
    SETDIJ:  cpu time    0.05: real time    0.05
     EDDAV:  cpu time    4.85: real time    4.85
       DOS:  cpu time    0.00: real time    0.01
    CHARGE:  cpu time    0.39: real time    0.39
    MIXING:  cpu time    0.01: real time    0.01
    --------------------------------------------
      LOOP:  cpu time    5.70: real time    5.72

 eigenvalue-minimisations  :  1808
 total energy-change (2. order) :-0.1199278E-01  (-0.1869455E-02)
 number of electron      15.9999995 magnetization       0.1181757
 augmentation part        0.3857520 magnetization       0.0250448

 Broyden mixing:
  rms(total) = 0.32263E-01    rms(broyden)= 0.32256E-01
  rms(prec ) = 0.38623E-01
  weight for this iteration     100.00

 eigenvalues of (default mixing * dielectric matrix)
  average eigenvalue GAMMA=   1.2762
  2.1350  1.4066  0.8821  0.6812

 Free energy of the ion-electron system (eV)
  ---------------------------------------------------
  alpha Z        PSCENC =        37.04766603
  Ewald energy   TEWEN  =      -460.60042082
  -1/2 Hartree   DENC   =      -183.46199299
  -exchange  EXHF       =         0.00000000
  -V(xc)+E(xc)   XCENC  =        57.68807860
  PAW double counting   =       277.68468594     -282.89483708
  entropy T*S    EENTRO =         0.00022992
  eigenvalues    EBANDS =       -70.79969457
  atomic energy  EATOM  =       588.57751394
  ---------------------------------------------------
  free energy    TOTEN  =       -36.75877104 eV

  energy without entropy =      -36.75900096  energy(sigma->0) =      -36.75884768


--------------------------------------------------------------------------------------------------------




----------------------------------------- Iteration    1(  10)  ---------------------------------------


    POTLOK:  cpu time    0.40: real time    0.40
    SETDIJ:  cpu time    0.05: real time    0.05
     EDDAV:  cpu time    5.18: real time    5.18
       DOS:  cpu time    0.00: real time    0.01
    CHARGE:  cpu time    0.39: real time    0.39
    MIXING:  cpu time    0.01: real time    0.01
    --------------------------------------------
      LOOP:  cpu time    6.03: real time    6.05

 eigenvalue-minimisations  :  1976
 total energy-change (2. order) :-0.7490436E-03  (-0.1614376E-03)
 number of electron      15.9999995 magnetization       0.1002460
 augmentation part        0.3856967 magnetization       0.0130288

 Broyden mixing:
  rms(total) = 0.12212E-01    rms(broyden)= 0.12210E-01
  rms(prec ) = 0.14935E-01
  weight for this iteration     100.00

 eigenvalues of (default mixing * dielectric matrix)
  average eigenvalue GAMMA=   1.2556
  2.3158  1.5088  0.9904  0.8120  0.6507

 Free energy of the ion-electron system (eV)
  ---------------------------------------------------
  alpha Z        PSCENC =        37.04766603
  Ewald energy   TEWEN  =      -460.60042082
  -1/2 Hartree   DENC   =      -183.69672459
  -exchange  EXHF       =         0.00000000
  -V(xc)+E(xc)   XCENC  =        57.70561058
  PAW double counting   =       279.70967157     -284.89971803
  entropy T*S    EENTRO =         0.00006679
  eigenvalues    EBANDS =       -70.60318554
  atomic energy  EATOM  =       588.57751394
  ---------------------------------------------------
  free energy    TOTEN  =       -36.75952008 eV

  energy without entropy =      -36.75958687  energy(sigma->0) =      -36.75954234


--------------------------------------------------------------------------------------------------------




----------------------------------------- Iteration    1(  11)  ---------------------------------------


    POTLOK:  cpu time    0.40: real time    0.40
    SETDIJ:  cpu time    0.05: real time    0.05
     EDDAV:  cpu time    4.77: real time    4.77
       DOS:  cpu time    0.00: real time    0.00
    CHARGE:  cpu time    0.39: real time    0.39
    MIXING:  cpu time    0.01: real time    0.01
    --------------------------------------------
      LOOP:  cpu time    5.63: real time    5.65

 eigenvalue-minimisations  :  1772
 total energy-change (2. order) :-0.3127658E-03  (-0.4680526E-04)
 number of electron      15.9999995 magnetization       0.0890238
 augmentation part        0.3857391 magnetization       0.0025244

 Broyden mixing:
  rms(total) = 0.46868E-02    rms(broyden)= 0.46860E-02
  rms(prec ) = 0.57753E-02
  weight for this iteration     100.00

 eigenvalues of (default mixing * dielectric matrix)
  average eigenvalue GAMMA=   1.3457
  2.5061  1.8738  1.4059  0.9038  0.7553  0.6294

 Free energy of the ion-electron system (eV)
  ---------------------------------------------------
  alpha Z        PSCENC =        37.04766603
  Ewald energy   TEWEN  =      -460.60042082
  -1/2 Hartree   DENC   =      -183.75115283
  -exchange  EXHF       =         0.00000000
  -V(xc)+E(xc)   XCENC  =        57.70992739
  PAW double counting   =       280.16347375     -285.34442383
  entropy T*S    EENTRO =         0.00012234
  eigenvalues    EBANDS =       -70.56253880
  atomic energy  EATOM  =       588.57751394
  ---------------------------------------------------
  free energy    TOTEN  =       -36.75983285 eV

  energy without entropy =      -36.75995518  energy(sigma->0) =      -36.75987362


--------------------------------------------------------------------------------------------------------




----------------------------------------- Iteration    1(  12)  ---------------------------------------


    POTLOK:  cpu time    0.40: real time    0.40
    SETDIJ:  cpu time    0.05: real time    0.05
     EDDAV:  cpu time    4.28: real time    4.28
       DOS:  cpu time    0.00: real time    0.00
    --------------------------------------------
      LOOP:  cpu time    4.73: real time    4.74

 eigenvalue-minimisations  :  1500
 total energy-change (2. order) :-0.7843630E-04  (-0.1163377E-04)
 number of electron      15.9999995 magnetization       0.0890238
 augmentation part        0.3857391 magnetization       0.0025244

 Free energy of the ion-electron system (eV)
  ---------------------------------------------------
  alpha Z        PSCENC =        37.04766603
  Ewald energy   TEWEN  =      -460.60042082
  -1/2 Hartree   DENC   =      -183.76432070
  -exchange  EXHF       =         0.00000000
  -V(xc)+E(xc)   XCENC  =        57.71122608
  PAW double counting   =       280.19329563     -285.37020750
  entropy T*S    EENTRO =         0.00013021
  eigenvalues    EBANDS =       -70.55479416
  atomic energy  EATOM  =       588.57751394
  ---------------------------------------------------
  free energy    TOTEN  =       -36.75991128 eV

  energy without entropy =      -36.76004149  energy(sigma->0) =      -36.75995468


--------------------------------------------------------------------------------------------------------




 average (electrostatic) potential at core
  the test charge radii are     0.6991
  (the norm of the test charge is              1.0000)
       1 -50.6524       2 -50.6778       3 -50.6778       4 -50.6524
 
 
 
 E-fermi :   4.7092     XC(G=0): -10.3216     alpha+bet :-11.4114


 spin component 1

 k-point   1 :       0.0000    0.0000    0.0000
  band No.  band energies     occupation 
      1     -14.9808      1.00000
      2     -14.6802      1.00000
      3      -3.8597      1.00000
      4      -1.8985      1.00000
      5       1.7097      1.00000
      6       1.7097      1.00000
      7       1.7284      1.00000
      8       1.7284      1.00000
      9       8.9734      0.00000
     10      13.0813      0.00000
     11      13.0813      0.00000
     12      13.1354      0.00000
     13      13.1354      0.00000
     14      15.7503      0.00000

 k-point   2 :       0.1667    0.0000    0.0000
  band No.  band energies     occupation 
      1     -14.3175      1.00000
      2     -14.0290      1.00000
      3      -3.0569      1.00000
      4      -1.1502      1.00000
      5      -0.6135      1.00000
      6      -0.5494      1.00000
      7       0.5615      1.00000
      8       0.6017      1.00000
      9       9.7774      0.00000
     10      13.0306      0.00000
     11      13.2162      0.00000
     12      13.8968      0.00000
     13      14.2750      0.00000
     14      15.6413      0.00000

 k-point   3 :       0.3333    0.0000    0.0000
  band No.  band energies     occupation 
      1     -12.3614      1.00000
      2     -12.1081      1.00000
      3      -4.9700      1.00000
      4      -4.8362      1.00000
      5      -1.0660      1.00000
      6      -1.0134      1.00000
      7      -0.7429      1.00000
      8       0.9386      1.00000
      9       9.2150      0.00000
     10      10.0987      0.00000
     11      12.0772      0.00000
     12      12.3643      0.00000
     13      12.7636      0.00000
     14      17.4382      0.00000

 k-point   4 :       0.5000    0.0000    0.0000
  band No.  band energies     occupation 
      1      -9.6214      1.00000
      2      -9.5172      1.00000
      3      -8.5581      1.00000
      4      -8.4806      1.00000
      5      -1.7055      1.00000
      6      -1.6502      1.00000
      7       1.9214      1.00000
      8       2.5602      1.00000
      9       6.2317      0.00000
     10       6.8385      0.00000
     11      11.9597      0.00000
     12      12.3562      0.00000
     13      16.0150      0.00000
     14      16.1012      0.00000

 k-point   5 :       0.1667    0.1667    0.0000
  band No.  band energies     occupation 
      1     -13.0077      1.00000
      2     -12.7427      1.00000
      3      -3.0549      1.00000
      4      -3.0012      1.00000
      5      -1.6967      1.00000
      6      -1.6575      1.00000
      7      -1.4894      1.00000
      8       0.2881      1.00000
      9      10.8485      0.00000
     10      11.3247      0.00000
     11      11.3946      0.00000
     12      14.6787      0.00000
     13      14.9207      0.00000
     14      16.2745      0.00000

 k-point   6 :       0.3333    0.1667    0.0000
  band No.  band energies     occupation 
      1     -10.4879      1.00000
      2     -10.2715      1.00000
      3      -6.7562      1.00000
      4      -6.6091      1.00000
      5      -3.3624      1.00000
      6      -3.2715      1.00000
      7       1.3753      1.00000
      8       2.6953      1.00000
      9       6.8823      0.00000
     10       7.6151      0.00000
     11      14.4308      0.00000
     12      14.6048      0.00000
     13      15.1198      0.00000
     14      17.1407      0.00000

 k-point   7 :       0.3333    0.3333    0.0000
  band No.  band energies     occupation 
      1      -7.9427      1.00000
      2      -7.9034      1.00000
      3      -7.9034      1.00000
      4      -7.7535      1.00000
      5      -5.8419      1.00000
      6      -5.8419      1.00000
      7       4.1359      1.00000
      8       4.5582      1.00008
      9       4.5582      1.00008
     10       5.4902      0.00000
     11      15.8391      0.00000
     12      15.8391      0.00000
     13      16.9931      0.00000
     14      17.2380      0.00000

 k-point   8 :       0.0000    0.0000    0.1667
  band No.  band energies     occupation 
      1     -14.9619      1.00000
      2     -14.7017      1.00000
      3      -3.7485      1.00000
      4      -2.0592      1.00000
      5       1.7116      1.00000
      6       1.7116      1.00000
      7       1.7273      1.00000
      8       1.7274      1.00000
      9       9.3122      0.00000
     10      13.0854      0.00000
     11      13.0855      0.00000
     12      13.1290      0.00000
     13      13.1290      0.00000
     14      14.5961      0.00000

 k-point   9 :       0.1667    0.0000    0.1667
  band No.  band energies     occupation 
      1     -14.2993      1.00000
      2     -14.0495      1.00000
      3      -2.9485      1.00000
      4      -1.3059      1.00000
      5      -0.6091      1.00000
      6      -0.5536      1.00000
      7       0.5644      1.00000
      8       0.5988      1.00000
      9      10.1043      0.00000
     10      13.0334      0.00000
     11      13.2021      0.00000
     12      13.9297      0.00000
     13      14.2430      0.00000
     14      15.2678      0.00000

 k-point  10 :       0.3333    0.0000    0.1667
  band No.  band energies     occupation 
      1     -12.3453      1.00000
      2     -12.1260      1.00000
      3      -4.9613      1.00000
      4      -4.8455      1.00000
      5      -1.0625      1.00000
      6      -1.0169      1.00000
      7      -0.6451      1.00000
      8       0.8056      1.00000
      9       9.2543      0.00000
     10      10.0258      0.00000
     11      12.2531      0.00000
     12      12.4243      0.00000
     13      12.8386      0.00000
     14      16.9784      0.00000

 k-point  11 :       0.5000    0.0000    0.1667
  band No.  band energies     occupation 
      1      -9.6131      1.00000
      2      -9.5226      1.00000
      3      -8.5556      1.00000
      4      -8.4881      1.00000
      5      -1.7018      1.00000
      6      -1.6537      1.00000
      7       1.9780      1.00000
      8       2.5382      1.00000
      9       6.2189      0.00000
     10       6.7522      0.00000
     11      11.9850      0.00000
     12      12.3287      0.00000
     13      16.2738      0.00000
     14      16.2849      0.00000

 k-point  12 :       0.1667    0.1667    0.1667
  band No.  band energies     occupation 
      1     -12.9909      1.00000
      2     -12.7615      1.00000
      3      -3.0512      1.00000
      4      -3.0047      1.00000
      5      -1.6945      1.00000
      6      -1.6605      1.00000
      7      -1.3872      1.00000
      8       0.1450      1.00000
      9      10.8788      0.00000
     10      11.2827      0.00000
     11      11.7024      0.00000
     12      14.6805      0.00000
     13      14.9214      0.00000
     14      16.2741      0.00000

 k-point  13 :       0.3333    0.1667    0.1667
  band No.  band energies     occupation 
      1     -10.4740      1.00000
      2     -10.2866      1.00000
      3      -6.7466      1.00000
      4      -6.6193      1.00000
      5      -3.3566      1.00000
      6      -3.2778      1.00000
      7       1.4573      1.00000
      8       2.6004      1.00000
      9       6.9171      0.00000
     10       7.5555      0.00000
     11      14.5353      0.00000
     12      14.6668      0.00000
     13      15.1267      0.00000
     14      16.8542      0.00000

 k-point  14 :       0.3333    0.3333    0.1667
  band No.  band energies     occupation 
      1      -7.9305      1.00000
      2      -7.9028      1.00000
      3      -7.9028      1.00000
      4      -7.7666      1.00000
      5      -5.8431      1.00000
      6      -5.8431      1.00000
      7       4.2167      1.00000
      8       4.5667      1.00021
      9       4.5667      1.00021
     10       5.3861      0.00000
     11      15.4829      0.00000
     12      15.4829      0.00000
     13      17.1953      0.00000
     14      17.7584      0.00000

 k-point  15 :       0.0000    0.0000    0.3333
  band No.  band energies     occupation 
      1     -14.9093      1.00000
      2     -14.7592      1.00000
      3      -3.4342      1.00000
      4      -2.4685      1.00000
      5       1.7146      1.00000
      6       1.7146      1.00000
      7       1.7241      1.00000
      8       1.7241      1.00000
      9      10.2506      0.00000
     10      13.0929      0.00000
     11      13.0929      0.00000
     12      13.1195      0.00000
     13      13.1195      0.00000
     14      13.1676      0.00000

 k-point  16 :       0.1667    0.0000    0.3333
  band No.  band energies     occupation 
      1     -14.2487      1.00000
      2     -14.1047      1.00000
      3      -2.6420      1.00000
      4      -1.7028      1.00000
      5      -0.5975      1.00000
      6      -0.5654      1.00000
      7       0.5716      1.00000
      8       0.5914      1.00000
      9      11.0058      0.00000
     10      13.0139      0.00000
     11      13.1712      0.00000
     12      13.8577      0.00000
     13      14.0203      0.00000
     14      14.2684      0.00000

 k-point  17 :       0.3333    0.0000    0.3333
  band No.  band energies     occupation 
      1     -12.3007      1.00000
      2     -12.1741      1.00000
      3      -4.9374      1.00000
      4      -4.8705      1.00000
      5      -1.0528      1.00000
      6      -1.0267      1.00000
      7      -0.3696      1.00000
      8       0.4620      1.00000
      9       9.3855      0.00000
     10       9.8345      0.00000
     11      12.3855      0.00000
     12      12.5147      0.00000
     13      13.4601      0.00000
     14      15.8875      0.00000

 k-point  18 :       0.5000    0.0000    0.3333
  band No.  band energies     occupation 
      1      -9.5914      1.00000
      2      -9.5387      1.00000
      3      -8.5465      1.00000
      4      -8.5071      1.00000
      5      -1.6915      1.00000
      6      -1.6638      1.00000
      7       2.1260      1.00000
      8       2.4576      1.00000
      9       6.2293      0.00000
     10       6.5456      0.00000
     11      12.0551      0.00000
     12      12.2538      0.00000
     13      16.7646      0.00000
     14      16.9393      0.00000

 k-point  19 :       0.1667    0.1667    0.3333
  band No.  band energies     occupation 
      1     -12.9443      1.00000
      2     -12.8119      1.00000
      3      -3.0411      1.00000
      4      -3.0143      1.00000
      5      -1.6880      1.00000
      6      -1.6684      1.00000
      7      -1.0990      1.00000
      8      -0.2219      1.00000
      9      10.9633      0.00000
     10      11.1956      0.00000
     11      12.5217      0.00000
     12      14.5863      0.00000
     13      14.9175      0.00000
     14      15.2495      0.00000

 k-point  20 :       0.3333    0.1667    0.3333
  band No.  band energies     occupation 
      1     -10.4356      1.00000
      2     -10.3274      1.00000
      3      -6.7204      1.00000
      4      -6.6469      1.00000
      5      -3.3404      1.00000
      6      -3.2949      1.00000
      7       1.6858      1.00000
      8       2.3458      1.00000
      9       7.0255      0.00000
     10       7.3983      0.00000
     11      14.6338      0.00000
     12      14.7852      0.00000
     13      15.3482      0.00000
     14      16.3777      0.00000

 k-point  21 :       0.3333    0.3333    0.3333
  band No.  band energies     occupation 
      1      -7.9017      1.00000
      2      -7.9017      1.00000
      3      -7.8968      1.00000
      4      -7.8023      1.00000
      5      -5.8455      1.00000
      6      -5.8455      1.00000
      7       4.4421      1.00000
      8       4.5832      1.00106
      9       4.5832      1.00106
     10       5.1138      0.00000
     11      15.0410      0.00000
     12      15.0410      0.00000
     13      17.7389      0.00000
     14      18.6580      0.00000

 k-point  22 :       0.0000    0.0000    0.5000
  band No.  band energies     occupation 
      1     -14.8355      1.00000
      2     -14.8355      1.00000
      3      -2.9744      1.00000
      4      -2.9744      1.00000
      5       1.7199      1.00000
      6       1.7199      1.00000
      7       1.7199      1.00000
      8       1.7199      1.00000
      9      11.6088      0.00000
     10      11.6088      0.00000
     11      13.1064      0.00000
     12      13.1064      0.00000
     13      13.1064      0.00000
     14      13.1064      0.00000

 k-point  23 :       0.1667    0.0000    0.5000
  band No.  band energies     occupation 
      1     -14.1778      1.00000
      2     -14.1778      1.00000
      3      -2.1943      1.00000
      4      -2.1943      1.00000
      5      -0.5816      1.00000
      6      -0.5816      1.00000
      7       0.5813      1.00000
      8       0.5813      1.00000
      9      12.2760      0.00000
     10      12.2760      0.00000
     11      13.1789      0.00000
     12      13.1789      0.00000
     13      14.1209      0.00000
     14      14.1209      0.00000

 k-point  24 :       0.3333    0.0000    0.5000
  band No.  band energies     occupation 
      1     -12.2383      1.00000
      2     -12.2383      1.00000
      3      -4.9042      1.00000
      4      -4.9042      1.00000
      5      -1.0397      1.00000
      6      -1.0397      1.00000
      7       0.0295      1.00000
      8       0.0295      1.00000
      9       9.5966      0.00000
     10       9.5966      0.00000
     11      12.4663      0.00000
     12      12.4663      0.00000
     13      14.6039      0.00000
     14      14.6039      0.00000

 k-point  25 :       0.5000    0.0000    0.5000
  band No.  band energies     occupation 
      1      -9.5636      1.00000
      2      -9.5636      1.00000
      3      -8.5293      1.00000
      4      -8.5293      1.00000
      5      -1.6779      1.00000
      6      -1.6779      1.00000
      7       2.3089      1.00000
      8       2.3089      1.00000
      9       6.3388      0.00000
     10       6.3388      0.00000
     11      12.1529      0.00000
     12      12.1529      0.00000
     13      17.2812      0.00000
     14      17.2812      0.00000

 k-point  26 :       0.1667    0.1667    0.5000
  band No.  band energies     occupation 
      1     -12.8790      1.00000
      2     -12.8790      1.00000
      3      -3.0275      1.00000
      4      -3.0275      1.00000
      5      -1.6786      1.00000
      6      -1.6786      1.00000
      7      -0.6794      1.00000
      8      -0.6794      1.00000
      9      11.0792      0.00000
     10      11.0792      0.00000
     11      13.6643      0.00000
     12      13.6643      0.00000
     13      14.9203      0.00000
     14      14.9203      0.00000

 k-point  27 :       0.3333    0.1667    0.5000
  band No.  band energies     occupation 
      1     -10.3821      1.00000
      2     -10.3821      1.00000
      3      -6.6840      1.00000
      4      -6.6840      1.00000
      5      -3.3179      1.00000
      6      -3.3179      1.00000
      7       2.0092      1.00000
      8       2.0092      1.00000
      9       7.2006      0.00000
     10       7.2006      0.00000
     11      14.7243      0.00000
     12      14.7243      0.00000
     13      15.8554      0.00000
     14      15.8554      0.00000

 k-point  28 :       0.3333    0.3333    0.5000
  band No.  band energies     occupation 
      1      -7.9012      1.00000
      2      -7.9012      1.00000
      3      -7.8500      1.00000
      4      -7.8500      1.00000
      5      -5.8468      1.00000
      6      -5.8468      1.00000
      7       4.5914      1.00216
      8       4.5914      1.00216
      9       4.7665     -0.03438
     10       4.7665     -0.03438
     11      14.8734      0.00000
     12      14.8734      0.00000
     13      18.4506      0.00000
     14      18.4506      0.00000

 spin component 2

 k-point   1 :       0.0000    0.0000    0.0000
  band No.  band energies     occupation 
      1     -14.9508      1.00000
      2     -14.6509      1.00000
      3      -3.7930      1.00000
      4      -1.8230      1.00000
      5       1.7214      1.00000
      6       1.7214      1.00000
      7       1.7405      1.00000
      8       1.7405      1.00000
      9       9.0077      0.00000
     10      13.0924      0.00000
     11      13.0924      0.00000
     12      13.1460      0.00000
     13      13.1460      0.00000
     14      15.2975      0.00000

 k-point   2 :       0.1667    0.0000    0.0000
  band No.  band energies     occupation 
      1     -14.2878      1.00000
      2     -14.0000      1.00000
      3      -2.9896      1.00000
      4      -1.0734      1.00000
      5      -0.5970      1.00000
      6      -0.5329      1.00000
      7       0.5733      1.00000
      8       0.6134      1.00000
      9       9.8115      0.00000
     10      13.0529      0.00000
     11      13.2335      0.00000
     12      13.9828      0.00000
     13      14.3877      0.00000
     14      15.6521      0.00000

 k-point   3 :       0.3333    0.0000    0.0000
  band No.  band energies     occupation 
      1     -12.3327      1.00000
      2     -12.0797      1.00000
      3      -4.9484      1.00000
      4      -4.8148      1.00000
      5      -1.0544      1.00000
      6      -1.0020      1.00000
      7      -0.6745      1.00000
      8       1.0215      1.00000
      9       9.2843      0.00000
     10      10.2028      0.00000
     11      12.1023      0.00000
     12      12.4134      0.00000
     13      12.7899      0.00000
     14      17.5106      0.00000

 k-point   4 :       0.5000    0.0000    0.0000
  band No.  band energies     occupation 
      1      -9.5967      1.00000
      2      -9.4773      1.00000
      3      -8.5457      1.00000
      4      -8.4548      1.00000
      5      -1.6939      1.00000
      6      -1.6388      1.00000
      7       1.9618      1.00000
      8       2.6947      1.00000
      9       6.2339      0.00000
     10       6.9780      0.00000
     11      11.9971      0.00000
     12      12.3931      0.00000
     13      16.0034      0.00000
     14      16.1833      0.00000

 k-point   5 :       0.1667    0.1667    0.0000
  band No.  band energies     occupation 
      1     -12.9786      1.00000
      2     -12.7142      1.00000
      3      -3.0346      1.00000
      4      -2.9790      1.00000
      5      -1.6851      1.00000
      6      -1.6448      1.00000
      7      -1.4211      1.00000
      8       0.3682      1.00000
      9      10.9339      0.00000
     10      11.4228      0.00000
     11      11.4283      0.00000
     12      14.7044      0.00000
     13      14.9306      0.00000
     14      16.3169      0.00000

 k-point   6 :       0.3333    0.1667    0.0000
  band No.  band energies     occupation 
      1     -10.4599      1.00000
      2     -10.2430      1.00000
      3      -6.7329      1.00000
      4      -6.5856      1.00000
      5      -3.3484      1.00000
      6      -3.2576      1.00000
      7       1.4403      1.00000
      8       2.7931      1.00000
      9       6.9482      0.00000
     10       7.7095      0.00000
     11      14.4443      0.00000
     12      14.6649      0.00000
     13      15.1442      0.00000
     14      17.2158      0.00000

 k-point   7 :       0.3333    0.3333    0.0000
  band No.  band energies     occupation 
      1      -7.9712      1.00000
      2      -7.8174      1.00000
      3      -7.8174      1.00000
      4      -7.7808      1.00000
      5      -5.8323      1.00000
      6      -5.8323      1.00000
      7       4.0275      1.00000
      8       4.8336     -0.00122
      9       4.8336     -0.00122
     10       5.3733      0.00000
     11      15.8883      0.00000
     12      15.8883      0.00000
     13      16.9432      0.00000
     14      17.3235      0.00000

 k-point   8 :       0.0000    0.0000    0.1667
  band No.  band energies     occupation 
      1     -14.9319      1.00000
      2     -14.6723      1.00000
      3      -3.6815      1.00000
      4      -1.9847      1.00000
      5       1.7233      1.00000
      6       1.7233      1.00000
      7       1.7394      1.00000
      8       1.7395      1.00000
      9       9.3479      0.00000
     10      13.0965      0.00000
     11      13.0965      0.00000
     12      13.1396      0.00000
     13      13.1396      0.00000
     14      14.6479      0.00000

 k-point   9 :       0.1667    0.0000    0.1667
  band No.  band energies     occupation 
      1     -14.2696      1.00000
      2     -14.0204      1.00000
      3      -2.8808      1.00000
      4      -1.2302      1.00000
      5      -0.5926      1.00000
      6      -0.5371      1.00000
      7       0.5762      1.00000
      8       0.6105      1.00000
      9      10.1401      0.00000
     10      13.0565      0.00000
     11      13.2196      0.00000
     12      14.0121      0.00000
     13      14.3571      0.00000
     14      15.3307      0.00000

 k-point  10 :       0.3333    0.0000    0.1667
  band No.  band energies     occupation 
      1     -12.3166      1.00000
      2     -12.0976      1.00000
      3      -4.9397      1.00000
      4      -4.8241      1.00000
      5      -1.0509      1.00000
      6      -1.0055      1.00000
      7      -0.5761      1.00000
      8       0.8870      1.00000
      9       9.3266      0.00000
     10      10.1270      0.00000
     11      12.2752      0.00000
     12      12.4762      0.00000
     13      12.8669      0.00000
     14      17.0451      0.00000

 k-point  11 :       0.5000    0.0000    0.1667
  band No.  band energies     occupation 
      1      -9.5876      1.00000
      2      -9.4839      1.00000
      3      -8.5421      1.00000
      4      -8.4631      1.00000
      5      -1.6902      1.00000
      6      -1.6423      1.00000
      7       2.0227      1.00000
      8       2.6648      1.00000
      9       6.2316      0.00000
     10       6.8838      0.00000
     11      12.0227      0.00000
     12      12.3659      0.00000
     13      16.2611      0.00000
     14      16.3702      0.00000

 k-point  12 :       0.1667    0.1667    0.1667
  band No.  band energies     occupation 
      1     -12.9618      1.00000
      2     -12.7329      1.00000
      3      -3.0308      1.00000
      4      -2.9827      1.00000
      5      -1.6827      1.00000
      6      -1.6478      1.00000
      7      -1.3185      1.00000
      8       0.2239      1.00000
      9      10.9652      0.00000
     10      11.3853      0.00000
     11      11.7323      0.00000
     12      14.7059      0.00000
     13      14.9328      0.00000
     14      16.3227      0.00000

 k-point  13 :       0.3333    0.1667    0.1667
  band No.  band energies     occupation 
      1     -10.4460      1.00000
      2     -10.2582      1.00000
      3      -6.7234      1.00000
      4      -6.5958      1.00000
      5      -3.3426      1.00000
      6      -3.2639      1.00000
      7       1.5236      1.00000
      8       2.6947      1.00000
      9       6.9859      0.00000
     10       7.6492      0.00000
     11      14.5524      0.00000
     12      14.7290      0.00000
     13      15.1495      0.00000
     14      16.9193      0.00000

 k-point  14 :       0.3333    0.3333    0.1667
  band No.  band energies     occupation 
      1      -7.9589      1.00000
      2      -7.8168      1.00000
      3      -7.8168      1.00000
      4      -7.7941      1.00000
      5      -5.8334      1.00000
      6      -5.8334      1.00000
      7       4.1079      1.00000
      8       4.8426     -0.00053
      9       4.8426     -0.00053
     10       5.2701      0.00000
     11      15.5362      0.00000
     12      15.5362      0.00000
     13      17.1466      0.00000
     14      17.8375      0.00000

 k-point  15 :       0.0000    0.0000    0.3333
  band No.  band energies     occupation 
      1     -14.8794      1.00000
      2     -14.7297      1.00000
      3      -3.3662      1.00000
      4      -2.3963      1.00000
      5       1.7264      1.00000
      6       1.7264      1.00000
      7       1.7361      1.00000
      8       1.7361      1.00000
      9      10.2902      0.00000
     10      13.1038      0.00000
     11      13.1039      0.00000
     12      13.1302      0.00000
     13      13.1302      0.00000
     14      13.2169      0.00000

 k-point  16 :       0.1667    0.0000    0.3333
  band No.  band energies     occupation 
      1     -14.2192      1.00000
      2     -14.0754      1.00000
      3      -2.5733      1.00000
      4      -1.6296      1.00000
      5      -0.5810      1.00000
      6      -0.5488      1.00000
      7       0.5834      1.00000
      8       0.6031      1.00000
      9      11.0462      0.00000
     10      13.0422      0.00000
     11      13.1889      0.00000
     12      13.8780      0.00000
     13      14.1593      0.00000
     14      14.3563      0.00000

 k-point  17 :       0.3333    0.0000    0.3333
  band No.  band energies     occupation 
      1     -12.2720      1.00000
      2     -12.1456      1.00000
      3      -4.9158      1.00000
      4      -4.8490      1.00000
      5      -1.0412      1.00000
      6      -1.0152      1.00000
      7      -0.2988      1.00000
      8       0.5397      1.00000
      9       9.4646      0.00000
     10       9.9292      0.00000
     11      12.4164      0.00000
     12      12.5526      0.00000
     13      13.4983      0.00000
     14      15.9431      0.00000

 k-point  18 :       0.5000    0.0000    0.3333
  band No.  band energies     occupation 
      1      -9.5634      1.00000
      2      -9.5032      1.00000
      3      -8.5302      1.00000
      4      -8.4842      1.00000
      5      -1.6800      1.00000
      6      -1.6524      1.00000
      7       2.1836      1.00000
      8       2.5632      1.00000
      9       6.2701      0.00000
     10       6.6550      0.00000
     11      12.0931      0.00000
     12      12.2916      0.00000
     13      16.8556      0.00000
     14      16.9311      0.00000

 k-point  19 :       0.1667    0.1667    0.3333
  band No.  band energies     occupation 
      1     -12.9153      1.00000
      2     -12.7832      1.00000
      3      -3.0204      1.00000
      4      -2.9926      1.00000
      5      -1.6761      1.00000
      6      -1.6558      1.00000
      7      -1.0288      1.00000
      8      -0.1460      1.00000
      9      11.0531      0.00000
     10      11.2954      0.00000
     11      12.5562      0.00000
     12      14.6166      0.00000
     13      14.9330      0.00000
     14      15.2989      0.00000

 k-point  20 :       0.3333    0.1667    0.3333
  band No.  band energies     occupation 
      1     -10.4075      1.00000
      2     -10.2991      1.00000
      3      -6.6971      1.00000
      4      -6.6234      1.00000
      5      -3.3264      1.00000
      6      -3.2810      1.00000
      7       1.7563      1.00000
      8       2.4320      1.00000
      9       7.1015      0.00000
     10       7.4888      0.00000
     11      14.6685      0.00000
     12      14.8347      0.00000
     13      15.3775      0.00000
     14      16.4349      0.00000

 k-point  21 :       0.3333    0.3333    0.3333
  band No.  band energies     occupation 
      1      -7.9250      1.00000
      2      -7.8299      1.00000
      3      -7.8157      1.00000
      4      -7.8157      1.00000
      5      -5.8358      1.00000
      6      -5.8358      1.00000
      7       4.3322      1.00000
      8       4.8598     -0.00009
      9       4.8598     -0.00009
     10       4.9998      0.00000
     11      15.0949      0.00000
     12      15.0949      0.00000
     13      17.6924      0.00000
     14      18.7323      0.00000

 k-point  22 :       0.0000    0.0000    0.5000
  band No.  band energies     occupation 
      1     -14.8058      1.00000
      2     -14.8058      1.00000
      3      -2.9046      1.00000
      4      -2.9046      1.00000
      5       1.7318      1.00000
      6       1.7318      1.00000
      7       1.7318      1.00000
      8       1.7318      1.00000
      9      11.6532      0.00000
     10      11.6532      0.00000
     11      13.1172      0.00000
     12      13.1172      0.00000
     13      13.1172      0.00000
     14      13.1172      0.00000

 k-point  23 :       0.1667    0.0000    0.5000
  band No.  band energies     occupation 
      1     -14.1484      1.00000
      2     -14.1484      1.00000
      3      -2.1236      1.00000
      4      -2.1236      1.00000
      5      -0.5651      1.00000
      6      -0.5651      1.00000
      7       0.5930      1.00000
      8       0.5930      1.00000
      9      12.3227      0.00000
     10      12.3227      0.00000
     11      13.1963      0.00000
     12      13.1963      0.00000
     13      14.2229      0.00000
     14      14.2229      0.00000

 k-point  24 :       0.3333    0.0000    0.5000
  band No.  band energies     occupation 
      1     -12.2097      1.00000
      2     -12.2097      1.00000
      3      -4.8827      1.00000
      4      -4.8827      1.00000
      5      -1.0282      1.00000
      6      -1.0282      1.00000
      7       0.1033      1.00000
      8       0.1033      1.00000
      9       9.6836      0.00000
     10       9.6836      0.00000
     11      12.5005      0.00000
     12      12.5005      0.00000
     13      14.6496      0.00000
     14      14.6496      0.00000

 k-point  25 :       0.5000    0.0000    0.5000
  band No.  band energies     occupation 
      1      -9.5320      1.00000
      2      -9.5320      1.00000
      3      -8.5095      1.00000
      4      -8.5095      1.00000
      5      -1.6664      1.00000
      6      -1.6664      1.00000
      7       2.3883      1.00000
      8       2.3883      1.00000
      9       6.4157      0.00000
     10       6.4157      0.00000
     11      12.1910      0.00000
     12      12.1910      0.00000
     13      17.3524      0.00000
     14      17.3524      0.00000

 k-point  26 :       0.1667    0.1667    0.5000
  band No.  band energies     occupation 
      1     -12.8502      1.00000
      2     -12.8502      1.00000
      3      -3.0063      1.00000
      4      -3.0063      1.00000
      5      -1.6663      1.00000
      6      -1.6663      1.00000
      7      -0.6068      1.00000
      8      -0.6068      1.00000
      9      11.1739      0.00000
     10      11.1739      0.00000
     11      13.7062      0.00000
     12      13.7062      0.00000
     13      14.9422      0.00000
     14      14.9422      0.00000

 k-point  27 :       0.3333    0.1667    0.5000
  band No.  band energies     occupation 
      1     -10.3539      1.00000
      2     -10.3539      1.00000
      3      -6.6606      1.00000
      4      -6.6606      1.00000
      5      -3.3039      1.00000
      6      -3.3039      1.00000
      7       2.0864      1.00000
      8       2.0864      1.00000
      9       7.2849      0.00000
     10       7.2849      0.00000
     11      14.7660      0.00000
     12      14.7660      0.00000
     13      15.9009      0.00000
     14      15.9009      0.00000

 k-point  28 :       0.3333    0.3333    0.5000
  band No.  band energies     occupation 
      1      -7.8780      1.00000
      2      -7.8780      1.00000
      3      -7.8152      1.00000
      4      -7.8152      1.00000
      5      -5.8371      1.00000
      6      -5.8371      1.00000
      7       4.6547      1.03208
      8       4.6547      1.03208
      9       4.8685     -0.00003
     10       4.8685     -0.00003
     11      14.9270      0.00000
     12      14.9270      0.00000
     13      18.4104      0.00000
     14      18.4104      0.00000


--------------------------------------------------------------------------------------------------------


 soft charge-density along one line, spin component           1
         0         1         2         3         4         5         6         7         8         9
 total charge-density along one line
 
 soft charge-density along one line, spin component           2
         0         1         2         3         4         5         6         7         8         9
 total charge-density along one line
 
 pseudopotential strength for first ion, spin component:           1
  9.779   0.005   0.000   0.000   0.000   0.000   0.000   0.000
  0.005  -0.002   0.000   0.000   0.000   0.000   0.000   0.000
  0.000   0.000  -3.940   0.000   0.000  -0.017   0.000   0.000
  0.000   0.000   0.000  -3.941   0.000   0.000  -0.014   0.000
  0.000   0.000   0.000   0.000  -3.940   0.000   0.000  -0.017
  0.000   0.000  -0.017   0.000   0.000  -0.763   0.000   0.000
  0.000   0.000   0.000  -0.014   0.000   0.000  -0.763   0.000
  0.000   0.000   0.000   0.000  -0.017   0.000   0.000  -0.763
 pseudopotential strength for first ion, spin component:           2
  9.761   0.005   0.000   0.000   0.000   0.000   0.000   0.000
  0.005  -0.002   0.000   0.000   0.000   0.000   0.000   0.000
  0.000   0.000  -3.940   0.000   0.000  -0.014   0.000   0.000
  0.000   0.000   0.000  -3.926   0.000   0.000  -0.010   0.000
  0.000   0.000   0.000   0.000  -3.940   0.000   0.000  -0.014
  0.000   0.000  -0.014   0.000   0.000  -0.763   0.000   0.000
  0.000   0.000   0.000  -0.010   0.000   0.000  -0.763   0.000
  0.000   0.000   0.000   0.000  -0.014   0.000   0.000  -0.763
 total augmentation occupancy for first ion, spin component:           1
  1.471  -1.152   0.000   0.000   0.000   0.000   0.000   0.000
 -1.152   1.107   0.000   0.000   0.000   0.000   0.000   0.000
  0.000   0.000   1.228   0.000   0.000   0.225   0.000   0.000
  0.000   0.000   0.000   0.938   0.000   0.000   0.105   0.000
  0.000   0.000   0.000   0.000   1.228   0.000   0.000   0.225
  0.000   0.000   0.225   0.000   0.000   0.047   0.000   0.000
  0.000   0.000   0.000   0.105   0.000   0.000   0.013   0.000
  0.000   0.000   0.000   0.000   0.225   0.000   0.000   0.047
 total augmentation occupancy for first ion, spin component:           2
  0.005  -0.002   0.000   0.000   0.000   0.000   0.000   0.000
 -0.002   0.000   0.000   0.000   0.000   0.000   0.000   0.000
  0.000   0.000   0.003   0.000   0.000   0.000   0.000   0.000
  0.000   0.000   0.000   0.091   0.000   0.000   0.002   0.000
  0.000   0.000   0.000   0.000   0.003   0.000   0.000   0.000
  0.000   0.000   0.000   0.000   0.000   0.000   0.000   0.000
  0.000   0.000   0.000   0.002   0.000   0.000   0.000   0.000
  0.000   0.000   0.000   0.000   0.000   0.000   0.000   0.000


------------------------ aborting loop because EDIFF is reached ----------------------------------------


 


 total charge     
 
# of ion     s       p       d       tot
----------------------------------------
  1        0.867   1.795   0.000   2.662
  2        0.868   1.792   0.000   2.660
  3        0.868   1.792   0.000   2.660
  4        0.867   1.795   0.000   2.662
------------------------------------------------
tot        3.470   7.174   0.000  10.645
 


 magnetization (x)
 
# of ion     s       p       d       tot
----------------------------------------
  1        0.003   0.046   0.000   0.049
  2       -0.002  -0.022   0.000  -0.024
  3       -0.002  -0.022   0.000  -0.024
  4        0.003   0.046   0.000   0.049
------------------------------------------------
tot        0.002   0.047   0.000   0.049
 
    CHARGE:  cpu time    0.39: real time    0.39
    FORLOC:  cpu time    0.01: real time    0.01
    FORNL :  cpu time    0.49: real time    0.49
    STRESS:  cpu time    0.60: real time    0.60
    FORHAR:  cpu time    0.05: real time    0.05
    MIXING:  cpu time    0.01: real time    0.01

  FORCE on cell =-STRESS in cart. coord.  units (eV):
  Direction    XX          YY          ZZ          XY          YZ          ZX
  --------------------------------------------------------------------------------------
  Alpha Z    37.04767    37.04767    37.04767
  Ewald      78.34827    78.34827  -617.29730     0.00000     0.00000     0.00000
  Hartree   161.32799   161.32799  -138.86033     0.00000     0.00000     0.00000
  E(xc)     -58.52441   -58.52441   -60.66213     0.00000     0.00000     0.00000
  Local    -442.60240  -442.60243   519.15408    -0.00002     0.00000     0.00000
  n-local   -13.82559   -14.56637   -12.96887    -0.64141     0.02329     0.02527
  augment    -1.56046    -1.56044    -1.42984     0.00002     0.00000     0.00000
  Kinetic   237.61006   244.23370   275.54308     5.22239    -0.30885    -0.34490
  Fock        0.00000     0.00000     0.00000     0.00000     0.00000     0.00000
  -------------------------------------------------------------------------------------
  Total       0.76256     0.76256     0.52635     0.00000     0.00000     0.00000
  in kB      34.71961    34.71961    23.96481     0.00000     0.00000     0.00000
  external pressure =       31.13 kB  Pullay stress =        0.00 kB


 VOLUME and BASIS-vectors are now :
 -----------------------------------------------------------------------------
  energy-cutoff  :      450.00
  volume of cell :       35.19
      direct lattice vectors                 reciprocal lattice vectors
     2.461200000  0.000000000  0.000000000     0.406305867  0.234580802  0.000000000
    -1.230600000  2.131461724  0.000000000     0.000000000  0.469161603  0.000000000
     0.000000000  0.000000000  6.707900000     0.000000000  0.000000000  0.149077953

  length of vectors
     2.461200000  2.461200000  6.707900000     0.469161603  0.469161603  0.149077953


 FORCES acting on ions
    electron-ion (+dipol)            ewald-force                    non-local-force                 convergence-correction
 -----------------------------------------------------------------------------------------------
   -.689E-06 0.398E-06 0.203E-14   0.624E-11 -.358E-11 -.182E-13   0.278E-16 -.555E-16 0.000E+00   -.261E-07 0.151E-07 -.974E-13
   0.688E-06 -.397E-06 -.875E-12   -.624E-11 0.358E-11 -.182E-13   0.555E-16 0.000E+00 0.000E+00   -.310E-07 0.179E-07 -.998E-13
   -.688E-06 0.397E-06 -.815E-14   -.126E-10 0.731E-11 0.182E-13   0.139E-16 0.000E+00 0.000E+00   0.310E-07 -.179E-07 0.627E-13
   0.689E-06 -.398E-06 -.293E-11   0.126E-10 -.731E-11 0.182E-13   0.139E-16 0.555E-16 0.000E+00   0.261E-07 -.151E-07 0.619E-13
 -----------------------------------------------------------------------------------------------
   0.115E-10 -.663E-11 -.381E-11   0.658E-14 -.737E-15 0.316E-29   0.111E-15 0.000E+00 0.000E+00   -.727E-14 0.146E-14 -.726E-13
 
 
 POSITION                                       TOTAL-FORCE (eV/Angst)
 -----------------------------------------------------------------------------------
      0.00000      0.00000      0.00000         0.000000      0.000000      0.000000
      0.00000      1.42097      0.00000         0.000000      0.000000      0.000000
      0.00000      1.42097      3.35395         0.000000      0.000000      0.000000
      1.23060      0.71049      3.35395         0.000000      0.000000      0.000000
 -----------------------------------------------------------------------------------
    total drift:                                0.000000      0.000000      0.000000


--------------------------------------------------------------------------------------------------------



  FREE ENERGIE OF THE ION-ELECTRON SYSTEM (eV)
  ---------------------------------------------------
  free  energy   TOTEN  =       -36.759911 eV

  energy  without entropy=      -36.760041  energy(sigma->0) =      -36.759955
 


--------------------------------------------------------------------------------------------------------


    POTLOK:  cpu time    0.45: real time    0.45


--------------------------------------------------------------------------------------------------------


 writing wavefunctions
     LOOP+:  cpu time   67.92: real time   68.19
    4ORBIT:  cpu time    0.00: real time    0.00
 


 total charge     
 
# of ion     s       p       d       tot
----------------------------------------
  1        0.867   1.795   0.000   2.662
  2        0.868   1.792   0.000   2.660
  3        0.868   1.792   0.000   2.660
  4        0.867   1.795   0.000   2.662
------------------------------------------------
tot        3.470   7.174   0.000  10.645
 


 magnetization (x)
 
# of ion     s       p       d       tot
----------------------------------------
  1        0.003   0.046   0.000   0.049
  2       -0.002  -0.022   0.000  -0.024
  3       -0.002  -0.022   0.000  -0.024
  4        0.003   0.046   0.000   0.049
------------------------------------------------
tot        0.002   0.047   0.000   0.049
 

 total amount of memory used by VASP on root node    56405. kBytes
========================================================================

   base      :      30000. kBytes
   nonl-proj :       1456. kBytes
   fftplans  :       4320. kBytes
   grid      :      10357. kBytes
   one-center:         24. kBytes
   wavefun   :      10248. kBytes
 
  
  
 General timing and accounting informations for this job:
 ========================================================
  
                  Total CPU time used (sec):       69.022
                            User time (sec):       68.777
                          System time (sec):        0.245
                         Elapsed time (sec):       69.421
  
                   Maximum memory used (kb):           0.
                   Average memory used (kb):           0.
  
                          Minor page faults:        40439
                          Major page faults:            0
                 Voluntary context switches:          653
