PROCAR lm decomposed
# of k-points:   28         # of bands:  14         # of ions:   4

 k-point    1 :    0.00000000 0.00000000 0.00000000     weight = 0.00462963

band   1 # energy  -14.98081514 # occ.  1.00000000
 
ion      s     py     pz     px    dxy    dyz    dz2    dxz    dx2    tot
  1  0.159  0.000  0.000  0.000  0.000  0.000  0.000  0.000  0.000  0.159
  2  0.158  0.000  0.000  0.000  0.000  0.000  0.000  0.000  0.000  0.158
  3  0.158  0.000  0.000  0.000  0.000  0.000  0.000  0.000  0.000  0.158
  4  0.159  0.000  0.000  0.000  0.000  0.000  0.000  0.000  0.000  0.159
tot  0.635  0.000  0.000  0.000  0.000  0.000  0.000  0.000  0.000  0.635
 
band   2 # energy  -14.68023339 # occ.  1.00000000
 
ion      s     py     pz     px    dxy    dyz    dz2    dxz    dx2    tot
  1  0.165  0.000  0.000  0.000  0.000  0.000  0.000  0.000  0.000  0.165
  2  0.164  0.000  0.000  0.000  0.000  0.000  0.000  0.000  0.000  0.164
  3  0.164  0.000  0.000  0.000  0.000  0.000  0.000  0.000  0.000  0.164
  4  0.165  0.000  0.000  0.000  0.000  0.000  0.000  0.000  0.000  0.165
tot  0.659  0.000  0.000  0.000  0.000  0.000  0.000  0.000  0.000  0.659
 
band   3 # energy   -3.85969782 # occ.  1.00000000
 
ion      s     py     pz     px    dxy    dyz    dz2    dxz    dx2    tot
  1  0.000  0.000  0.097  0.000  0.000  0.000  0.000  0.000  0.000  0.097
  2  0.000  0.000  0.095  0.000  0.000  0.000  0.000  0.000  0.000  0.095
  3  0.000  0.000  0.095  0.000  0.000  0.000  0.000  0.000  0.000  0.095
  4  0.000  0.000  0.097  0.000  0.000  0.000  0.000  0.000  0.000  0.097
tot  0.000  0.000  0.385  0.000  0.000  0.000  0.000  0.000  0.000  0.385
 
band   4 # energy   -1.89849542 # occ.  1.00000000
 
ion      s     py     pz     px    dxy    dyz    dz2    dxz    dx2    tot
  1  0.000  0.000  0.128  0.000  0.000  0.000  0.000  0.000  0.000  0.128
  2  0.000  0.000  0.124  0.000  0.000  0.000  0.000  0.000  0.000  0.124
  3  0.000  0.000  0.124  0.000  0.000  0.000  0.000  0.000  0.000  0.124
  4  0.000  0.000  0.128  0.000  0.000  0.000  0.000  0.000  0.000  0.128
tot  0.000  0.000  0.504  0.000  0.000  0.000  0.000  0.000  0.000  0.504
 
band   5 # energy    1.70969952 # occ.  1.00000000
 
ion      s     py     pz     px    dxy    dyz    dz2    dxz    dx2    tot
  1  0.000  0.052  0.000  0.155  0.000  0.000  0.000  0.000  0.000  0.206
  2  0.000  0.052  0.000  0.155  0.000  0.000  0.000  0.000  0.000  0.206
  3  0.000  0.052  0.000  0.155  0.000  0.000  0.000  0.000  0.000  0.206
  4  0.000  0.052  0.000  0.155  0.000  0.000  0.000  0.000  0.000  0.206
tot  0.000  0.206  0.000  0.619  0.000  0.000  0.000  0.000  0.000  0.825
 
band   6 # energy    1.70971057 # occ.  1.00000000
 
ion      s     py     pz     px    dxy    dyz    dz2    dxz    dx2    tot
  1  0.000  0.155  0.000  0.052  0.000  0.000  0.000  0.000  0.000  0.206
  2  0.000  0.155  0.000  0.052  0.000  0.000  0.000  0.000  0.000  0.206
  3  0.000  0.155  0.000  0.052  0.000  0.000  0.000  0.000  0.000  0.206
  4  0.000  0.155  0.000  0.052  0.000  0.000  0.000  0.000  0.000  0.206
tot  0.000  0.619  0.000  0.206  0.000  0.000  0.000  0.000  0.000  0.825
 
band   7 # energy    1.72835990 # occ.  1.00000000
 
ion      s     py     pz     px    dxy    dyz    dz2    dxz    dx2    tot
  1  0.000  0.052  0.000  0.156  0.000  0.000  0.000  0.000  0.000  0.208
  2  0.000  0.051  0.000  0.154  0.000  0.000  0.000  0.000  0.000  0.206
  3  0.000  0.051  0.000  0.154  0.000  0.000  0.000  0.000  0.000  0.206
  4  0.000  0.052  0.000  0.156  0.000  0.000  0.000  0.000  0.000  0.208
tot  0.000  0.207  0.000  0.620  0.000  0.000  0.000  0.000  0.000  0.827
 
band   8 # energy    1.72837089 # occ.  1.00000000
 
ion      s     py     pz     px    dxy    dyz    dz2    dxz    dx2    tot
  1  0.000  0.156  0.000  0.052  0.000  0.000  0.000  0.000  0.000  0.208
  2  0.000  0.154  0.000  0.051  0.000  0.000  0.000  0.000  0.000  0.206
  3  0.000  0.154  0.000  0.051  0.000  0.000  0.000  0.000  0.000  0.206
  4  0.000  0.156  0.000  0.052  0.000  0.000  0.000  0.000  0.000  0.208
tot  0.000  0.620  0.000  0.207  0.000  0.000  0.000  0.000  0.000  0.827
 
band   9 # energy    8.97341465 # occ.  0.00000000
 
ion      s     py     pz     px    dxy    dyz    dz2    dxz    dx2    tot
  1  0.021  0.000  0.000  0.000  0.000  0.000  0.000  0.000  0.000  0.021
  2  0.021  0.000  0.000  0.000  0.000  0.000  0.000  0.000  0.000  0.021
  3  0.021  0.000  0.000  0.000  0.000  0.000  0.000  0.000  0.000  0.021
  4  0.021  0.000  0.000  0.000  0.000  0.000  0.000  0.000  0.000  0.021
tot  0.084  0.000  0.000  0.000  0.000  0.000  0.000  0.000  0.000  0.084
 
band  10 # energy   13.08126503 # occ.  0.00000000
 
ion      s     py     pz     px    dxy    dyz    dz2    dxz    dx2    tot
  1  0.000  0.032  0.000  0.097  0.000  0.000  0.000  0.000  0.000  0.129
  2  0.000  0.033  0.000  0.100  0.000  0.000  0.000  0.000  0.000  0.133
  3  0.000  0.033  0.000  0.100  0.000  0.000  0.000  0.000  0.000  0.133
  4  0.000  0.032  0.000  0.097  0.000  0.000  0.000  0.000  0.000  0.129
tot  0.000  0.131  0.000  0.392  0.000  0.000  0.000  0.000  0.000  0.523
 
band  11 # energy   13.08127539 # occ.  0.00000000
 
ion      s     py     pz     px    dxy    dyz    dz2    dxz    dx2    tot
  1  0.000  0.097  0.000  0.032  0.000  0.000  0.000  0.000  0.000  0.129
  2  0.000  0.100  0.000  0.033  0.000  0.000  0.000  0.000  0.000  0.133
  3  0.000  0.100  0.000  0.033  0.000  0.000  0.000  0.000  0.000  0.133
  4  0.000  0.097  0.000  0.032  0.000  0.000  0.000  0.000  0.000  0.129
tot  0.000  0.392  0.000  0.131  0.000  0.000  0.000  0.000  0.000  0.523
 
band  12 # energy   13.13541794 # occ.  0.00000000
 
ion      s     py     pz     px    dxy    dyz    dz2    dxz    dx2    tot
  1  0.000  0.033  0.000  0.100  0.000  0.000  0.000  0.000  0.000  0.133
  2  0.000  0.033  0.000  0.098  0.000  0.000  0.000  0.000  0.000  0.131
  3  0.000  0.033  0.000  0.098  0.000  0.000  0.000  0.000  0.000  0.131
  4  0.000  0.033  0.000  0.100  0.000  0.000  0.000  0.000  0.000  0.133
tot  0.000  0.132  0.000  0.395  0.000  0.000  0.000  0.000  0.000  0.527
 
band  13 # energy   13.13542815 # occ.  0.00000000
 
ion      s     py     pz     px    dxy    dyz    dz2    dxz    dx2    tot
  1  0.000  0.100  0.000  0.033  0.000  0.000  0.000  0.000  0.000  0.133
  2  0.000  0.098  0.000  0.033  0.000  0.000  0.000  0.000  0.000  0.131
  3  0.000  0.098  0.000  0.033  0.000  0.000  0.000  0.000  0.000  0.131
  4  0.000  0.100  0.000  0.033  0.000  0.000  0.000  0.000  0.000  0.133
tot  0.000  0.395  0.000  0.132  0.000  0.000  0.000  0.000  0.000  0.527
 
band  14 # energy   15.75034600 # occ.  0.00000000
 
ion      s     py     pz     px    dxy    dyz    dz2    dxz    dx2    tot
  1  0.000  0.000  0.108  0.000  0.000  0.000  0.000  0.000  0.000  0.109
  2  0.000  0.000  0.155  0.000  0.000  0.000  0.000  0.000  0.000  0.155
  3  0.000  0.000  0.147  0.000  0.000  0.000  0.000  0.000  0.000  0.147
  4  0.000  0.000  0.109  0.000  0.000  0.000  0.000  0.000  0.000  0.110
tot  0.001  0.000  0.519  0.000  0.000  0.000  0.000  0.000  0.000  0.520
 

 k-point    2 :    0.16666667 0.00000000 0.00000000     weight = 0.02777778

band   1 # energy  -14.31747824 # occ.  1.00000000
 
ion      s     py     pz     px    dxy    dyz    dz2    dxz    dx2    tot
  1  0.154  0.002  0.000  0.005  0.000  0.000  0.000  0.000  0.000  0.161
  2  0.153  0.002  0.000  0.005  0.000  0.000  0.000  0.000  0.000  0.160
  3  0.153  0.002  0.000  0.005  0.000  0.000  0.000  0.000  0.000  0.160
  4  0.154  0.002  0.000  0.005  0.000  0.000  0.000  0.000  0.000  0.161
tot  0.616  0.007  0.000  0.020  0.000  0.000  0.000  0.000  0.000  0.643
 
band   2 # energy  -14.02903548 # occ.  1.00000000
 
ion      s     py     pz     px    dxy    dyz    dz2    dxz    dx2    tot
  1  0.160  0.002  0.000  0.005  0.000  0.000  0.000  0.000  0.000  0.167
  2  0.158  0.002  0.000  0.005  0.000  0.000  0.000  0.000  0.000  0.166
  3  0.158  0.002  0.000  0.005  0.000  0.000  0.000  0.000  0.000  0.166
  4  0.160  0.002  0.000  0.005  0.000  0.000  0.000  0.000  0.000  0.167
tot  0.637  0.007  0.000  0.021  0.000  0.000  0.000  0.000  0.000  0.665
 
band   3 # energy   -3.05689106 # occ.  1.00000000
 
ion      s     py     pz     px    dxy    dyz    dz2    dxz    dx2    tot
  1  0.000  0.000  0.099  0.000  0.000  0.000  0.000  0.000  0.000  0.099
  2  0.000  0.000  0.096  0.000  0.000  0.000  0.000  0.000  0.000  0.096
  3  0.000  0.000  0.096  0.000  0.000  0.000  0.000  0.000  0.000  0.096
  4  0.000  0.000  0.099  0.000  0.000  0.000  0.000  0.000  0.000  0.099
tot  0.000  0.000  0.390  0.000  0.000  0.000  0.000  0.000  0.000  0.390
 
band   4 # energy   -1.15022358 # occ.  1.00000000
 
ion      s     py     pz     px    dxy    dyz    dz2    dxz    dx2    tot
  1  0.000  0.000  0.130  0.000  0.000  0.000  0.000  0.000  0.000  0.130
  2  0.000  0.000  0.125  0.000  0.000  0.000  0.000  0.000  0.000  0.125
  3  0.000  0.000  0.125  0.000  0.000  0.000  0.000  0.000  0.000  0.125
  4  0.000  0.000  0.130  0.000  0.000  0.000  0.000  0.000  0.000  0.130
tot  0.000  0.000  0.508  0.000  0.000  0.000  0.000  0.000  0.000  0.508
 
band   5 # energy   -0.61350288 # occ.  1.00000000
 
ion      s     py     pz     px    dxy    dyz    dz2    dxz    dx2    tot
  1  0.029  0.042  0.000  0.126  0.000  0.000  0.000  0.000  0.000  0.196
  2  0.029  0.042  0.000  0.125  0.000  0.000  0.000  0.000  0.000  0.196
  3  0.029  0.042  0.000  0.125  0.000  0.000  0.000  0.000  0.000  0.196
  4  0.029  0.042  0.000  0.126  0.000  0.000  0.000  0.000  0.000  0.196
tot  0.114  0.167  0.000  0.502  0.000  0.000  0.000  0.000  0.000  0.784
 
band   6 # energy   -0.54943933 # occ.  1.00000000
 
ion      s     py     pz     px    dxy    dyz    dz2    dxz    dx2    tot
  1  0.029  0.042  0.000  0.127  0.000  0.000  0.000  0.000  0.000  0.198
  2  0.029  0.042  0.000  0.126  0.000  0.000  0.000  0.000  0.000  0.197
  3  0.029  0.042  0.000  0.126  0.000  0.000  0.000  0.000  0.000  0.197
  4  0.029  0.042  0.000  0.127  0.000  0.000  0.000  0.000  0.000  0.198
tot  0.115  0.169  0.000  0.506  0.000  0.000  0.000  0.000  0.000  0.790
 
band   7 # energy    0.56154890 # occ.  1.00000000
 
ion      s     py     pz     px    dxy    dyz    dz2    dxz    dx2    tot
  1  0.000  0.151  0.000  0.050  0.000  0.000  0.000  0.000  0.000  0.201
  2  0.000  0.150  0.000  0.050  0.000  0.000  0.000  0.000  0.000  0.200
  3  0.000  0.150  0.000  0.050  0.000  0.000  0.000  0.000  0.000  0.200
  4  0.000  0.151  0.000  0.050  0.000  0.000  0.000  0.000  0.000  0.201
tot  0.000  0.602  0.000  0.201  0.000  0.000  0.000  0.000  0.000  0.803
 
band   8 # energy    0.60172105 # occ.  1.00000000
 
ion      s     py     pz     px    dxy    dyz    dz2    dxz    dx2    tot
  1  0.000  0.151  0.000  0.050  0.000  0.000  0.000  0.000  0.000  0.202
  2  0.000  0.151  0.000  0.050  0.000  0.000  0.000  0.000  0.000  0.201
  3  0.000  0.151  0.000  0.050  0.000  0.000  0.000  0.000  0.000  0.201
  4  0.000  0.151  0.000  0.050  0.000  0.000  0.000  0.000  0.000  0.202
tot  0.000  0.605  0.000  0.202  0.000  0.000  0.000  0.000  0.000  0.806
 
band   9 # energy    9.77743974 # occ.  0.00000000
 
ion      s     py     pz     px    dxy    dyz    dz2    dxz    dx2    tot
  1  0.017  0.001  0.000  0.003  0.000  0.000  0.000  0.000  0.000  0.022
  2  0.017  0.001  0.000  0.003  0.000  0.000  0.000  0.000  0.000  0.022
  3  0.017  0.001  0.000  0.003  0.000  0.000  0.000  0.000  0.000  0.022
  4  0.017  0.001  0.000  0.003  0.000  0.000  0.000  0.000  0.000  0.022
tot  0.070  0.004  0.000  0.013  0.000  0.000  0.000  0.000  0.000  0.086
 
band  10 # energy   13.03058060 # occ.  0.00000000
 
ion      s     py     pz     px    dxy    dyz    dz2    dxz    dx2    tot
  1  0.030  0.022  0.000  0.065  0.000  0.000  0.000  0.000  0.000  0.117
  2  0.032  0.023  0.000  0.069  0.000  0.000  0.000  0.000  0.000  0.124
  3  0.032  0.023  0.000  0.069  0.000  0.000  0.000  0.000  0.000  0.124
  4  0.030  0.022  0.000  0.065  0.000  0.000  0.000  0.000  0.000  0.117
tot  0.123  0.090  0.000  0.270  0.000  0.000  0.000  0.000  0.000  0.483
 
band  11 # energy   13.21618290 # occ.  0.00000000
 
ion      s     py     pz     px    dxy    dyz    dz2    dxz    dx2    tot
  1  0.034  0.023  0.000  0.069  0.000  0.000  0.000  0.000  0.000  0.126
  2  0.032  0.022  0.000  0.067  0.000  0.000  0.000  0.000  0.000  0.121
  3  0.032  0.022  0.000  0.067  0.000  0.000  0.000  0.000  0.000  0.121
  4  0.034  0.023  0.000  0.069  0.000  0.000  0.000  0.000  0.000  0.126
tot  0.131  0.091  0.000  0.272  0.000  0.000  0.000  0.000  0.000  0.494
 
band  12 # energy   13.89680411 # occ.  0.00000000
 
ion      s     py     pz     px    dxy    dyz    dz2    dxz    dx2    tot
  1  0.000  0.000  0.160  0.000  0.000  0.000  0.000  0.000  0.000  0.160
  2  0.000  0.000  0.174  0.000  0.000  0.000  0.000  0.000  0.000  0.174
  3  0.000  0.000  0.174  0.000  0.000  0.000  0.000  0.000  0.000  0.174
  4  0.000  0.000  0.160  0.000  0.000  0.000  0.000  0.000  0.000  0.160
tot  0.000  0.000  0.668  0.000  0.000  0.000  0.000  0.000  0.000  0.668
 
band  13 # energy   14.27500616 # occ.  0.00000000
 
ion      s     py     pz     px    dxy    dyz    dz2    dxz    dx2    tot
  1  0.000  0.000  0.182  0.000  0.000  0.000  0.000  0.000  0.000  0.182
  2  0.000  0.000  0.170  0.000  0.000  0.000  0.000  0.000  0.000  0.170
  3  0.000  0.000  0.170  0.000  0.000  0.000  0.000  0.000  0.000  0.170
  4  0.000  0.000  0.182  0.000  0.000  0.000  0.000  0.000  0.000  0.182
tot  0.000  0.000  0.703  0.000  0.000  0.000  0.000  0.000  0.000  0.703
 
band  14 # energy   15.64132892 # occ.  0.00000000
 
ion      s     py     pz     px    dxy    dyz    dz2    dxz    dx2    tot
  1  0.000  0.151  0.000  0.051  0.000  0.000  0.000  0.000  0.000  0.202
  2  0.000  0.155  0.000  0.051  0.000  0.000  0.000  0.000  0.000  0.205
  3  0.000  0.058  0.000  0.020  0.000  0.000  0.000  0.000  0.000  0.079
  4  0.000  0.057  0.000  0.019  0.000  0.000  0.000  0.000  0.000  0.076
tot  0.000  0.422  0.000  0.140  0.000  0.000  0.000  0.000  0.000  0.562
 

 k-point    3 :    0.33333333 0.00000000 0.00000000     weight = 0.02777778

band   1 # energy  -12.36144565 # occ.  1.00000000
 
ion      s     py     pz     px    dxy    dyz    dz2    dxz    dx2    tot
  1  0.141  0.006  0.000  0.019  0.000  0.000  0.000  0.000  0.000  0.167
  2  0.139  0.007  0.000  0.020  0.000  0.000  0.000  0.000  0.000  0.165
  3  0.139  0.007  0.000  0.020  0.000  0.000  0.000  0.000  0.000  0.165
  4  0.141  0.006  0.000  0.019  0.000  0.000  0.000  0.000  0.000  0.167
tot  0.560  0.026  0.000  0.078  0.000  0.000  0.000  0.000  0.000  0.665
 
band   2 # energy  -12.10810419 # occ.  1.00000000
 
ion      s     py     pz     px    dxy    dyz    dz2    dxz    dx2    tot
  1  0.145  0.007  0.000  0.020  0.000  0.000  0.000  0.000  0.000  0.172
  2  0.143  0.007  0.000  0.020  0.000  0.000  0.000  0.000  0.000  0.170
  3  0.143  0.007  0.000  0.020  0.000  0.000  0.000  0.000  0.000  0.170
  4  0.145  0.007  0.000  0.020  0.000  0.000  0.000  0.000  0.000  0.172
tot  0.577  0.027  0.000  0.081  0.000  0.000  0.000  0.000  0.000  0.685
 
band   3 # energy   -4.97003139 # occ.  1.00000000
 
ion      s     py     pz     px    dxy    dyz    dz2    dxz    dx2    tot
  1  0.068  0.029  0.000  0.086  0.000  0.000  0.000  0.000  0.000  0.182
  2  0.068  0.028  0.000  0.085  0.000  0.000  0.000  0.000  0.000  0.182
  3  0.068  0.028  0.000  0.085  0.000  0.000  0.000  0.000  0.000  0.182
  4  0.068  0.029  0.000  0.086  0.000  0.000  0.000  0.000  0.000  0.182
tot  0.272  0.114  0.000  0.342  0.000  0.000  0.000  0.000  0.000  0.728
 
band   4 # energy   -4.83619245 # occ.  1.00000000
 
ion      s     py     pz     px    dxy    dyz    dz2    dxz    dx2    tot
  1  0.069  0.029  0.000  0.087  0.000  0.000  0.000  0.000  0.000  0.185
  2  0.069  0.029  0.000  0.086  0.000  0.000  0.000  0.000  0.000  0.185
  3  0.069  0.029  0.000  0.086  0.000  0.000  0.000  0.000  0.000  0.185
  4  0.069  0.029  0.000  0.087  0.000  0.000  0.000  0.000  0.000  0.185
tot  0.277  0.116  0.000  0.348  0.000  0.000  0.000  0.000  0.000  0.740
 
band   5 # energy   -1.06599474 # occ.  1.00000000
 
ion      s     py     pz     px    dxy    dyz    dz2    dxz    dx2    tot
  1  0.000  0.148  0.000  0.049  0.000  0.000  0.000  0.000  0.000  0.197
  2  0.000  0.147  0.000  0.049  0.000  0.000  0.000  0.000  0.000  0.197
  3  0.000  0.147  0.000  0.049  0.000  0.000  0.000  0.000  0.000  0.197
  4  0.000  0.148  0.000  0.049  0.000  0.000  0.000  0.000  0.000  0.197
tot  0.000  0.591  0.000  0.197  0.000  0.000  0.000  0.000  0.000  0.787
 
band   6 # energy   -1.01344637 # occ.  1.00000000
 
ion      s     py     pz     px    dxy    dyz    dz2    dxz    dx2    tot
  1  0.000  0.149  0.000  0.050  0.000  0.000  0.000  0.000  0.000  0.198
  2  0.000  0.148  0.000  0.049  0.000  0.000  0.000  0.000  0.000  0.198
  3  0.000  0.148  0.000  0.049  0.000  0.000  0.000  0.000  0.000  0.198
  4  0.000  0.149  0.000  0.050  0.000  0.000  0.000  0.000  0.000  0.198
tot  0.000  0.594  0.000  0.198  0.000  0.000  0.000  0.000  0.000  0.792
 
band   7 # energy   -0.74288308 # occ.  1.00000000
 
ion      s     py     pz     px    dxy    dyz    dz2    dxz    dx2    tot
  1  0.000  0.000  0.104  0.000  0.000  0.000  0.000  0.000  0.000  0.104
  2  0.000  0.000  0.102  0.000  0.000  0.000  0.000  0.000  0.000  0.102
  3  0.000  0.000  0.102  0.000  0.000  0.000  0.000  0.000  0.000  0.102
  4  0.000  0.000  0.104  0.000  0.000  0.000  0.000  0.000  0.000  0.104
tot  0.000  0.000  0.413  0.000  0.000  0.000  0.000  0.000  0.000  0.413
 
band   8 # energy    0.93855578 # occ.  1.00000000
 
ion      s     py     pz     px    dxy    dyz    dz2    dxz    dx2    tot
  1  0.000  0.000  0.137  0.000  0.000  0.000  0.000  0.000  0.000  0.137
  2  0.000  0.000  0.126  0.000  0.000  0.000  0.000  0.000  0.000  0.126
  3  0.000  0.000  0.126  0.000  0.000  0.000  0.000  0.000  0.000  0.126
  4  0.000  0.000  0.137  0.000  0.000  0.000  0.000  0.000  0.000  0.137
tot  0.000  0.000  0.526  0.000  0.000  0.000  0.000  0.000  0.000  0.526
 
band   9 # energy    9.21495551 # occ.  0.00000000
 
ion      s     py     pz     px    dxy    dyz    dz2    dxz    dx2    tot
  1  0.000  0.000  0.113  0.000  0.000  0.000  0.000  0.000  0.000  0.113
  2  0.000  0.000  0.139  0.000  0.000  0.000  0.000  0.000  0.000  0.139
  3  0.000  0.000  0.139  0.000  0.000  0.000  0.000  0.000  0.000  0.139
  4  0.000  0.000  0.113  0.000  0.000  0.000  0.000  0.000  0.000  0.113
tot  0.000  0.000  0.505  0.000  0.000  0.000  0.000  0.000  0.000  0.505
 
band  10 # energy   10.09872909 # occ.  0.00000000
 
ion      s     py     pz     px    dxy    dyz    dz2    dxz    dx2    tot
  1  0.000  0.000  0.157  0.000  0.000  0.000  0.000  0.000  0.000  0.157
  2  0.000  0.000  0.140  0.000  0.000  0.000  0.000  0.000  0.000  0.140
  3  0.000  0.000  0.140  0.000  0.000  0.000  0.000  0.000  0.000  0.140
  4  0.000  0.000  0.157  0.000  0.000  0.000  0.000  0.000  0.000  0.157
tot  0.000  0.000  0.594  0.000  0.000  0.000  0.000  0.000  0.000  0.594
 
band  11 # energy   12.07723756 # occ.  0.00000000
 
ion      s     py     pz     px    dxy    dyz    dz2    dxz    dx2    tot
  1  0.027  0.008  0.000  0.023  0.000  0.000  0.000  0.000  0.000  0.058
  2  0.008  0.007  0.000  0.022  0.000  0.000  0.000  0.000  0.000  0.037
  3  0.008  0.007  0.000  0.022  0.000  0.000  0.000  0.000  0.000  0.037
  4  0.027  0.008  0.000  0.023  0.000  0.000  0.000  0.000  0.000  0.058
tot  0.070  0.030  0.000  0.091  0.000  0.000  0.000  0.000  0.000  0.191
 
band  12 # energy   12.36432971 # occ.  0.00000000
 
ion      s     py     pz     px    dxy    dyz    dz2    dxz    dx2    tot
  1  0.054  0.007  0.000  0.021  0.000  0.000  0.000  0.000  0.000  0.082
  2  0.090  0.008  0.000  0.024  0.000  0.000  0.000  0.000  0.000  0.122
  3  0.090  0.008  0.000  0.024  0.000  0.000  0.000  0.000  0.000  0.122
  4  0.054  0.007  0.000  0.021  0.000  0.000  0.000  0.000  0.000  0.082
tot  0.288  0.030  0.000  0.091  0.000  0.000  0.000  0.000  0.000  0.409
 
band  13 # energy   12.76359962 # occ.  0.00000000
 
ion      s     py     pz     px    dxy    dyz    dz2    dxz    dx2    tot
  1  0.091  0.005  0.000  0.015  0.000  0.000  0.000  0.000  0.000  0.111
  2  0.074  0.005  0.000  0.014  0.000  0.000  0.000  0.000  0.000  0.093
  3  0.074  0.005  0.000  0.014  0.000  0.000  0.000  0.000  0.000  0.093
  4  0.091  0.005  0.000  0.015  0.000  0.000  0.000  0.000  0.000  0.111
tot  0.330  0.020  0.000  0.059  0.000  0.000  0.000  0.000  0.000  0.409
 
band  14 # energy   17.43817049 # occ.  0.00000000
 
ion      s     py     pz     px    dxy    dyz    dz2    dxz    dx2    tot
  1  0.000  0.000  0.088  0.000  0.000  0.000  0.000  0.000  0.000  0.088
  2  0.000  0.000  0.070  0.000  0.000  0.000  0.000  0.000  0.000  0.070
  3  0.000  0.000  0.070  0.000  0.000  0.000  0.000  0.000  0.000  0.070
  4  0.000  0.000  0.088  0.000  0.000  0.000  0.000  0.000  0.000  0.088
tot  0.000  0.000  0.315  0.000  0.000  0.000  0.000  0.000  0.000  0.315
 

 k-point    4 :    0.50000000 0.00000000 0.00000000     weight = 0.01388889

band   1 # energy   -9.62140546 # occ.  1.00000000
 
ion      s     py     pz     px    dxy    dyz    dz2    dxz    dx2    tot
  1  0.139  0.009  0.000  0.028  0.000  0.000  0.000  0.000  0.000  0.176
  2  0.160  0.006  0.000  0.019  0.000  0.000  0.000  0.000  0.000  0.185
  3  0.160  0.006  0.000  0.019  0.000  0.000  0.000  0.000  0.000  0.185
  4  0.139  0.009  0.000  0.028  0.000  0.000  0.000  0.000  0.000  0.176
tot  0.596  0.032  0.000  0.095  0.000  0.000  0.000  0.000  0.000  0.723
 
band   2 # energy   -9.51718151 # occ.  1.00000000
 
ion      s     py     pz     px    dxy    dyz    dz2    dxz    dx2    tot
  1  0.172  0.005  0.000  0.016  0.000  0.000  0.000  0.000  0.000  0.193
  2  0.128  0.011  0.000  0.033  0.000  0.000  0.000  0.000  0.000  0.172
  3  0.128  0.011  0.000  0.033  0.000  0.000  0.000  0.000  0.000  0.172
  4  0.172  0.005  0.000  0.016  0.000  0.000  0.000  0.000  0.000  0.193
tot  0.600  0.033  0.000  0.098  0.000  0.000  0.000  0.000  0.000  0.731
 
band   3 # energy   -8.55811919 # occ.  1.00000000
 
ion      s     py     pz     px    dxy    dyz    dz2    dxz    dx2    tot
  1  0.046  0.028  0.000  0.083  0.000  0.000  0.000  0.000  0.000  0.157
  2  0.093  0.021  0.000  0.063  0.000  0.000  0.000  0.000  0.000  0.177
  3  0.093  0.021  0.000  0.063  0.000  0.000  0.000  0.000  0.000  0.177
  4  0.046  0.028  0.000  0.083  0.000  0.000  0.000  0.000  0.000  0.157
tot  0.279  0.097  0.000  0.291  0.000  0.000  0.000  0.000  0.000  0.668
 
band   4 # energy   -8.48058926 # occ.  1.00000000
 
ion      s     py     pz     px    dxy    dyz    dz2    dxz    dx2    tot
  1  0.083  0.023  0.000  0.069  0.000  0.000  0.000  0.000  0.000  0.174
  2  0.057  0.026  0.000  0.079  0.000  0.000  0.000  0.000  0.000  0.163
  3  0.057  0.026  0.000  0.079  0.000  0.000  0.000  0.000  0.000  0.163
  4  0.083  0.023  0.000  0.069  0.000  0.000  0.000  0.000  0.000  0.174
tot  0.279  0.099  0.000  0.296  0.000  0.000  0.000  0.000  0.000  0.674
 
band   5 # energy   -1.70548219 # occ.  1.00000000
 
ion      s     py     pz     px    dxy    dyz    dz2    dxz    dx2    tot
  1  0.000  0.147  0.000  0.049  0.000  0.000  0.000  0.000  0.000  0.196
  2  0.000  0.147  0.000  0.049  0.000  0.000  0.000  0.000  0.000  0.196
  3  0.000  0.147  0.000  0.049  0.000  0.000  0.000  0.000  0.000  0.196
  4  0.000  0.147  0.000  0.049  0.000  0.000  0.000  0.000  0.000  0.196
tot  0.000  0.589  0.000  0.196  0.000  0.000  0.000  0.000  0.000  0.785
 
band   6 # energy   -1.65021038 # occ.  1.00000000
 
ion      s     py     pz     px    dxy    dyz    dz2    dxz    dx2    tot
  1  0.000  0.148  0.000  0.049  0.000  0.000  0.000  0.000  0.000  0.198
  2  0.000  0.148  0.000  0.049  0.000  0.000  0.000  0.000  0.000  0.197
  3  0.000  0.148  0.000  0.049  0.000  0.000  0.000  0.000  0.000  0.197
  4  0.000  0.148  0.000  0.049  0.000  0.000  0.000  0.000  0.000  0.198
tot  0.000  0.592  0.000  0.197  0.000  0.000  0.000  0.000  0.000  0.790
 
band   7 # energy    1.92136187 # occ.  1.00000000
 
ion      s     py     pz     px    dxy    dyz    dz2    dxz    dx2    tot
  1  0.000  0.000  0.103  0.000  0.000  0.000  0.000  0.000  0.000  0.103
  2  0.000  0.000  0.138  0.000  0.000  0.000  0.000  0.000  0.000  0.138
  3  0.000  0.000  0.138  0.000  0.000  0.000  0.000  0.000  0.000  0.138
  4  0.000  0.000  0.103  0.000  0.000  0.000  0.000  0.000  0.000  0.103
tot  0.000  0.000  0.482  0.000  0.000  0.000  0.000  0.000  0.000  0.482
 
band   8 # energy    2.56023987 # occ.  1.00000000
 
ion      s     py     pz     px    dxy    dyz    dz2    dxz    dx2    tot
  1  0.000  0.000  0.168  0.000  0.000  0.000  0.000  0.000  0.000  0.168
  2  0.000  0.000  0.091  0.000  0.000  0.000  0.000  0.000  0.000  0.091
  3  0.000  0.000  0.091  0.000  0.000  0.000  0.000  0.000  0.000  0.091
  4  0.000  0.000  0.168  0.000  0.000  0.000  0.000  0.000  0.000  0.168
tot  0.000  0.000  0.517  0.000  0.000  0.000  0.000  0.000  0.000  0.517
 
band   9 # energy    6.23165939 # occ.  0.00000000
 
ion      s     py     pz     px    dxy    dyz    dz2    dxz    dx2    tot
  1  0.000  0.000  0.051  0.000  0.000  0.000  0.000  0.000  0.000  0.051
  2  0.000  0.000  0.174  0.000  0.000  0.000  0.000  0.000  0.000  0.174
  3  0.000  0.000  0.174  0.000  0.000  0.000  0.000  0.000  0.000  0.174
  4  0.000  0.000  0.051  0.000  0.000  0.000  0.000  0.000  0.000  0.051
tot  0.000  0.000  0.449  0.000  0.000  0.000  0.000  0.000  0.000  0.449
 
band  10 # energy    6.83850919 # occ.  0.00000000
 
ion      s     py     pz     px    dxy    dyz    dz2    dxz    dx2    tot
  1  0.000  0.000  0.169  0.000  0.000  0.000  0.000  0.000  0.000  0.169
  2  0.000  0.000  0.084  0.000  0.000  0.000  0.000  0.000  0.000  0.084
  3  0.000  0.000  0.084  0.000  0.000  0.000  0.000  0.000  0.000  0.084
  4  0.000  0.000  0.169  0.000  0.000  0.000  0.000  0.000  0.000  0.169
tot  0.000  0.000  0.505  0.000  0.000  0.000  0.000  0.000  0.000  0.505
 
band  11 # energy   11.95973358 # occ.  0.00000000
 
ion      s     py     pz     px    dxy    dyz    dz2    dxz    dx2    tot
  1  0.090  0.005  0.000  0.015  0.000  0.000  0.000  0.000  0.000  0.110
  2  0.091  0.005  0.000  0.015  0.000  0.000  0.000  0.000  0.000  0.111
  3  0.091  0.005  0.000  0.015  0.000  0.000  0.000  0.000  0.000  0.111
  4  0.090  0.005  0.000  0.015  0.000  0.000  0.000  0.000  0.000  0.110
tot  0.362  0.020  0.000  0.059  0.000  0.000  0.000  0.000  0.000  0.440
 
band  12 # energy   12.35624677 # occ.  0.00000000
 
ion      s     py     pz     px    dxy    dyz    dz2    dxz    dx2    tot
  1  0.095  0.005  0.000  0.015  0.000  0.000  0.000  0.000  0.000  0.115
  2  0.096  0.005  0.000  0.016  0.000  0.000  0.000  0.000  0.000  0.117
  3  0.096  0.005  0.000  0.016  0.000  0.000  0.000  0.000  0.000  0.117
  4  0.095  0.005  0.000  0.015  0.000  0.000  0.000  0.000  0.000  0.115
tot  0.383  0.020  0.000  0.061  0.000  0.000  0.000  0.000  0.000  0.464
 
band  13 # energy   16.01501433 # occ.  0.00000000
 
ion      s     py     pz     px    dxy    dyz    dz2    dxz    dx2    tot
  1  0.002  0.011  0.000  0.032  0.000  0.000  0.000  0.000  0.000  0.045
  2  0.009  0.001  0.000  0.002  0.000  0.000  0.000  0.000  0.000  0.012
  3  0.009  0.001  0.000  0.002  0.000  0.000  0.000  0.000  0.000  0.012
  4  0.002  0.011  0.000  0.032  0.000  0.000  0.000  0.000  0.000  0.045
tot  0.023  0.022  0.000  0.067  0.000  0.000  0.000  0.000  0.000  0.113
 
band  14 # energy   16.10115345 # occ.  0.00000000
 
ion      s     py     pz     px    dxy    dyz    dz2    dxz    dx2    tot
  1  0.007  0.001  0.000  0.003  0.000  0.000  0.000  0.000  0.000  0.011
  2  0.000  0.011  0.000  0.034  0.000  0.000  0.000  0.000  0.000  0.045
  3  0.000  0.011  0.000  0.034  0.000  0.000  0.000  0.000  0.000  0.045
  4  0.007  0.001  0.000  0.003  0.000  0.000  0.000  0.000  0.000  0.011
tot  0.015  0.025  0.000  0.074  0.000  0.000  0.000  0.000  0.000  0.113
 

 k-point    5 :    0.16666667 0.16666667 0.00000000     weight = 0.02777778

band   1 # energy  -13.00765518 # occ.  1.00000000
 
ion      s     py     pz     px    dxy    dyz    dz2    dxz    dx2    tot
  1  0.145  0.015  0.000  0.005  0.000  0.000  0.000  0.000  0.000  0.165
  2  0.144  0.015  0.000  0.005  0.000  0.000  0.000  0.000  0.000  0.164
  3  0.144  0.015  0.000  0.005  0.000  0.000  0.000  0.000  0.000  0.164
  4  0.145  0.015  0.000  0.005  0.000  0.000  0.000  0.000  0.000  0.165
tot  0.577  0.060  0.000  0.020  0.000  0.000  0.000  0.000  0.000  0.657
 
band   2 # energy  -12.74272292 # occ.  1.00000000
 
ion      s     py     pz     px    dxy    dyz    dz2    dxz    dx2    tot
  1  0.150  0.015  0.000  0.005  0.000  0.000  0.000  0.000  0.000  0.170
  2  0.148  0.016  0.000  0.005  0.000  0.000  0.000  0.000  0.000  0.169
  3  0.148  0.016  0.000  0.005  0.000  0.000  0.000  0.000  0.000  0.169
  4  0.150  0.015  0.000  0.005  0.000  0.000  0.000  0.000  0.000  0.170
tot  0.595  0.062  0.000  0.021  0.000  0.000  0.000  0.000  0.000  0.678
 
band   3 # energy   -3.05491496 # occ.  1.00000000
 
ion      s     py     pz     px    dxy    dyz    dz2    dxz    dx2    tot
  1  0.060  0.087  0.000  0.046  0.000  0.000  0.000  0.000  0.000  0.193
  2  0.062  0.089  0.000  0.043  0.000  0.000  0.000  0.000  0.000  0.194
  3  0.062  0.089  0.000  0.043  0.000  0.000  0.000  0.000  0.000  0.194
  4  0.060  0.087  0.000  0.046  0.000  0.000  0.000  0.000  0.000  0.193
tot  0.242  0.352  0.000  0.178  0.000  0.000  0.000  0.000  0.000  0.773
 
band   4 # energy   -3.00121181 # occ.  1.00000000
 