<?xml version="1.0" encoding="ISO-8859-1"?>
<modeling>
 <generator>
  <i name="program" type="string">vasp </i>
  <i name="version" type="string">5.2.12  </i>
  <i name="subversion" type="string">11Nov11 complex                                                      parallel </i>
  <i name="platform" type="string">LinuxIFC </i>
  <i name="date" type="string">2012 10 17 </i>
  <i name="time" type="string">09:53:37 </i>
 </generator>
 <incar>
  <i type="int" name="ISTART">     0</i>
  <i type="string" name="PREC">accurate</i>
  <i type="int" name="ISPIN">     2</i>
  <i name="ENCUT">    450.00000000</i>
  <i type="int" name="NBANDS">    14</i>
  <i type="logical" name="LREAL"> F  </i>
  <i type="int" name="ISMEAR">     1</i>
  <i name="SIGMA">      0.05000000</i>
  <i type="logical" name="LORBIT"> F  </i>
 </incar>
 <kpoints>
  <generation param="Gamma">
   <v type="int" name="divisions">       6        6        6 </v>
   <v name="usershift">      0.00000000       0.00000000       0.00000000 </v>
   <v name="genvec1">      0.16666667       0.00000000       0.00000000 </v>
   <v name="genvec2">      0.00000000       0.16666667       0.00000000 </v>
   <v name="genvec3">      0.00000000       0.00000000       0.16666667 </v>
   <v name="shift">      0.00000000       0.00000000       0.00000000 </v>
  </generation>
  <varray name="kpointlist" >
   <v>       0.00000000       0.00000000       0.00000000 </v>
   <v>       0.16666667       0.00000000       0.00000000 </v>
   <v>       0.33333333       0.00000000       0.00000000 </v>
   <v>       0.50000000       0.00000000       0.00000000 </v>
   <v>       0.16666667       0.16666667       0.00000000 </v>
   <v>       0.33333333       0.16666667       0.00000000 </v>
   <v>       0.33333333       0.33333333       0.00000000 </v>
   <v>       0.00000000       0.00000000       0.16666667 </v>
   <v>       0.16666667       0.00000000       0.16666667 </v>
   <v>       0.33333333       0.00000000       0.16666667 </v>
   <v>       0.50000000       0.00000000       0.16666667 </v>
   <v>       0.16666667       0.16666667       0.16666667 </v>
   <v>       0.33333333       0.16666667       0.16666667 </v>
   <v>       0.33333333       0.33333333       0.16666667 </v>
   <v>       0.00000000       0.00000000       0.33333333 </v>
   <v>       0.16666667       0.00000000       0.33333333 </v>
   <v>       0.33333333       0.00000000       0.33333333 </v>
   <v>       0.50000000       0.00000000       0.33333333 </v>
   <v>       0.16666667       0.16666667       0.33333333 </v>
   <v>       0.33333333       0.16666667       0.33333333 </v>
   <v>       0.33333333       0.33333333       0.33333333 </v>
   <v>       0.00000000       0.00000000       0.50000000 </v>
   <v>       0.16666667       0.00000000       0.50000000 </v>
   <v>       0.33333333       0.00000000       0.50000000 </v>
   <v>       0.50000000       0.00000000       0.50000000 </v>
   <v>       0.16666667       0.16666667       0.50000000 </v>
   <v>       0.33333333       0.16666667       0.50000000 </v>
   <v>       0.33333333       0.33333333       0.50000000 </v>
  </varray>
  <varray name="weights" >
   <v>       0.00462963 </v>
   <v>       0.02777778 </v>
   <v>       0.02777778 </v>
   <v>       0.01388889 </v>
   <v>       0.02777778 </v>
   <v>       0.05555556 </v>
   <v>       0.00925926 </v>
   <v>       0.00925926 </v>
   <v>       0.05555556 </v>
   <v>       0.05555556 </v>
   <v>       0.02777778 </v>
   <v>       0.05555556 </v>
   <v>       0.11111111 </v>
   <v>       0.01851852 </v>
   <v>       0.00925926 </v>
   <v>       0.05555556 </v>
   <v>       0.05555556 </v>
   <v>       0.02777778 </v>
   <v>       0.05555556 </v>
   <v>       0.11111111 </v>
   <v>       0.01851852 </v>
   <v>       0.00462963 </v>
   <v>       0.02777778 </v>
   <v>       0.02777778 </v>
   <v>       0.01388889 </v>
   <v>       0.02777778 </v>
   <v>       0.05555556 </v>
   <v>       0.00925926 </v>
  </varray>
 </kpoints>
 <parameters>
  <separator name="general" >
   <i type="string" name="SYSTEM">unknown system</i>
   <i type="logical" name="LCOMPAT"> F  </i>
  </separator>
  <separator name="electronic" >
   <i type="string" name="PREC">accura</i>
   <i name="ENMAX">    450.00000000</i>
   <i name="ENAUG">    644.87300000</i>
   <i name="EDIFF">      0.00010000</i>
   <i type="int" name="IALGO">    38</i>
   <i type="int" name="IWAVPR">    10</i>
   <i type="int" name="NBANDS">    14</i>
   <i name="NELECT">     16.00000000</i>
   <i type="int" name="TURBO">     0</i>
   <i type="int" name="IRESTART">     0</i>
   <i type="int" name="NREBOOT">     0</i>
   <i type="int" name="NMIN">     0</i>
   <i name="EREF">      0.00000000</i>
   <separator name="electronic smearing" >
    <i type="int" name="ISMEAR">     1</i>
    <i name="SIGMA">      0.05000000</i>
    <i name="KSPACING">      0.50000000</i>
    <i type="logical" name="KGAMMA"> T  </i>
   </separator>
   <separator name="electronic projectors" >
    <i type="logical" name="LREAL"> F  </i>
    <v name="ROPT">      0.00000000</v>
    <i type="int" name="LMAXPAW">  -100</i>
    <i type="int" name="LMAXMIX">     2</i>
    <i type="logical" name="NLSPLINE"> F  </i>
   </separator>
   <separator name="electronic startup" >
    <i type="int" name="ISTART">     0</i>
    <i type="int" name="ICHARG">     2</i>
    <i type="int" name="INIWAV">     1</i>
   </separator>
   <separator name="electronic spin" >
    <i type="int" name="ISPIN">     2</i>
    <i type="logical" name="LNONCOLLINEAR"> F  </i>
    <v name="MAGMOM">      1.00000000      1.00000000      1.00000000      1.00000000</v>
    <i name="NUPDOWN">     -1.00000000</i>
    <i type="logical" name="LSORBIT"> F  </i>
    <v name="SAXIS">      0.00000000      0.00000000      1.00000000</v>
    <i type="logical" name="LSPIRAL"> F  </i>
    <v name="QSPIRAL">      0.00000000      0.00000000      0.00000000</v>
    <i type="logical" name="LZEROZ"> F  </i>
   </separator>
   <separator name="electronic exchange-correlation" >
    <i type="logical" name="LASPH"> F  </i>
    <i type="logical" name="LMETAGGA"> F  </i>
   </separator>
   <separator name="electronic convergence" >
    <i type="int" name="NELM">    60</i>
    <i type="int" name="NELMDL">    -5</i>
    <i type="int" name="NELMIN">     2</i>
    <i name="ENINI">    450.00000000</i>
    <separator name="electronic convergence detail" >
     <i type="logical" name="LDIAG"> T  </i>
     <i type="logical" name="LSUBROT"> T  </i>
     <i name="WEIMIN">      0.00000000</i>
     <i name="EBREAK">      0.00000179</i>
     <i name="DEPER">      0.30000000</i>
     <i type="int" name="NRMM">     4</i>
     <i name="TIME">      0.40000000</i>
    </separator>
   </separator>
   <separator name="electronic mixer" >
    <i name="AMIX">      0.40000000</i>
    <i name="BMIX">      1.00000000</i>
    <i name="AMIN">      0.10000000</i>
    <i name="AMIX_MAG">      1.60000000</i>
    <i name="BMIX_MAG">      1.00000000</i>
    <separator name="electronic mixer details" >
     <i type="int" name="IMIX">     4</i>
     <i type="int" name="MAXMIX">   -45</i>
     <i name="WC">    100.00000000</i>
     <i type="int" name="INIMIX">     1</i>
     <i type="int" name="MIXPRE">     1</i>
     <i type="int" name="MREMOVE">     5</i>
    </separator>
   </separator>
   <separator name="electronic dipolcorrection" >
    <i type="logical" name="LDIPOL"> F  </i>
    <i type="logical" name="LMONO"> F  </i>
    <i type="int" name="IDIPOL">     0</i>
    <i name="EPSILON">      1.00000000</i>
    <v name="DIPOL">   -100.00000000   -100.00000000   -100.00000000</v>
    <i name="EFIELD">      0.00000000</i>
   </separator>
  </separator>
  <separator name="grids" >
   <i type="int" name="NGX">    18</i>
   <i type="int" name="NGY">    18</i>
   <i type="int" name="NGZ">    48</i>
   <i type="int" name="NGXF">    36</i>
   <i type="int" name="NGYF">    36</i>
   <i type="int" name="NGZF">    96</i>
   <i type="logical" name="ADDGRID"> F  </i>
  </separator>
  <separator name="ionic" >
   <i type="int" name="NSW">     0</i>
   <i type="int" name="IBRION">    -1</i>
   <i type="int" name="ISIF">     2</i>
   <i name="PSTRESS">      0.00000000</i>
   <i name="EDIFFG">      0.00100000</i>
   <i type="int" name="NFREE">     0</i>
   <i name="POTIM">      0.50000000</i>
   <i name="SMASS">     -3.00000000</i>
   <i name="SCALEE">      1.00000000</i>
  </separator>
  <separator name="ionic md" >
   <i name="TEBEG">      0.00010000</i>
   <i name="TEEND">      0.00010000</i>
   <i type="int" name="NBLOCK">     1</i>
   <i type="int" name="KBLOCK">     1</i>
   <i type="int" name="NPACO">   256</i>
   <i name="APACO">     16.00000000</i>
  </separator>
  <separator name="symmetry" >
   <i type="int" name="ISYM">     2</i>
   <i name="SYMPREC">      0.00001000</i>
  </separator>
  <separator name="dos" >
   <i type="logical" name="LORBIT"> F  </i>
   <v name="RWIGS">     -1.00000000</v>
   <i type="int" name="NEDOS">   301</i>
   <i name="EMIN">     10.00000000</i>
   <i name="EMAX">    -10.00000000</i>
   <i name="EFERMI">      0.00000000</i>
  </separator>
  <separator name="writing" >
   <i type="int" name="NWRITE">     2</i>
   <i type="logical" name="LWAVE"> T  </i>
   <i type="logical" name="LCHARG"> T  </i>
   <i type="logical" name="LPARD"> F  </i>
   <i type="logical" name="LVTOT"> F  </i>
   <i type="logical" name="LVHAR"> F  </i>
   <i type="logical" name="LELF"> F  </i>
   <i type="logical" name="LOPTICS"> F  </i>
   <v name="STM">      0.00000000      0.00000000      0.00000000      0.00000000      0.00000000      0.00000000      0.00000000</v>
  </separator>
  <separator name="performance" >
   <i type="int" name="NPAR">     1</i>
   <i type="int" name="NSIM">     4</i>
   <i type="int" name="NBLK">    -1</i>
   <i type="logical" name="LPLANE"> T  </i>
   <i type="logical" name="LSCALAPACK"> F  </i>
   <i type="logical" name="LSCAAWARE"> F  </i>
   <i type="logical" name="LSCALU"> F  </i>
   <i type="logical" name="LASYNC"> F  </i>
   <i type="logical" name="LORBITALREAL"> F  </i>
  </separator>
  <separator name="miscellaneous" >
   <i type="int" name="IDIOT">     3</i>
   <i type="logical" name="LMUSIC"> F  </i>
   <v name="POMASS">     12.01100000</v>
   <v name="DARWINR">      0.00000000</v>
   <v name="DARWINV">      1.00000000</v>
   <i type="logical" name="LCORR"> T  </i>
  </separator>
  <i type="logical" name="GGA_COMPAT"> T  </i>
  <i type="logical" name="LBERRY"> F  </i>
  <i type="int" name="ICORELEVEL">     0</i>
  <i type="logical" name="LDAU"> F  </i>
  <i type="int" name="I_CONSTRAINED_M">     0</i>
  <separator name="electronic exchange-correlation" >
   <i type="string" name="GGA">--</i>
   <i type="int" name="VOSKOWN">     0</i>
   <i type="logical" name="LHFCALC"> F  </i>
   <i type="string" name="PRECFOCK"></i>
   <i type="logical" name="LHFONE"> F  </i>
   <i type="logical" name="LRHFCALC"> F  </i>
   <i type="logical" name="LTHOMAS"> F  </i>
   <i type="logical" name="LMODELHF"> F  </i>
   <i name="ENCUT4O">     -1.00000000</i>
   <i type="int" name="EXXOEP">     0</i>
   <i type="int" name="FOURORBIT">     0</i>
   <i name="AEXX">      0.00000000</i>
   <i name="HFALPHA">      0.00000000</i>
   <i name="ALDAX">      1.00000000</i>
   <i name="AGGAX">      1.00000000</i>
   <i name="ALDAC">      1.00000000</i>
   <i name="AGGAC">      1.00000000</i>
   <i type="int" name="NKREDX">     1</i>
   <i type="int" name="NKREDY">     1</i>
   <i type="int" name="NKREDZ">     1</i>
   <i type="logical" name="SHIFTRED"> F  </i>
   <i type="logical" name="ODDONLY"> F  </i>
   <i type="logical" name="EVENONLY"> F  </i>
   <i type="int" name="LMAXFOCK">     0</i>
   <i type="int" name="NMAXFOCKAE">     0</i>
   <i type="logical" name="LFOCKAEDFT"> F  </i>
   <i name="HFSCREEN">      0.00000000</i>
   <i name="HFSCREENC">      0.00000000</i>
  </separator>
  <separator name="vdW DFT" >
   <i type="logical" name="LUSE_VDW"> F  </i>
   <i name="Zab_VDW">     -0.84910000</i>
   <i name="PARAM1">      0.12340000</i>
   <i name="PARAM2">      1.00000000</i>
   <i name="PARAM3">      0.00000000</i>
  </separator>
  <separator name="model GW" >
   <i type="int" name="MODEL_GW">     0</i>
   <i name="MODEL_EPS0">      5.27839982</i>
   <i name="MODEL_ALPHA">      1.00000000</i>
  </separator>
  <separator name="linear response parameters" >
   <i type="logical" name="LEPSILON"> F  </i>
   <i type="logical" name="LRPA"> F  </i>
   <i type="logical" name="LNABLA"> F  </i>
   <i type="logical" name="LVEL"> F  </i>
   <i type="int" name="KINTER">     0</i>
   <i name="CSHIFT">      0.10000000</i>
   <i name="OMEGAMAX">     -1.00000000</i>
  </separator>
  <separator name="orbital magnetization" >
   <i type="logical" name="NUCIND"> F  </i>
   <v name="MAGPOS">      0.00000000      0.00000000      0.00000000</v>
   <i type="logical" name="LNICSALL"> T  </i>
   <i type="logical" name="ORBITALMAG"> F  </i>
   <i type="logical" name="LMAGBLOCH"> F  </i>
   <i type="logical" name="LCHIMAG"> F  </i>
   <i type="logical" name="LGAUGE"> T  </i>
   <i type="int" name="MAGATOM">     0</i>
   <v name="MAGDIPOL">      0.00000000      0.00000000      0.00000000</v>
   <v name="AVECCONST">      0.00000000      0.00000000      0.00000000</v>
  </separator>
  <separator name="response functions" >
   <i type="logical" name="LADDER"> F  </i>
   <i type="logical" name="LHARTREE"> T  </i>
   <i type="int" name="IBSE">     0</i>
   <i type="logical" name="LTCTE"> F  </i>
   <i type="logical" name="LTETE"> F  </i>
   <i type="logical" name="LFXCEPS"> F  </i>
   <i type="logical" name="L2ORDER"> F  </i>
   <i type="logical" name="LUSEW"> F  </i>
   <i name="ENCUTGW">     -2.00000000</i>
   <i name="ENCUTGWSOFT">     -2.00000000</i>
   <i name="ENCUTLF">     -1.00000000</i>
   <i type="int" name="LMAXMP2">    -1</i>
   <i name="SCISSOR">      0.00000000</i>
   <i type="int" name="NOMEGA">     0</i>
   <i type="int" name="NOMEGAR">     0</i>
   <i type="int" name="NBANDSGW">    -1</i>
   <i type="int" name="NBANDSO">    -1</i>
   <i type="int" name="NBANDSV">    -1</i>
   <i name="OPTEMAX">      0.00000000</i>
   <i type="int" name="NELM">     1</i>
   <i type="int" name="DIM">     3</i>
   <i type="int" name="ANTIRES">     0</i>
   <i name="OMEGAMAX">    -30.00000000</i>
   <i name="OMEGATL">   -200.00000000</i>
   <i type="int" name="OMEGAGRID">     0</i>
   <i name="CSHIFT">     -0.10000000</i>
   <i type="logical" name="SELFENERGY"> F  </i>
   <i type="logical" name="LSPECTRAL"> F  </i>
   <i type="logical" name="ODDONLYGW"> F  </i>
   <i type="logical" name="EVENONLYGW"> F  </i>
   <i type="int" name="NKREDLFX">     1</i>
   <i type="int" name="NKREDLFY">     1</i>
   <i type="int" name="NKREDLFZ">     1</i>
   <i type="int" name="MAXMEM">  1800</i>
   <i type="int" name="TELESCOPE">     0</i>
  </separator>
 </parameters>
 <atominfo>
  <atoms>       4 </atoms>
  <types>       1 </types>
  <array name="atoms" >
   <dimension dim="1">ion</dimension>
   <field type="string">element</field>
   <field type="int">atomtype</field>
   <set>
    <rc><c>C </c><c>   1</c></rc>
    <rc><c>C </c><c>   1</c></rc>
    <rc><c>C </c><c>   1</c></rc>
    <rc><c>C </c><c>   1</c></rc>
   </set>
  </array>
  <array name="atomtypes" >
   <dimension dim="1">type</dimension>
   <field type="int">atomspertype</field>
   <field type="string">element</field>
   <field>mass</field>
   <field>valence</field>
   <field type="string">pseudopotential</field>
   <set>
    <rc><c>   4</c><c>C </c><c>     12.01100000</c><c>      4.00000000</c><c> PAW_PBE C 08Apr2002                    </c></rc>
   </set>
  </array>
 </atominfo>
 <structure name="initialpos" >
  <crystal>
   <varray name="basis" >
    <v>       2.46120000       0.00000000       0.00000000 </v>
    <v>      -1.23060000       2.13146172       0.00000000 </v>
    <v>       0.00000000       0.00000000       6.70790000 </v>
   </varray>
   <i name="volume">     35.18933212 </i>
   <varray name="rec_basis" >
    <v>       0.40630587       0.23458080       0.00000000 </v>
    <v>       0.00000000       0.46916160       0.00000000 </v>
    <v>       0.00000000       0.00000000       0.14907795 </v>
   </varray>
  </crystal>
  <varray name="positions" >
   <v>       0.00000000       0.00000000       0.00000000 </v>
   <v>       0.33333333       0.66666667       0.00000000 </v>
   <v>       0.33333333       0.66666667       0.50000000 </v>
   <v>       0.66666667       0.33333333       0.50000000 </v>
  </varray>
 </structure>
 <calculation>
  <scstep>
   <time name="dav">    4.31    4.31</time>
   <time name="total">    4.75    4.75</time>
   <energy>
    <i name="alphaZ">     37.04766603 </i>
    <i name="ewald">   -460.60042082 </i>
    <i name="hartreedc">   -148.78490797 </i>
    <i name="XCdc">     56.10990954 </i>
    <i name="pawpsdc">    150.95130483 </i>
    <i name="pawaedc">   -155.51722924 </i>
    <i name="eentropy">     -0.00020359 </i>
    <i name="bandstr">    -33.94193985 </i>
    <i name="atom">    588.57751394 </i>
    <i name="e_fr_energy">     33.84169287 </i>
    <i name="e_wo_entrp">     33.84189646 </i>
    <i name="e_0_energy">     33.84176073 </i>
   </energy>
  </scstep>
  <scstep>
   <time name="dav">    5.56    5.57</time>
   <time name="total">    5.57    5.57</time>
   <energy>
    <i name="e_fr_energy">    -34.92607999 </i>
    <i name="e_wo_entrp">    -34.92614994 </i>
    <i name="e_0_energy">    -34.92610331 </i>
   </energy>
  </scstep>
  <scstep>
   <time name="dav">    5.40    5.40</time>
   <time name="total">    5.41    5.42</time>
   <energy>
    <i name="e_fr_energy">    -37.61023216 </i>
    <i name="e_wo_entrp">    -37.61025026 </i>
    <i name="e_0_energy">    -37.61023820 </i>
   </energy>
  </scstep>
  <scstep>
   <time name="dav">    4.91    4.91</time>
   <time name="total">    4.92    4.93</time>
   <energy>
    <i name="e_fr_energy">    -37.63644402 </i>
    <i name="e_wo_entrp">    -37.63646210 </i>
    <i name="e_0_energy">    -37.63645005 </i>
   </energy>
  </scstep>
  <scstep>
   <time name="dav">    5.38    5.38</time>
   <time name="total">    5.78    5.79</time>
   <energy>
    <i name="e_fr_energy">    -37.63695957 </i>
    <i name="e_wo_entrp">    -37.63697764 </i>
    <i name="e_0_energy">    -37.63696559 </i>
   </energy>
  </scstep>
  <scstep>
   <time name="dav">    4.68    4.68</time>
   <time name="total">    5.52    5.53</time>
   <energy>
    <i name="e_fr_energy">    -36.89558555 </i>
    <i name="e_wo_entrp">    -36.89568832 </i>
    <i name="e_0_energy">    -36.89561981 </i>
   </energy>
  </scstep>
  <scstep>
   <time name="dav">    4.81    4.81</time>
   <time name="total">    5.64    5.66</time>
   <energy>
    <i name="e_fr_energy">    -36.79586336 </i>
    <i name="e_wo_entrp">    -36.79619043 </i>
    <i name="e_0_energy">    -36.79597239 </i>
   </energy>
  </scstep>
  <scstep>
   <time name="dav">    4.81    4.82</time>
   <time name="total">    5.67    5.68</time>
   <energy>
    <i name="e_fr_energy">    -36.74677825 </i>
    <i name="e_wo_entrp">    -36.74689958 </i>
    <i name="e_0_energy">    -36.74681870 </i>
   </energy>
  </scstep>
  <scstep>
   <time name="dav">    4.85    4.85</time>
   <time name="total">    5.70    5.72</time>
   <energy>
    <i name="e_fr_energy">    -36.75877104 </i>
    <i name="e_wo_entrp">    -36.75900096 </i>
    <i name="e_0_energy">    -36.75884768 </i>
   </energy>
  </scstep>
  <scstep>
   <time name="dav">    5.18    5.18</time>
   <time name="total">    6.03    6.05</time>
   <energy>
    <i name="e_fr_energy">    -36.75952008 </i>
    <i name="e_wo_entrp">    -36.75958687 </i>
    <i name="e_0_energy">    -36.75954234 </i>
   </energy>
  </scstep>
  <scstep>
   <time name="dav">    4.77    4.77</time>
   <time name="total">    5.63    5.65</time>
   <energy>
    <i name="e_fr_energy">    -36.75983285 </i>
    <i name="e_wo_entrp">    -36.75995518 </i>
    <i name="e_0_energy">    -36.75987362 </i>
   </energy>
  </scstep>
  <scstep>
   <time name="dav">    4.28    4.28</time>
   <time name="total">    4.73    4.74</time>
   <energy>
    <i name="alphaZ">     37.04766603 </i>
    <i name="ewald">   -460.60042082 </i>
    <i name="hartreedc">   -183.76432070 </i>
    <i name="XCdc">     57.71122608 </i>
    <i name="pawpsdc">    280.19329563 </i>
    <i name="pawaedc">   -285.37020750 </i>
    <i name="eentropy">      0.00013021 </i>
    <i name="bandstr">    -70.55479416 </i>
    <i name="atom">    588.57751394 </i>
    <i name="e_fr_energy">    -36.75991128 </i>
    <i name="e_wo_entrp">    -36.76004149 </i>
    <i name="e_0_energy">    -36.75995468 </i>
   </energy>
  </scstep>
  <parameters_embedded>
   <separator name="dft+d2" >
    <i type="logical" name="LVDW"> F  </i>
   </separator>
  </parameters_embedded>
  <structure>
   <crystal>
    <varray name="basis" >
     <v>       2.46120000       0.00000000       0.00000000 </v>
     <v>      -1.23060000       2.13146172       0.00000000 </v>
     <v>       0.00000000       0.00000000       6.70790000 </v>
    </varray>
    <i name="volume">     35.18933212 </i>
    <varray name="rec_basis" >
     <v>       0.40630587       0.23458080       0.00000000 </v>
     <v>       0.00000000       0.46916160       0.00000000 </v>
     <v>       0.00000000       0.00000000       0.14907795 </v>
    </varray>
   </crystal>
   <varray name="positions" >
    <v>       0.00000000       0.00000000       0.00000000 </v>
    <v>       0.33333333       0.66666667       0.00000000 </v>
    <v>       0.33333333       0.66666667       0.50000000 </v>
    <v>       0.66666667       0.33333333       0.50000000 </v>
   </varray>
  </structure>
  <varray name="forces" >
   <v>       0.00000000       0.00000000       0.00000000 </v>
   <v>       0.00000000       0.00000000       0.00000000 </v>
   <v>       0.00000000       0.00000000       0.00000000 </v>
   <v>       0.00000000       0.00000000       0.00000000 </v>
  </varray>
  <varray name="stress" >
   <v>      34.71960562       0.00000000       0.00000000 </v>
   <v>       0.00000000      34.71960562       0.00000000 </v>
   <v>       0.00000000       0.00000000      23.96480771 </v>
  </varray>
  <energy>
   <i name="e_fr_energy">    -36.75991128 </i>
   <i name="e_wo_entrp">    -36.75995468 </i>
   <i name="e_0_energy">      0.00013021 </i>
  </energy>
  <time name="totalsc">   67.92   68.19</time>
  <eigenvalues>
   <array>
    <dimension dim="1">band</dimension>
    <dimension dim="2">kpoint</dimension>
    <dimension dim="3">spin</dimension>
    <field>eigene</field>
    <field>occ</field>
    <set>
     <set comment="spin 1">
      <set comment="kpoint 1">
       <r>  -14.9808    1.0000 </r>
       <r>  -14.6802    1.0000 </r>
       <r>   -3.8597    1.0000 </r>
       <r>   -1.8985    1.0000 </r>
       <r>    1.7097    1.0000 </r>
       <r>    1.7097    1.0000 </r>
       <r>    1.7284    1.0000 </r>
       <r>    1.7284    1.0000 </r>
       <r>    8.9734    0.0000 </r>
       <r>   13.0813    0.0000 </r>
       <r>   13.0813    0.0000 </r>
       <r>   13.1354    0.0000 </r>
       <r>   13.1354    0.0000 </r>
       <r>   15.7503    0.0000 </r>
      </set>
      <set comment="kpoint 2">
       <r>  -14.3175    1.0000 </r>
       <r>  -14.0290    1.0000 </r>
       <r>   -3.0569    1.0000 </r>
       <r>   -1.1502    1.0000 </r>
       <r>   -0.6135    1.0000 </r>
       <r>   -0.5494    1.0000 </r>
       <r>    0.5615    1.0000 </r>
       <r>    0.6017    1.0000 </r>
       <r>    9.7774    0.0000 </r>
       <r>   13.0306    0.0000 </r>
       <r>   13.2162    0.0000 </r>
       <r>   13.8968    0.0000 </r>
       <r>   14.2750    0.0000 </r>
       <r>   15.6413    0.0000 </r>
      </set>
      <set comment="kpoint 3">
       <r>  -12.3614    1.0000 </r>
       <r>  -12.1081    1.0000 </r>
       <r>   -4.9700    1.0000 </r>
       <r>   -4.8362    1.0000 </r>
       <r>   -1.0660    1.0000 </r>
       <r>   -1.0134    1.0000 </r>
       <r>   -0.7429    1.0000 </r>
       <r>    0.9386    1.0000 </r>
       <r>    9.2150    0.0000 </r>
       <r>   10.0987    0.0000 </r>
       <r>   12.0772    0.0000 </r>
       <r>   12.3643    0.0000 </r>
       <r>   12.7636    0.0000 </r>
       <r>   17.4382    0.0000 </r>
      </set>
      <set comment="kpoint 4">
       <r>   -9.6214    1.0000 </r>
       <r>   -9.5172    1.0000 </r>
       <r>   -8.5581    1.0000 </r>
       <r>   -8.4806    1.0000 </r>
       <r>   -1.7055    1.0000 </r>
       <r>   -1.6502    1.0000 </r>
       <r>    1.9214    1.0000 </r>
       <r>    2.5602    1.0000 </r>
       <r>    6.2317    0.0000 </r>
       <r>    6.8385    0.0000 </r>
       <r>   11.9597    0.0000 </r>
       <r>   12.3562    0.0000 </r>
       <r>   16.0150    0.0000 </r>
       <r>   16.1012    0.0000 </r>
      </set>
      <set comment="kpoint 5">
       <r>  -13.0077    1.0000 </r>
       <r>  -12.7427    1.0000 </r>
       <r>   -3.0549    1.0000 </r>
       <r>   -3.0012    1.0000 </r>
       <r>   -1.6967    1.0000 </r>
       <r>   -1.6575    1.0000 </r>
       <r>   -1.4894    1.0000 </r>
       <r>    0.2881    1.0000 </r>
       <r>   10.8485    0.0000 </r>
       <r>   11.3247    0.0000 </r>
       <r>   11.3946    0.0000 </r>
       <r>   14.6787    0.0000 </r>
       <r>   14.9207    0.0000 </r>
       <r>   16.2745    0.0000 </r>
      </set>
      <set comment="kpoint 6">
       <r>  -10.4879    1.0000 </r>
       <r>  -10.2715    1.0000 </r>
       <r>   -6.7562    1.0000 </r>
       <r>   -6.6091    1.0000 </r>
       <r>   -3.3624    1.0000 </r>
       <r>   -3.2715    1.0000 </r>
       <r>    1.3753    1.0000 </r>
       <r>    2.6953    1.0000 </r>
       <r>    6.8823    0.0000 </r>
       <r>    7.6151    0.0000 </r>
       <r>   14.4308    0.0000 </r>
       <r>   14.6048    0.0000 </r>
       <r>   15.1198    0.0000 </r>
       <r>   17.1407    0.0000 </r>
      </set>
      <set comment="kpoint 7">
       <r>   -7.9427    1.0000 </r>
       <r>   -7.9034    1.0000 </r>
       <r>   -7.9034    1.0000 </r>
       <r>   -7.7535    1.0000 </r>
       <r>   -5.8419    1.0000 </r>
       <r>   -5.8419    1.0000 </r>
       <r>    4.1359    1.0000 </r>
       <r>    4.5582    1.0001 </r>
       <r>    4.5582    1.0001 </r>
       <r>    5.4902    0.0000 </r>
       <r>   15.8391    0.0000 </r>
       <r>   15.8391    0.0000 </r>
       <r>   16.9931    0.0000 </r>
       <r>   17.2380    0.0000 </r>
      </set>
      <set comment="kpoint 8">
       <r>  -14.9619    1.0000 </r>
       <r>  -14.7017    1.0000 </r>
       <r>   -3.7485    1.0000 </r>
       <r>   -2.0592    1.0000 </r>
       <r>    1.7116    1.0000 </r>
       <r>    1.7116    1.0000 </r>
       <r>    1.7273    1.0000 </r>
       <r>    1.7274    1.0000 </r>
       <r>    9.3122    0.0000 </r>
       <r>   13.0854    0.0000 </r>
       <r>   13.0855    0.0000 </r>
       <r>   13.1290    0.0000 </r>
       <r>   13.1290    0.0000 </r>
       <r>   14.5961    0.0000 </r>
      </set>
      <set comment="kpoint 9">
       <r>  -14.2993    1.0000 </r>
       <r>  -14.0495    1.0000 </r>
       <r>   -2.9485    1.0000 </r>
       <r>   -1.3059    1.0000 </r>
       <r>   -0.6091    1.0000 </r>
       <r>   -0.5536    1.0000 </r>
       <r>    0.5644    1.0000 </r>
       <r>    0.5988    1.0000 </r>
       <r>   10.1043    0.0000 </r>
       <r>   13.0334    0.0000 </r>
       <r>   13.2021    0.0000 </r>
       <r>   13.9297    0.0000 </r>
       <r>   14.2430    0.0000 </r>
       <r>   15.2678    0.0000 </r>
      </set>
      <set comment="kpoint 10">
       <r>  -12.3453    1.0000 </r>
       <r>  -12.1260    1.0000 </r>
       <r>   -4.9613    1.0000 </r>
       <r>   -4.8455    1.0000 </r>
       <r>   -1.0625    1.0000 </r>
       <r>   -1.0169    1.0000 </r>
       <r>   -0.6451    1.0000 </r>
       <r>    0.8056    1.0000 </r>
       <r>    9.2543    0.0000 </r>
       <r>   10.0258    0.0000 </r>
       <r>   12.2531    0.0000 </r>
       <r>   12.4243    0.0000 </r>
       <r>   12.8386    0.0000 </r>
       <r>   16.9784    0.0000 </r>
      </set>
      <set comment="kpoint 11">
       <r>   -9.6131    1.0000 </r>
       <r>   -9.5226    1.0000 </r>
       <r>   -8.5556    1.0000 </r>
       <r>   -8.4881    1.0000 </r>
       <r>   -1.7018    1.0000 </r>
       <r>   -1.6537    1.0000 </r>
       <r>    1.9780    1.0000 </r>
       <r>    2.5382    1.0000 </r>
       <r>    6.2189    0.0000 </r>
       <r>    6.7522    0.0000 </r>
       <r>   11.9850    0.0000 </r>
       <r>   12.3287    0.0000 </r>
       <r>   16.2738    0.0000 </r>
       <r>   16.2849    0.0000 </r>
      </set>
      <set comment="kpoint 12">
       <r>  -12.9909    1.0000 </r>
       <r>  -12.7615    1.0000 </r>
       <r>   -3.0512    1.0000 </r>
       <r>   -3.0047    1.0000 </r>
       <r>   -1.6945    1.0000 </r>
       <r>   -1.6605    1.0000 </r>
       <r>   -1.3872    1.0000 </r>
       <r>    0.1450    1.0000 </r>
       <r>   10.8788    0.0000 </r>
       <r>   11.2827    0.0000 </r>
       <r>   11.7024    0.0000 </r>
       <r>   14.6805    0.0000 </r>
       <r>   14.9214    0.0000 </r>
       <r>   16.2741    0.0000 </r>
      </set>
      <set comment="kpoint 13">
       <r>  -10.4740    1.0000 </r>
       <r>  -10.2866    1.0000 </r>
       <r>   -6.7466    1.0000 </r>
       <r>   -6.6193    1.0000 </r>
       <r>   -3.3566    1.0000 </r>
       <r>   -3.2778    1.0000 </r>
       <r>    1.4573    1.0000 </r>
       <r>    2.6004    1.0000 </r>
       <r>    6.9171    0.0000 </r>
       <r>    7.5555    0.0000 </r>
       <r>   14.5353    0.0000 </r>
       <r>   14.6668    0.0000 </r>
       <r>   15.1267    0.0000 </r>
       <r>   16.8542    0.0000 </r>
      </set>
      <set comment="kpoint 14">
       <r>   -7.9305    1.0000 </r>
       <r>   -7.9028    1.0000 </r>
       <r>   -7.9028    1.0000 </r>
       <r>   -7.7666    1.0000 </r>
       <r>   -5.8431    1.0000 </r>
       <r>   -5.8431    1.0000 </r>
       <r>    4.2167    1.0000 </r>
       <r>    4.5667    1.0002 </r>
       <r>    4.5667    1.0002 </r>
       <r>    5.3861    0.0000 </r>
       <r>   15.4829    0.0000 </r>
       <r>   15.4829    0.0000 </r>
       <r>   17.1953    0.0000 </r>
       <r>   17.7584    0.0000 </r>
      </set>
      <set comment="kpoint 15">
       <r>  -14.9093    1.0000 </r>
       <r>  -14.7592    1.0000 </r>
       <r>   -3.4342    1.0000 </r>
       <r>   -2.4685    1.0000 </r>
       <r>    1.7146    1.0000 </r>
       <r>    1.7146    1.0000 </r>
       <r>    1.7241    1.0000 </r>
       <r>    1.7241    1.0000 </r>
       <r>   10.2506    0.0000 </r>
       <r>   13.0929    0.0000 </r>
       <r>   13.0929    0.0000 </r>
       <r>   13.1195    0.0000 </r>
       <r>   13.1195    0.0000 </r>
       <r>   13.1676    0.0000 </r>
      </set>
      <set comment="kpoint 16">
       <r>  -14.2487    1.0000 </r>
       <r>  -14.1047    1.0000 </r>
       <r>   -2.6420    1.0000 </r>
       <r>   -1.7028    1.0000 </r>
       <r>   -0.5975    1.0000 </r>
       <r>   -0.5654    1.0000 </r>
       <r>    0.5716    1.0000 </r>
       <r>    0.5914    1.0000 </r>
       <r>   11.0058    0.0000 </r>
       <r>   13.0139    0.0000 </r>
       <r>   13.1712    0.0000 </r>
       <r>   13.8577    0.0000 </r>
       <r>   14.0203    0.0000 </r>
       <r>   14.2684    0.0000 </r>
      </set>
      <set comment="kpoint 17">
       <r>  -12.3007    1.0000 </r>
       <r>  -12.1741    1.0000 </r>
       <r>   -4.9374    1.0000 </r>
       <r>   -4.8705    1.0000 </r>
       <r>   -1.0528    1.0000 </r>
       <r>   -1.0267    1.0000 </r>
       <r>   -0.3696    1.0000 </r>
       <r>    0.4620    1.0000 </r>
       <r>    9.3855    0.0000 </r>
       <r>    9.8345    0.0000 </r>
       <r>   12.3855    0.0000 </r>
       <r>   12.5147    0.0000 </r>
       <r>   13.4601    0.0000 </r>
       <r>   15.8875    0.0000 </r>
      </set>
      <set comment="kpoint 18">
       <r>   -9.5914    1.0000 </r>
       <r>   -9.5387    1.0000 </r>
       <r>   -8.5465    1.0000 </r>
       <r>   -8.5071    1.0000 </r>
       <r>   -1.6915    1.0000 </r>
       <r>   -1.6638    1.0000 </r>
       <r>    2.1260    1.0000 </r>
       <r>    2.4576    1.0000 </r>
       <r>    6.2293    0.0000 </r>
       <r>    6.5456    0.0000 </r>
       <r>   12.0551    0.0000 </r>
       <r>   12.2538    0.0000 </r>
       <r>   16.7646    0.0000 </r>
       <r>   16.9393    0.0000 </r>
      </set>
      <set comment="kpoint 19">
       <r>  -12.9443    1.0000 </r>
       <r>  -12.8119    1.0000 </r>
       <r>   -3.0411    1.0000 </r>
       <r>   -3.0143    1.0000 </r>
       <r>   -1.6880    1.0000 </r>
       <r>   -1.6684    1.0000 </r>
       <r>   -1.0990    1.0000 </r>
       <r>   -0.2219    1.0000 </r>
       <r>   10.9633    0.0000 </r>
       <r>   11.1956    0.0000 </r>
       <r>   12.5217    0.0000 </r>
       <r>   14.5863    0.0000 </r>
       <r>   14.9175    0.0000 </r>
       <r>   15.2495    0.0000 </r>
      </set>
      <set comment="kpoint 20">
       <r>  -10.4356    1.0000 </r>
       <r>  -10.3274    1.0000 </r>
       <r>   -6.7204    1.0000 </r>
       <r>   -6.6469    1.0000 </r>
       <r>   -3.3404    1.0000 </r>
       <r>   -3.2949    1.0000 </r>
       <r>    1.6858    1.0000 </r>
       <r>    2.3458    1.0000 </r>
       <r>    7.0255    0.0000 </r>
       <r>    7.3983    0.0000 </r>
       <r>   14.6338    0.0000 </r>
       <r>   14.7852    0.0000 </r>
       <r>   15.3482    0.0000 </r>
       <r>   16.3777    0.0000 </r>
      </set>
      <set comment="kpoint 21">
       <r>   -7.9017    1.0000 </r>
       <r>   -7.9017    1.0000 </r>
       <r>   -7.8968    1.0000 </r>
       <r>   -7.8023    1.0000 </r>
       <r>   -5.8455    1.0000 </r>
       <r>   -5.8455    1.0000 </r>
       <r>    4.4421    1.0000 </r>
       <r>    4.5832    1.0011 </r>
       <r>    4.5832    1.0011 </r>
       <r>    5.1138    0.0000 </r>
       <r>   15.0410    0.0000 </r>
       <r>   15.0410    0.0000 </r>
       <r>   17.7389    0.0000 </r>
       <r>   18.6580    0.0000 </r>
      </set>
      <set comment="kpoint 22">
       <r>  -14.8355    1.0000 </r>
       <r>  -14.8355    1.0000 </r>
       <r>   -2.9744    1.0000 </r>
       <r>   -2.9744    1.0000 </r>
       <r>    1.7199    1.0000 </r>
       <r>    1.7199    1.0000 </r>
       <r>    1.7199    1.0000 </r>
       <r>    1.7199    1.0000 </r>
       <r>   11.6088    0.0000 </r>
       <r>   11.6088    0.0000 </r>
       <r>   13.1064    0.0000 </r>
       <r>   13.1064    0.0000 </r>
       <r>   13.1064    0.0000 </r>
       <r>   13.1064    0.0000 </r>
      </set>
      <set comment="kpoint 23">
       <r>  -14.1778    1.0000 </r>
       <r>  -14.1778    1.0000 </r>
       <r>   -2.1943    1.0000 </r>
       <r>   -2.1943    1.0000 </r>
       <r>   -0.5816    1.0000 </r>
       <r>   -0.5816    1.0000 </r>
       <r>    0.5813    1.0000 </r>
       <r>    0.5813    1.0000 </r>
       <r>   12.2760    0.0000 </r>
       <r>   12.2760    0.0000 </r>
       <r>   13.1789    0.0000 </r>
       <r>   13.1789    0.0000 </r>
       <r>   14.1209    0.0000 </r>
       <r>   14.1209    0.0000 </r>
      </set>
      <set comment="kpoint 24">
       <r>  -12.2383    1.0000 </r>
       <r>  -12.2383    1.0000 </r>
       <r>   -4.9042    1.0000 </r>
       <r>   -4.9042    1.0000 </r>
       <r>   -1.0397    1.0000 </r>
       <r>   -1.0397    1.0000 </r>
       <r>    0.0295    1.0000 </r>
       <r>    0.0295    1.0000 </r>
       <r>    9.5966    0.0000 </r>
       <r>    9.5966    0.0000 </r>
       <r>   12.4663    0.0000 </r>
       <r>   12.4663    0.0000 </r>
       <r>   14.6039    0.0000 </r>
       <r>   14.6039    0.0000 </r>
      </set>
      <set comment="kpoint 25">
       <r>   -9.5636    1.0000 </r>
       <r>   -9.5636    1.0000 </r>
       <r>   -8.5293    1.0000 </r>
       <r>   -8.5293    1.0000 </r>
       <r>   -1.6779    1.0000 </r>
       <r>   -1.6779    1.0000 </r>
       <r>    2.3089    1.0000 </r>
       <r>    2.3089    1.0000 </r>
       <r>    6.3388    0.0000 </r>
       <r>    6.3388    0.0000 </r>
       <r>   12.1529    0.0000 </r>
       <r>   12.1529    0.0000 </r>
       <r>   17.2812    0.0000 </r>
       <r>   17.2812    0.0000 </r>
      </set>
      <set comment="kpoint 26">
       <r>  -12.8790    1.0000 </r>
       <r>  -12.8790    1.0000 </r>
       <r>   -3.0275    1.0000 </r>
       <r>   -3.0275    1.0000 </r>
       <r>   -1.6786    1.0000 </r>
       <r>   -1.6786    1.0000 </r>
       <r>   -0.6794    1.0000 </r>
       <r>   -0.6794    1.0000 </r>
       <r>   11.0792    0.0000 </r>
       <r>   11.0792    0.0000 </r>
       <r>   13.6643    0.0000 </r>
       <r>   13.6643    0.0000 </r>
       <r>   14.9203    0.0000 </r>
       <r>   14.9203    0.0000 </r>
      </set>
      <set comment="kpoint 27">
       <r>  -10.3821    1.0000 </r>
       <r>  -10.3821    1.0000 </r>
       <r>   -6.6840    1.0000 </r>
       <r>   -6.6840    1.0000 </r>
       <r>   -3.3179    1.0000 </r>
       <r>   -3.3179    1.0000 </r>
       <r>    2.0092    1.0000 </r>
       <r>    2.0092    1.0000 </r>
       <r>    7.2006    0.0000 </r>
       <r>    7.2006    0.0000 </r>
       <r>   14.7243    0.0000 </r>
       <r>   14.7243    0.0000 </r>
       <r>   15.8554    0.0000 </r>
       <r>   15.8554    0.0000 </r>
      </set>
      <set comment="kpoint 28">
       <r>   -7.9012    1.0000 </r>
       <r>   -7.9012    1.0000 </r>
       <r>   -7.8500    1.0000 </r>
       <r>   -7.8500    1.0000 </r>
       <r>   -5.8468    1.0000 </r>
       <r>   -5.8468    1.0000 </r>
       <r>    4.5914    1.0022 </r>
       <r>    4.5914    1.0022 </r>
       <r>    4.7665   -0.0344 </r>
       <r>    4.7665   -0.0344 </r>
       <r>   14.8734    0.0000 </r>
       <r>   14.8734    0.0000 </r>
       <r>   18.4506    0.0000 </r>
       <r>   18.4506    0.0000 </r>
      </set>
     </set>
     <set comment="spin 2">
      <set comment="kpoint 1">
       <r>  -14.9508    1.0000 </r>
       <r>  -14.6509    1.0000 </r>
       <r>   -3.7930    1.0000 </r>
       <r>   -1.8230    1.0000 </r>
       <r>    1.7214    1.0000 </r>
       <r>    1.7214    1.0000 </r>
       <r>    1.7405    1.0000 </r>
       <r>    1.7405    1.0000 </r>
       <r>    9.0077    0.0000 </r>
       <r>   13.0924    0.0000 </r>
       <r>   13.0924    0.0000 </r>
       <r>   13.1460    0.0000 </r>
       <r>   13.1460    0.0000 </r>
       <r>   15.2975    0.0000 </r>
      </set>
      <set comment="kpoint 2">
       <r>  -14.2878    1.0000 </r>
       <r>  -14.0000    1.0000 </r>
       <r>   -2.9896    1.0000 </r>
       <r>   -1.0734    1.0000 </r>
       <r>   -0.5970    1.0000 </r>
       <r>   -0.5329    1.0000 </r>
       <r>    0.5733    1.0000 </r>
       <r>    0.6134    1.0000 </r>
       <r>    9.8115    0.0000 </r>
       <r>   13.0529    0.0000 </r>
       <r>   13.2335    0.0000 </r>
       <r>   13.9828    0.0000 </r>
       <r>   14.3877    0.0000 </r>
       <r>   15.6521    0.0000 </r>
      </set>
      <set comment="kpoint 3">
       <r>  -12.3327    1.0000 </r>
       <r>  -12.0797    1.0000 </r>
       <r>   -4.9484    1.0000 </r>
       <r>   -4.8148    1.0000 </r>
       <r>   -1.0544    1.0000 </r>
       <r>   -1.0020    1.0000 </r>
       <r>   -0.6745    1.0000 </r>
       <r>    1.0215    1.0000 </r>
       <r>    9.2843    0.0000 </r>
       <r>   10.2028    0.0000 </r>
       <r>   12.1023    0.0000 </r>
       <r>   12.4134    0.0000 </r>
       <r>   12.7899    0.0000 </r>
       <r>   17.5106    0.0000 </r>
      </set>
      <set comment="kpoint 4">
       <r>   -9.5967    1.0000 </r>
       <r>   -9.4773    1.0000 </r>
       <r>   -8.5457    1.0000 </r>
       <r>   -8.4548    1.0000 </r>
       <r>   -1.6939    1.0000 </r>
       <r>   -1.6388    1.0000 </r>
       <r>    1.9618    1.0000 </r>
       <r>    2.6947    1.0000 </r>
       <r>    6.2339    0.0000 </r>
       <r>    6.9780    0.0000 </r>
       <r>   11.9971    0.0000 </r>
       <r>   12.3931    0.0000 </r>
       <r>   16.0034    0.0000 </r>
       <r>   16.1833    0.0000 </r>
      </set>
      <set comment="kpoint 5">
       <r>  -12.9786    1.0000 </r>
       <r>  -12.7142    1.0000 </r>
       <r>   -3.0346    1.0000 </r>
       <r>   -2.9790    1.0000 </r>
       <r>   -1.6851    1.0000 </r>
       <r>   -1.6448    1.0000 </r>
       <r>   -1.4211    1.0000 </r>
       <r>    0.3682    1.0000 </r>
       <r>   10.9339    0.0000 </r>
       <r>   11.4228    0.0000 </r>
       <r>   11.4283    0.0000 </r>
       <r>   14.7044    0.0000 </r>
       <r>   14.9306    0.0000 </r>
       <r>   16.3169    0.0000 </r>
      </set>
      <set comment="kpoint 6">
       <r>  -10.4599    1.0000 </r>
       <r>  -10.2430    1.0000 </r>
       <r>   -6.7329    1.0000 </r>
       <r>   -6.5856    1.0000 </r>
       <r>   -3.3484    1.0000 </r>
       <r>   -3.2576    1.0000 </r>
       <r>    1.4403    1.0000 </r>
       <r>    2.7931    1.0000 </r>
       <r>    6.9482    0.0000 </r>
       <r>    7.7095    0.0000 </r>
       <r>   14.4443    0.0000 </r>
       <r>   14.6649    0.0000 </r>
       <r>   15.1442    0.0000 </r>
       <r>   17.2158    0.0000 </r>
      </set>
      <set comment="kpoint 7">
       <r>   -7.9712    1.0000 </r>
       <r>   -7.8174    1.0000 </r>
       <r>   -7.8174    1.0000 </r>
       <r>   -7.7808    1.0000 </r>
       <r>   -5.8323    1.0000 </r>
       <r>   -5.8323    1.0000 </r>
       <r>    4.0275    1.0000 </r>
       <r>    4.8336   -0.0012 </r>
       <r>    4.8336   -0.0012 </r>
       <r>    5.3733    0.0000 </r>
       <r>   15.8883    0.0000 </r>
       <r>   15.8883    0.0000 </r>
       <r>   16.9432    0.0000 </r>
       <r>   17.3235    0.0000 </r>
      </set>
      <set comment="kpoint 8">
       <r>  -14.9319    1.0000 </r>
       <r>  -14.6723    1.0000 </r>
       <r>   -3.6815    1.0000 </r>
       <r>   -1.9847    1.0000 </r>
       <r>    1.7233    1.0000 </r>
       <r>    1.7233    1.0000 </r>
       <r>    1.7394    1.0000 </r>
       <r>    1.7395    1.0000 </r>
       <r>    9.3479    0.0000 </r>
       <r>   13.0965    0.0000 </r>
       <r>   13.0965    0.0000 </r>
       <r>   13.1396    0.0000 </r>
       <r>   13.1396    0.0000 </r>
       <r>   14.6479    0.0000 </r>
      </set>
      <set comment="kpoint 9">
       <r>  -14.2696    1.0000 </r>
       <r>  -14.0204    1.0000 </r>
       <r>   -2.8808    1.0000 </r>
       <r>   -1.2302    1.0000 </r>
       <r>   -0.5926    1.0000 </r>
       <r>   -0.5371    1.0000 </r>
       <r>    0.5762    1.0000 </r>
       <r>    0.6105    1.0000 </r>
       <r>   10.1401    0.0000 </r>
       <r>   13.0565    0.0000 </r>
       <r>   13.2196    0.0000 </r>
       <r>   14.0121    0.0000 </r>
       <r>   14.3571    0.0000 </r>
       <r>   15.3307    0.0000 </r>
      </set>
      <set comment="kpoint 10">
       <r>  -12.3166    1.0000 </r>
       <r>  -12.0976    1.0000 </r>
       <r>   -4.9397    1.0000 </r>
       <r>   -4.8241    1.0000 </r>
       <r>   -1.0509    1.0000 </r>
       <r>   -1.0055    1.0000 </r>
       <r>   -0.5761    1.0000 </r>
       <r>    0.8870    1.0000 </r>
       <r>    9.3266    0.0000 </r>
       <r>   10.1270    0.0000 </r>
       <r>   12.2752    0.0000 </r>
       <r>   12.4762    0.0000 </r>
       <r>   12.8669    0.0000 </r>
       <r>   17.0451    0.0000 </r>
      </set>
      <set comment="kpoint 11">
       <r>   -9.5876    1.0000 </r>
       <r>   -9.4839    1.0000 </r>
       <r>   -8.5421    1.0000 </r>
       <r>   -8.4631    1.0000 </r>
       <r>   -1.6902    1.0000 </r>
       <r>   -1.6423    1.0000 </r>
       <r>    2.0227    1.0000 </r>
       <r>    2.6648    1.0000 </r>
       <r>    6.2316    0.0000 </r>
       <r>    6.8838    0.0000 </r>
       <r>   12.0227    0.0000 </r>
       <r>   12.3659    0.0000 </r>
       <r>   16.2611    0.0000 </r>
       <r>   16.3702    0.0000 </r>
      </set>
      <set comment="kpoint 12">
       <r>  -12.9618    1.0000 </r>
       <r>  -12.7329    1.0000 </r>
       <r>   -3.0308    1.0000 </r>
       <r>   -2.9827    1.0000 </r>
       <r>   -1.6827    1.0000 </r>
       <r>   -1.6478    1.0000 </r>
       <r>   -1.3185    1.0000 </r>
       <r>    0.2239    1.0000 </r>
       <r>   10.9652    0.0000 </r>
       <r>   11.3853    0.0000 </r>
       <r>   11.7323    0.0000 </r>
       <r>   14.7059    0.0000 </r>
       <r>   14.9328    0.0000 </r>
       <r>   16.3227    0.0000 </r>
      </set>
      <set comment="kpoint 13">
       <r>  -10.4460    1.0000 </r>
       <r>  -10.2582    1.0000 </r>
       <r>   -6.7234    1.0000 </r>
       <r>   -6.5958    1.0000 </r>
       <r>   -3.3426    1.0000 </r>
       <r>   -3.2639    1.0000 </r>
       <r>    1.5236    1.0000 </r>
       <r>    2.6947    1.0000 </r>
       <r>    6.9859    0.0000 </r>
       <r>    7.6492    0.0000 </r>
       <r>   14.5524    0.0000 </r>
       <r>   14.7290    0.0000 </r>
       <r>   15.1495    0.0000 </r>
       <r>   16.9193    0.0000 </r>
      </set>
      <set comment="kpoint 14">
       <r>   -7.9589    1.0000 </r>
       <r>   -7.8168    1.0000 </r>
       <r>   -7.8168    1.0000 </r>
       <r>   -7.7941    1.0000 </r>
       <r>   -5.8334    1.0000 </r>
       <r>   -5.8334    1.0000 </r>
       <r>    4.1079    1.0000 </r>
       <r>    4.8426   -0.0005 </r>
       <r>    4.8426   -0.0005 </r>
       <r>    5.2701    0.0000 </r>
       <r>   15.5362    0.0000 </r>
       <r>   15.5362    0.0000 </r>
       <r>   17.1466    0.0000 </r>
       <r>   17.8375    0.0000 </r>
      </set>
      <set comment="kpoint 15">
       <r>  -14.8794    1.0000 </r>
       <r>  -14.7297    1.0000 </r>
       <r>   -3.3662    1.0000 </r>
       <r>   -2.3963    1.0000 </r>
       <r>    1.7264    1.0000 </r>
       <r>    1.7264    1.0000 </r>
       <r>    1.7361    1.0000 </r>
       <r>    1.7361    1.0000 </r>
       <r>   10.2902    0.0000 </r>
       <r>   13.1038    0.0000 </r>
       <r>   13.1039    0.0000 </r>
       <r>   13.1302    0.0000 </r>
       <r>   13.1302    0.0000 </r>
       <r>   13.2169    0.0000 </r>
      </set>
      <set comment="kpoint 16">
       <r>  -14.2192    1.0000 </r>
       <r>  -14.0754    1.0000 </r>
       <r>   -2.5733    1.0000 </r>
       <r>   -1.6296    1.0000 </r>
       <r>   -0.5810    1.0000 </r>
       <r>   -0.5488    1.0000 </r>
       <r>    0.5834    1.0000 </r>
       <r>    0.6031    1.0000 </r>
       <r>   11.0462    0.0000 </r>
       <r>   13.0422    0.0000 </r>
       <r>   13.1889    0.0000 </r>
       <r>   13.8780    0.0000 </r>
       <r>   14.1593    0.0000 </r>
       <r>   14.3563    0.0000 </r>
      </set>
      <set comment="kpoint 17">
       <r>  -12.2720    1.0000 </r>
       <r>  -12.1456    1.0000 </r>
       <r>   -4.9158    1.0000 </r>
       <r>   -4.8490    1.0000 </r>
       <r>   -1.0412    1.0000 </r>
       <r>   -1.0152    1.0000 </r>
       <r>   -0.2988    1.0000 </r>
       <r>    0.5397    1.0000 </r>
       <r>    9.4646    0.0000 </r>
       <r>    9.9292    0.0000 </r>
       <r>   12.4164    0.0000 </r>
       <r>   12.5526    0.0000 </r>
       <r>   13.4983    0.0000 </r>
       <r>   15.9431    0.0000 </r>
      </set>
      <set comment="kpoint 18">
       <r>   -9.5634    1.0000 </r>
       <r>   -9.5032    1.0000 </r>
       <r>   -8.5302    1.0000 </r>
       <r>   -8.4842    1.0000 </r>
       <r>   -1.6800    1.0000 </r>
       <r>   -1.6524    1.0000 </r>
       <r>    2.1836    1.0000 </r>
       <r>    2.5632    1.0000 </r>
       <r>    6.2701    0.0000 </r>
       <r>    6.6550    0.0000 </r>
       <r>   12.0931    0.0000 </r>
       <r>   12.2916    0.0000 </r>
       <r>   16.8556    0.0000 </r>
       <r>   16.9311    0.0000 </r>
      </set>
      <set comment="kpoint 19">
       <r>  -12.9153    1.0000 </r>
       <r>  -12.7832    1.0000 </r>
       <r>   -3.0204    1.0000 </r>
       <r>   -2.9926    1.0000 </r>
       <r>   -1.6761    1.0000 </r>
       <r>   -1.6558    1.0000 </r>
       <r>   -1.0288    1.0000 </r>
       <r>   -0.1460    1.0000 </r>
       <r>   11.0531    0.0000 </r>
       <r>   11.2954    0.0000 </r>
       <r>   12.5562    0.0000 </r>
       <r>   14.6166    0.0000 </r>
       <r>   14.9330    0.0000 </r>
       <r>   15.2989    0.0000 </r>
      </set>
      <set comment="kpoint 20">
       <r>  -10.4075    1.0000 </r>
       <r>  -10.2991    1.0000 </r>
       <r>   -6.6971    1.0000 </r>
       <r>   -6.6234    1.0000 </r>
       <r>   -3.3264    1.0000 </r>
       <r>   -3.2810    1.0000 </r>
       <r>    1.7563    1.0000 </r>
       <r>    2.4320    1.0000 </r>
       <r>    7.1015    0.0000 </r>
       <r>    7.4888    0.0000 </r>
       <r>   14.6685    0.0000 </r>
       <r>   14.8347    0.0000 </r>
       <r>   15.3775    0.0000 </r>
       <r>   16.4349    0.0000 </r>
      </set>
      <set comment="kpoint 21">
       <r>   -7.9250    1.0000 </r>
       <r>   -7.8299    1.0000 </r>
       <r>   -7.8157    1.0000 </r>
       <r>   -7.8157    1.0000 </r>
       <r>   -5.8358    1.0000 </r>
       <r>   -5.8358    1.0000 </r>
       <r>    4.3322    1.0000 </r>
       <r>    4.8598   -0.0001 </r>
       <r>    4.8598   -0.0001 </r>
       <r>    4.9998    0.0000 </r>
       <r>   15.0949    0.0000 </r>
       <r>   15.0949    0.0000 </r>
       <r>   17.6924    0.0000 </r>
       <r>   18.7323    0.0000 </r>
      </set>
      <set comment="kpoint 22">
       <r>  -14.8058    1.0000 </r>
       <r>  -14.8058    1.0000 </r>
       <r>   -2.9046    1.0000 </r>
       <r>   -2.9046    1.0000 </r>
       <r>    1.7318    1.0000 </r>
       <r>    1.7318    1.0000 </r>
       <r>    1.7318    1.0000 </r>
       <r>    1.7318    1.0000 </r>
       <r>   11.6532    0.0000 </r>
       <r>   11.6532    0.0000 </r>
       <r>   13.1172    0.0000 </r>
       <r>   13.1172    0.0000 </r>
       <r>   13.1172    0.0000 </r>
       <r>   13.1172    0.0000 </r>
      </set>
      <set comment="kpoint 23">
       <r>  -14.1484    1.0000 </r>
       <r>  -14.1484    1.0000 </r>
       <r>   -2.1236    1.0000 </r>
       <r>   -2.1236    1.0000 </r>
       <r>   -0.5651    1.0000 </r>
       <r>   -0.5651    1.0000 </r>
       <r>    0.5930    1.0000 </r>
       <r>    0.5930    1.0000 </r>
       <r>   12.3227    0.0000 </r>
       <r>   12.3227    0.0000 </r>
       <r>   13.1963    0.0000 </r>
       <r>   13.1963    0.0000 </r>
       <r>   14.2229    0.0000 </r>
       <r>   14.2229    0.0000 </r>
      </set>
      <set comment="kpoint 24">
       <r>  -12.2097    1.0000 </r>
       <r>  -12.2097    1.0000 </r>
       <r>   -4.8827    1.0000 </r>
       <r>   -4.8827    1.0000 </r>
       <r>   -1.0282    1.0000 </r>
       <r>   -1.0282    1.0000 </r>
       <r>    0.1033    1.0000 </r>
       <r>    0.1033    1.0000 </r>
       <r>    9.6836    0.0000 </r>
       <r>    9.6836    0.0000 </r>
       <r>   12.5005    0.0000 </r>
       <r>   12.5005    0.0000 </r>
       <r>   14.6496    0.0000 </r>
       <r>   14.6496    0.0000 </r>
      </set>
      <set comment="kpoint 25">
       <r>   -9.5320    1.0000 </r>
       <r>   -9.5320    1.0000 </r>
       <r>   -8.5095    1.0000 </r>
       <r>   -8.5095    1.0000 </r>
       <r>   -1.6664    1.0000 </r>
       <r>   -1.6664    1.0000 </r>
       <r>    2.3883    1.0000 </r>
       <r>    2.3883    1.0000 </r>
       <r>    6.4157    0.0000 </r>
       <r>    6.4157    0.0000 </r>
       <r>   12.1910    0.0000 </r>
       <r>   12.1910    0.0000 </r>
       <r>   17.3524    0.0000 </r>
       <r>   17.3524    0.0000 </r>
      </set>
      <set comment="kpoint 26">
       <r>  -12.8502    1.0000 </r>
       <r>  -12.8502    1.0000 </r>
       <r>   -3.0063    1.0000 </r>
       <r>   -3.0063    1.0000 </r>
       <r>   -1.6663    1.0000 </r>
       <r>   -1.6663    1.0000 </r>
       <r>   -0.6068    1.0000 </r>
       <r>   -0.6068    1.0000 </r>
       <r>   11.1739    0.0000 </r>
       <r>   11.1739    0.0000 </r>
       <r>   13.7062    0.0000 </r>
       <r>   13.7062    0.0000 </r>
       <r>   14.9422    0.0000 </r>
       <r>   14.9422    0.0000 </r>
      </set>
      <set comment="kpoint 27">
       <r>  -10.3539    1.0000 </r>
       <r>  -10.3539    1.0000 </r>
       <r>   -6.6606    1.0000 </r>
       <r>   -6.6606    1.0000 </r>
       <r>   -3.3039    1.0000 </r>
       <r>   -3.3039    1.0000 </r>
       <r>    2.0864    1.0000 </r>
       <r>    2.0864    1.0000 </r>
       <r>    7.2849    0.0000 </r>
       <r>    7.2849    0.0000 </r>
       <r>   14.7660    0.0000 </r>
       <r>   14.7660    0.0000 </r>
       <r>   15.9009    0.0000 </r>
       <r>   15.9009    0.0000 </r>
      </set>
      <set comment="kpoint 28">
       <r>   -7.8780    1.0000 </r>
       <r>   -7.8780    1.0000 </r>
       <r>   -7.8152    1.0000 </r>
       <r>   -7.8152    1.0000 </r>
       <r>   -5.8371    1.0000 </r>
       <r>   -5.8371    1.0000 </r>
       <r>    4.6547    1.0321 </r>
       <r>    4.6547    1.0321 </r>
       <r>    4.8685    0.0000 </r>
       <r>    4.8685    0.0000 </r>
       <r>   14.9270    0.0000 </r>
       <r>   14.9270    0.0000 </r>
       <r>   18.4104    0.0000 </r>
       <r>   18.4104    0.0000 </r>
      </set>
     </set>
    </set>
   </array>
  </eigenvalues>
  <separator name="orbital magnetization" >
   <v name="MAGDIPOLOUT">      0.00000000      0.00000000      0.00000000</v>
  </separator>
  <dos>
   <i name="efermi">      4.70918460 </i>
   <total>
    <array>
     <dimension dim="1">gridpoints</dimension>
     <dimension dim="2">spin</dimension>
     <field>energy</field>
     <field>total</field>
     <field>integrated</field>
     <set>
      <set comment="spin 1">
       <r>   -16.6665     0.0000     0.0000 </r>
       <r>   -16.5429     0.0000     0.0000 </r>
       <r>   -16.4192     0.0000     0.0000 </r>
       <r>   -16.2956     0.0000     0.0000 </r>
       <r>   -16.1720     0.0000     0.0000 </r>
       <r>   -16.0484     0.0000     0.0000 </r>
       <r>   -15.9248     0.0000     0.0000 </r>
       <r>   -15.8012     0.0000     0.0000 </r>
       <r>   -15.6776     0.0000     0.0000 </r>
       <r>   -15.5539     0.0000     0.0000 </r>
       <r>   -15.4303     0.0000     0.0000 </r>
       <r>   -15.3067     0.0000     0.0000 </r>
       <r>   -15.1831     0.0000     0.0000 </r>
       <r>   -15.0595    -0.0016    -0.0002 </r>
       <r>   -14.9359     0.1134     0.0138 </r>
       <r>   -14.8122     0.1374     0.0308 </r>
       <r>   -14.6886     0.1572     0.0502 </r>
       <r>   -14.5650     0.0433     0.0556 </r>
       <r>   -14.4414    -0.0005     0.0555 </r>
       <r>   -14.3178     0.1908     0.0791 </r>
       <r>   -14.1942     1.0511     0.2090 </r>
       <r>   -14.0706     0.8420     0.3131 </r>
       <r>   -13.9469     0.6208     0.3899 </r>
       <r>   -13.8233    -0.0078     0.3889 </r>
       <r>   -13.6997     0.0000     0.3889 </r>
       <r>   -13.5761     0.0000     0.3889 </r>
       <r>   -13.4525     0.0000     0.3889 </r>
       <r>   -13.3289     0.0000     0.3889 </r>
       <r>   -13.2053     0.0000     0.3889 </r>
       <r>   -13.0816    -0.0128     0.3873 </r>
       <r>   -12.9580     0.7805     0.4838 </r>
       <r>   -12.8344     0.8667     0.5909 </r>
       <r>   -12.7108     1.0631     0.7223 </r>
       <r>   -12.5872    -0.0010     0.7222 </r>
       <r>   -12.4636    -0.0025     0.7219 </r>
       <r>   -12.3400     0.4569     0.7784 </r>
       <r>   -12.2163     1.0455     0.9076 </r>
       <r>   -12.0927     1.1259     1.0468 </r>
       <r>   -11.9691     0.0708     1.0556 </r>
       <r>   -11.8455    -0.0001     1.0556 </r>
       <r>   -11.7219     0.0000     1.0556 </r>
       <r>   -11.5983     0.0000     1.0556 </r>
       <r>   -11.4747     0.0000     1.0556 </r>
       <r>   -11.3510     0.0000     1.0556 </r>
       <r>   -11.2274     0.0000     1.0556 </r>
       <r>   -11.1038     0.0000     1.0556 </r>
       <r>   -10.9802     0.0000     1.0556 </r>
       <r>   -10.8566     0.0000     1.0556 </r>
       <r>   -10.7330     0.0000     1.0556 </r>
       <r>   -10.6094    -0.0011     1.0554 </r>
       <r>   -10.4857     0.4895     1.1159 </r>
       <r>   -10.3621     2.5239     1.4279 </r>
       <r>   -10.2385     2.3885     1.7232 </r>
       <r>   -10.1149    -0.0077     1.7222 </r>
       <r>    -9.9913     0.0000     1.7222 </r>
       <r>    -9.8677     0.0000     1.7222 </r>
       <r>    -9.7441    -0.0003     1.7222 </r>
       <r>    -9.6204     0.1479     1.7405 </r>
       <r>    -9.4968     1.1632     1.8843 </r>
       <r>    -9.3732     0.0375     1.8889 </r>
       <r>    -9.2496     0.0000     1.8889 </r>
       <r>    -9.1260     0.0000     1.8889 </r>
       <r>    -9.0024     0.0000     1.8889 </r>
       <r>    -8.8787     0.0000     1.8889 </r>
       <r>    -8.7551     0.0000     1.8889 </r>
       <r>    -8.6315    -0.0153     1.8870 </r>
       <r>    -8.5079     0.9309     2.0021 </r>
       <r>    -8.3843     0.4356     2.0559 </r>
       <r>    -8.2607    -0.0029     2.0556 </r>
       <r>    -8.1371     0.0000     2.0556 </r>
       <r>    -8.0134    -0.0090     2.0544 </r>
       <r>    -7.8898     0.9584     2.1729 </r>
       <r>    -7.7662     0.7199     2.2619 </r>
       <r>    -7.6426     0.1289     2.2778 </r>
       <r>    -7.5190    -0.0005     2.2778 </r>
       <r>    -7.3954     0.0000     2.2778 </r>
       <r>    -7.2718     0.0000     2.2778 </r>
       <r>    -7.1481     0.0000     2.2778 </r>
       <r>    -7.0245     0.0000     2.2778 </r>
       <r>    -6.9009    -0.0001     2.2778 </r>
       <r>    -6.7773     0.1032     2.2905 </r>
       <r>    -6.6537     3.4001     2.7108 </r>
       <r>    -6.5301     1.9164     2.9477 </r>
       <r>    -6.4065    -0.0264     2.9444 </r>
       <r>    -6.2828     0.0000     2.9444 </r>
       <r>    -6.1592     0.0000     2.9444 </r>
       <r>    -6.0356     0.0000     2.9444 </r>
       <r>    -5.9120    -0.0299     2.9408 </r>
       <r>    -5.7884     0.9586     3.0592 </r>
       <r>    -5.6648    -0.0298     3.0556 </r>
       <r>    -5.5412     0.0000     3.0556 </r>
       <r>    -5.4175     0.0000     3.0556 </r>
       <r>    -5.2939     0.0000     3.0556 </r>
       <r>    -5.1703     0.0000     3.0556 </r>
       <r>    -5.0467    -0.0160     3.0536 </r>
       <r>    -4.9231     1.0770     3.1867 </r>
       <r>    -4.7995     1.6525     3.3910 </r>
       <r>    -4.6759    -0.0170     3.3889 </r>
       <r>    -4.5522     0.0000     3.3889 </r>
       <r>    -4.4286     0.0000     3.3889 </r>
       <r>    -4.3050     0.0000     3.3889 </r>
       <r>    -4.1814     0.0000     3.3889 </r>
       <r>    -4.0578     0.0000     3.3889 </r>
       <r>    -3.9342    -0.0011     3.3888 </r>
       <r>    -3.8106     0.0367     3.3933 </r>
       <r>    -3.6869     0.0793     3.4031 </r>
       <r>    -3.5633    -0.0027     3.4028 </r>
       <r>    -3.4397    -0.0081     3.4018 </r>
       <r>    -3.3161     2.8535     3.7545 </r>
       <r>    -3.1925     2.6568     4.0829 </r>
       <r>    -3.0689     0.2029     4.1080 </r>
       <r>    -2.9452     3.0579     4.4860 </r>
       <r>    -2.8216     0.1512     4.5047 </r>
       <r>    -2.6980    -0.0155     4.5028 </r>
       <r>    -2.5744     0.4791     4.5620 </r>
       <r>    -2.4508     0.0438     4.5674 </r>
       <r>    -2.3272     0.0163     4.5694 </r>
       <r>    -2.2036     0.1557     4.5887 </r>
       <r>    -2.0799     0.3088     4.6268 </r>
       <r>    -1.9563     0.0593     4.6342 </r>
       <r>    -1.8327     0.0385     4.6389 </r>
       <r>    -1.7091     0.6473     4.7189 </r>
       <r>    -1.5855     3.9066     5.2019 </r>
       <r>    -1.4619     0.1288     5.2178 </r>
       <r>    -1.3383     0.5226     5.2824 </r>
       <r>    -1.2146     0.4091     5.3330 </r>
       <r>    -1.0910     0.5537     5.4014 </r>
       <r>    -0.9674     2.8788     5.7573 </r>
       <r>    -0.8438    -0.0605     5.7498 </r>
       <r>    -0.7202     0.1781     5.7718 </r>
       <r>    -0.5966     1.8296     5.9980 </r>
       <r>    -0.4730     1.8357     6.2249 </r>
       <r>    -0.3493     0.3436     6.2674 </r>
       <r>    -0.2257     0.2798     6.3019 </r>
       <r>    -0.1021     0.2544     6.3334 </r>
       <r>     0.0215     0.1636     6.3536 </r>
       <r>     0.1451     0.5116     6.4169 </r>
       <r>     0.2687     0.2683     6.4500 </r>
       <r>     0.3923     0.1665     6.4706 </r>
       <r>     0.5160     0.4080     6.5210 </r>
       <r>     0.6396     2.8014     6.8673 </r>
       <r>     0.7632    -0.0510     6.8610 </r>
       <r>     0.8868     0.4535     6.9171 </r>
       <r>     1.0104     0.2280     6.9453 </r>
       <r>     1.1340    -0.0068     6.9444 </r>
       <r>     1.2576    -0.0010     6.9443 </r>
       <r>     1.3813     0.2465     6.9748 </r>
       <r>     1.5049     1.1206     7.1133 </r>
       <r>     1.6285    -0.0616     7.1057 </r>
       <r>     1.7521     1.8130     7.3298 </r>
       <r>     1.8757     0.0250     7.3329 </r>
       <r>     1.9993     0.6074     7.4080 </r>
       <r>     2.1229     0.7357     7.4989 </r>
       <r>     2.2466     0.1060     7.5120 </r>
       <r>     2.3702     1.0197     7.6381 </r>
       <r>     2.4938     0.3260     7.6784 </r>
       <r>     2.6174     1.0454     7.8076 </r>
       <r>     2.7410     0.6641     7.8897 </r>
       <r>     2.8646    -0.0065     7.8889 </r>
       <r>     2.9883     0.0000     7.8889 </r>
       <r>     3.1119     0.0000     7.8889 </r>
       <r>     3.2355     0.0000     7.8889 </r>
       <r>     3.3591     0.0000     7.8889 </r>
       <r>     3.4827     0.0000     7.8889 </r>
       <r>     3.6063     0.0000     7.8889 </r>
       <r>     3.7299     0.0000     7.8889 </r>
       <r>     3.8536     0.0000     7.8889 </r>
       <r>     3.9772     0.0000     7.8889 </r>
       <r>     4.1008     0.0026     7.8892 </r>
       <r>     4.2244     0.1676     7.9099 </r>
       <r>     4.3480     0.0529     7.9165 </r>
       <r>     4.4716     0.1316     7.9327 </r>
       <r>     4.5952     0.7308     8.0231 </r>
       <r>     4.7189     0.1853     8.0460 </r>
       <r>     4.8425     0.1564     8.0653 </r>
       <r>     4.9661    -0.0040     8.0648 </r>
       <r>     5.0897     0.0209     8.0674 </r>
       <r>     5.2133     0.1302     8.0835 </r>
       <r>     5.3369    -0.0047     8.0829 </r>
       <r>     5.4605     0.1638     8.1031 </r>
       <r>     5.5842     0.0653     8.1112 </r>
       <r>     5.7078    -0.0009     8.1111 </r>
       <r>     5.8314     0.0000     8.1111 </r>
       <r>     5.9550     0.0000     8.1111 </r>
       <r>     6.0786    -0.0001     8.1111 </r>
       <r>     6.2022     0.0867     8.1218 </r>
       <r>     6.3258     0.5447     8.1891 </r>
       <r>     6.4495     0.1538     8.2082 </r>
       <r>     6.5731     0.2028     8.2332 </r>
       <r>     6.6967     0.0159     8.2352 </r>
       <r>     6.8203     0.2388     8.2647 </r>
       <r>     6.9439     1.3519     8.4318 </r>
       <r>     7.0675     1.0005     8.5555 </r>
       <r>     7.1911     0.3084     8.5936 </r>
       <r>     7.3148     0.5758     8.6648 </r>
       <r>     7.4384     0.9033     8.7765 </r>
       <r>     7.5620     0.5445     8.8438 </r>
       <r>     7.6856     0.8292     8.9463 </r>
       <r>     7.8092    -0.0148     8.9444 </r>
       <r>     7.9328     0.0000     8.9444 </r>
       <r>     8.0564     0.0000     8.9444 </r>
       <r>     8.1801     0.0000     8.9444 </r>
       <r>     8.3037     0.0000     8.9444 </r>
       <r>     8.4273     0.0000     8.9444 </r>
       <r>     8.5509     0.0000     8.9444 </r>
       <r>     8.6745     0.0000     8.9444 </r>
       <r>     8.7981     0.0000     8.9444 </r>
       <r>     8.9218    -0.0011     8.9443 </r>
       <r>     9.0454     0.0396     8.9492 </r>
       <r>     9.1690    -0.0127     8.9477 </r>
       <r>     9.2926     0.6918     9.0332 </r>
       <r>     9.4162     0.4857     9.0932 </r>
       <r>     9.5398     0.0172     9.0953 </r>
       <r>     9.6634     0.4793     9.1546 </r>
       <r>     9.7871     0.1251     9.1700 </r>
       <r>     9.9107     0.5454     9.2375 </r>
       <r>    10.0343     0.2553     9.2690 </r>
       <r>    10.1579     0.8786     9.3776 </r>
       <r>    10.2815     0.0483     9.3836 </r>
       <r>    10.4051     0.0054     9.3843 </r>
       <r>    10.5287     0.0000     9.3843 </r>
       <r>    10.6524     0.0000     9.3843 </r>
       <r>    10.7760    -0.0097     9.3831 </r>
       <r>    10.8996     0.5912     9.4561 </r>
       <r>    11.0232     0.8917     9.5664 </r>
       <r>    11.1468     0.5540     9.6349 </r>
       <r>    11.2704     0.5842     9.7071 </r>
       <r>    11.3940     0.6538     9.7879 </r>
       <r>    11.5177     0.1048     9.8008 </r>
       <r>    11.6413     0.0552     9.8077 </r>
       <r>    11.7649     0.4857     9.8677 </r>
       <r>    11.8885    -0.0216     9.8650 </r>
       <r>    12.0121     0.3131     9.9037 </r>
       <r>    12.1357     0.5416     9.9707 </r>
       <r>    12.2593     0.6641    10.0528 </r>
       <r>    12.3830     1.3314    10.2174 </r>
       <r>    12.5066     1.4857    10.4010 </r>
       <r>    12.6302     0.6166    10.4772 </r>
       <r>    12.7538     0.0644    10.4852 </r>
       <r>    12.8774     0.5998    10.5593 </r>
       <r>    13.0010     0.1751    10.5810 </r>
       <r>    13.1246     1.5863    10.7771 </r>
       <r>    13.2483     1.9372    11.0165 </r>
       <r>    13.3719    -0.0284    11.0130 </r>
       <r>    13.4955     0.4398    11.0674 </r>
       <r>    13.6191     0.0113    11.0688 </r>
       <r>    13.7427     0.4646    11.1262 </r>
       <r>    13.8663     0.2805    11.1609 </r>
       <r>    13.9899     0.8863    11.2705 </r>
       <r>    14.1136     0.5709    11.3410 </r>
       <r>    14.2372     0.4924    11.4019 </r>
       <r>    14.3608     0.9024    11.5134 </r>
       <r>    14.4844     0.4377    11.5676 </r>
       <r>    14.6080     1.9271    11.8058 </r>
       <r>    14.7316     3.4735    12.2351 </r>
       <r>    14.8553     1.2129    12.3851 </r>
       <r>    14.9789     1.7612    12.6028 </r>
       <r>    15.1025     0.4909    12.6635 </r>
       <r>    15.2261     1.1877    12.8103 </r>
       <r>    15.3497     1.3082    12.9720 </r>
       <r>    15.4733     0.5169    13.0359 </r>
       <r>    15.5969     0.1953    13.0600 </r>
       <r>    15.7206     0.2336    13.0889 </r>
       <r>    15.8442     0.3982    13.1381 </r>
       <r>    15.9678     1.1409    13.2792 </r>
       <r>    16.0914     0.1421    13.2967 </r>
       <r>    16.2150     0.0329    13.3008 </r>
       <r>    16.3386     1.2136    13.4508 </r>
       <r>    16.4622     0.8643    13.5577 </r>
       <r>    16.5859    -0.0171    13.5556 </r>
       <r>    16.7095    -0.0075    13.5546 </r>
       <r>    16.8331     0.3961    13.6036 </r>
       <r>    16.9567     0.9934    13.7264 </r>
       <r>    17.0803     0.4787    13.7856 </r>
       <r>    17.2039     0.5713    13.8562 </r>
       <r>    17.3275     0.3433    13.8986 </r>
       <r>    17.4512     0.1561    13.9179 </r>
       <r>    17.5748     0.0648    13.9259 </r>
       <r>    17.6984    -0.0043    13.9254 </r>
       <r>    17.8220     0.3121    13.9640 </r>
       <r>    17.9456    -0.0083    13.9630 </r>
       <r>    18.0692     0.0000    13.9630 </r>
       <r>    18.1928     0.0000    13.9630 </r>
       <r>    18.3165    -0.0001    13.9630 </r>
       <r>    18.4401     0.0489    13.9690 </r>
       <r>    18.5637     0.0998    13.9813 </r>
       <r>    18.6873     0.1381    13.9984 </r>
       <r>    18.8109     0.0130    14.0000 </r>
       <r>    18.9345     0.0000    14.0000 </r>
       <r>    19.0581     0.0000    14.0000 </r>
       <r>    19.1818     0.0000    14.0000 </r>
       <r>    19.3054     0.0000    14.0000 </r>
       <r>    19.4290     0.0000    14.0000 </r>
       <r>    19.5526     0.0000    14.0000 </r>
       <r>    19.6762     0.0000    14.0000 </r>
       <r>    19.7998     0.0000    14.0000 </r>
       <r>    19.9235     0.0000    14.0000 </r>
       <r>    20.0471     0.0000    14.0000 </r>
       <r>    20.1707     0.0000    14.0000 </r>
       <r>    20.2943     0.0000    14.0000 </r>
       <r>    20.4179     0.0000    14.0000 </r>
      </set>
      <set comment="spin 2">
       <r>   -16.6665     0.0000     0.0000 </r>
       <r>   -16.5429     0.0000     0.0000 </r>
       <r>   -16.4192     0.0000     0.0000 </r>
       <r>   -16.2956     0.0000     0.0000 </r>
       <r>   -16.1720     0.0000     0.0000 </r>
       <r>   -16.0484     0.0000     0.0000 </r>
       <r>   -15.9248     0.0000     0.0000 </r>
       <r>   -15.8012     0.0000     0.0000 </r>
       <r>   -15.6776     0.0000     0.0000 </r>
       <r>   -15.5539     0.0000     0.0000 </r>
       <r>   -15.4303     0.0000     0.0000 </r>
       <r>   -15.3067     0.0000     0.0000 </r>
       <r>   -15.1831     0.0000     0.0000 </r>
       <r>   -15.0595    -0.0002     0.0000 </r>
       <r>   -14.9359     0.0578     0.0071 </r>
       <r>   -14.8122     0.1601     0.0269 </r>
       <r>   -14.6886     0.1379     0.0440 </r>
       <r>   -14.5650     0.0948     0.0557 </r>
       <r>   -14.4414    -0.0010     0.0556 </r>
       <r>   -14.3178     0.0046     0.0561 </r>
       <r>   -14.1942     1.0682     0.1882 </r>
       <r>   -14.0706     0.7545     0.2814 </r>
       <r>   -13.9469     0.8894     0.3914 </r>
       <r>   -13.8233    -0.0202     0.3889 </r>
       <r>   -13.6997     0.0000     0.3889 </r>
       <r>   -13.5761     0.0000     0.3889 </r>
       <r>   -13.4525     0.0000     0.3889 </r>
       <r>   -13.3289     0.0000     0.3889 </r>
       <r>   -13.2053     0.0000     0.3889 </r>
       <r>   -13.0816    -0.0023     0.3886 </r>
       <r>   -12.9580     0.4361     0.4425 </r>
       <r>   -12.8344     1.0228     0.5689 </r>
       <r>   -12.7108     1.0806     0.7025 </r>
       <r>   -12.5872     0.1597     0.7223 </r>
       <r>   -12.4636    -0.0005     0.7222 </r>
       <r>   -12.3400     0.1364     0.7391 </r>
       <r>   -12.2163     1.1657     0.8832 </r>
       <r>   -12.0927     1.0611     1.0143 </r>
       <r>   -11.9691     0.3348     1.0557 </r>
       <r>   -11.8455    -0.0012     1.0556 </r>
       <r>   -11.7219     0.0000     1.0556 </r>
       <r>   -11.5983     0.0000     1.0556 </r>
       <r>   -11.4747     0.0000     1.0556 </r>
       <r>   -11.3510     0.0000     1.0556 </r>
       <r>   -11.2274     0.0000     1.0556 </r>
       <r>   -11.1038     0.0000     1.0556 </r>
       <r>   -10.9802     0.0000     1.0556 </r>
       <r>   -10.8566     0.0000     1.0556 </r>
       <r>   -10.7330     0.0000     1.0556 </r>
       <r>   -10.6094    -0.0001     1.0555 </r>
       <r>   -10.4857     0.0415     1.0607 </r>
       <r>   -10.3621     2.5269     1.3730 </r>
       <r>   -10.2385     2.4945     1.6814 </r>
       <r>   -10.1149     0.3308     1.7223 </r>
       <r>    -9.9913    -0.0006     1.7222 </r>
       <r>    -9.8677     0.0000     1.7222 </r>
       <r>    -9.7441     0.0000     1.7222 </r>
       <r>    -9.6204     0.0170     1.7243 </r>
       <r>    -9.4968     0.9957     1.8474 </r>
       <r>    -9.3732     0.3373     1.8891 </r>
       <r>    -9.2496    -0.0017     1.8889 </r>
       <r>    -9.1260     0.0000     1.8889 </r>
       <r>    -9.0024     0.0000     1.8889 </r>
       <r>    -8.8787     0.0000     1.8889 </r>
       <r>    -8.7551     0.0000     1.8889 </r>
       <r>    -8.6315    -0.0074     1.8880 </r>
       <r>    -8.5079     0.6650     1.9702 </r>
       <r>    -8.3843     0.7017     2.0569 </r>
       <r>    -8.2607    -0.0111     2.0556 </r>
       <r>    -8.1371     0.0000     2.0556 </r>
       <r>    -8.0134    -0.0073     2.0547 </r>
       <r>    -7.8898     0.3950     2.1035 </r>
       <r>    -7.7662     1.4036     2.2770 </r>
       <r>    -7.6426     0.0064     2.2778 </r>
       <r>    -7.5190     0.0000     2.2778 </r>
       <r>    -7.3954     0.0000     2.2778 </r>
       <r>    -7.2718     0.0000     2.2778 </r>
       <r>    -7.1481     0.0000     2.2778 </r>
       <r>    -7.0245     0.0000     2.2778 </r>
       <r>    -6.9009     0.0000     2.2778 </r>
       <r>    -6.7773    -0.0551     2.2710 </r>
       <r>    -6.6537     2.9234     2.6323 </r>
       <r>    -6.5301     2.5820     2.9515 </r>
       <r>    -6.4065    -0.0572     2.9444 </r>
       <r>    -6.2828     0.0000     2.9444 </r>
       <r>    -6.1592     0.0000     2.9444 </r>
       <r>    -6.0356     0.0000     2.9444 </r>
       <r>    -5.9120    -0.0229     2.9416 </r>
       <r>    -5.7884     0.9354     3.0572 </r>
       <r>    -5.6648    -0.0136     3.0556 </r>
       <r>    -5.5412     0.0000     3.0556 </r>
       <r>    -5.4175     0.0000     3.0556 </r>
       <r>    -5.2939     0.0000     3.0556 </r>
       <r>    -5.1703     0.0000     3.0556 </r>
       <r>    -5.0467    -0.0045     3.0550 </r>
       <r>    -4.9231     0.7003     3.1416 </r>
       <r>    -4.7995     1.9051     3.3771 </r>
       <r>    -4.6759     0.0958     3.3889 </r>
       <r>    -4.5522    -0.0001     3.3889 </r>
       <r>    -4.4286     0.0000     3.3889 </r>
       <r>    -4.3050     0.0000     3.3889 </r>
       <r>    -4.1814     0.0000     3.3889 </r>
       <r>    -4.0578     0.0000     3.3889 </r>
       <r>    -3.9342     0.0000     3.3889 </r>
       <r>    -3.8106     0.0083     3.3899 </r>
       <r>    -3.6869     0.0600     3.3973 </r>
       <r>    -3.5633     0.0443     3.4028 </r>
       <r>    -3.4397    -0.0202     3.4003 </r>
       <r>    -3.3161     2.1825     3.6701 </r>
       <r>    -3.1925     3.3664     4.0862 </r>
       <r>    -3.0689    -0.0954     4.0744 </r>
       <r>    -2.9452     2.9689     4.4414 </r>
       <r>    -2.8216     0.5285     4.5068 </r>
       <r>    -2.6980    -0.0179     4.5046 </r>
       <r>    -2.5744     0.2166     4.5313 </r>
       <r>    -2.4508     0.2316     4.5600 </r>
       <r>    -2.3272     0.0791     4.5697 </r>
       <r>    -2.2036    -0.0128     4.5682 </r>
       <r>    -2.0799     0.4619     4.6253 </r>
       <r>    -1.9563     0.0657     4.6334 </r>
       <r>    -1.8327     0.0196     4.6358 </r>
       <r>    -1.7091     0.1586     4.6554 </r>
       <r>    -1.5855     4.4526     5.2058 </r>
       <r>    -1.4619    -0.0908     5.1946 </r>
       <r>    -1.3383     0.3125     5.2332 </r>
       <r>    -1.2146     0.7001     5.3198 </r>
       <r>    -1.0910     0.1038     5.3326 </r>
       <r>    -0.9674     3.4254     5.7560 </r>
       <r>    -0.8438    -0.0488     5.7500 </r>
       <r>    -0.7202    -0.0054     5.7493 </r>
       <r>    -0.5966     1.0373     5.8776 </r>
       <r>    -0.4730     2.8360     6.2281 </r>
       <r>    -0.3493    -0.0596     6.2208 </r>
       <r>    -0.2257     0.4639     6.2781 </r>
       <r>    -0.1021     0.4501     6.3338 </r>
       <r>     0.0215    -0.0130     6.3321 </r>
       <r>     0.1451     0.4476     6.3875 </r>
       <r>     0.2687     0.4639     6.4448 </r>
       <r>     0.3923     0.1903     6.4683 </r>
       <r>     0.5160     0.0311     6.4722 </r>
       <r>     0.6396     3.1161     6.8574 </r>
       <r>     0.7632     0.0296     6.8610 </r>
       <r>     0.8868     0.2239     6.8887 </r>
       <r>     1.0104     0.2980     6.9256 </r>
       <r>     1.1340     0.1535     6.9445 </r>
       <r>     1.2576    -0.0007     6.9444 </r>
       <r>     1.3813    -0.0160     6.9425 </r>
       <r>     1.5049     0.6668     7.0249 </r>
       <r>     1.6285     0.6954     7.1109 </r>
       <r>     1.7521     1.1184     7.2491 </r>
       <r>     1.8757     0.6813     7.3333 </r>
       <r>     1.9993     0.1282     7.3492 </r>
       <r>     2.1229     1.0747     7.4820 </r>
       <r>     2.2466     0.2657     7.5149 </r>
       <r>     2.3702     0.0086     7.5159 </r>
       <r>     2.4938     1.1329     7.6560 </r>
       <r>     2.6174     0.1759     7.6777 </r>
       <r>     2.7410     1.2676     7.8344 </r>
       <r>     2.8646     0.4544     7.8906 </r>
       <r>     2.9883    -0.0138     7.8889 </r>
       <r>     3.1119     0.0000     7.8889 </r>
       <r>     3.2355     0.0000     7.8889 </r>
       <r>     3.3591     0.0000     7.8889 </r>
       <r>     3.4827     0.0000     7.8889 </r>
       <r>     3.6063     0.0000     7.8889 </r>
       <r>     3.7299     0.0000     7.8889 </r>
       <r>     3.8536     0.0000     7.8889 </r>
       <r>     3.9772    -0.0020     7.8886 </r>
       <r>     4.1008     0.1361     7.9055 </r>
       <r>     4.2244     0.0903     7.9166 </r>
       <r>     4.3480     0.1131     7.9306 </r>
       <r>     4.4716     0.0371     7.9352 </r>
       <r>     4.5952    -0.0053     7.9345 </r>
       <r>     4.7189     0.1594     7.9542 </r>
       <r>     4.8425     0.3270     7.9947 </r>
       <r>     4.9661     0.5783     8.0662 </r>
       <r>     5.0897     0.1412     8.0836 </r>
       <r>     5.2133    -0.0073     8.0827 </r>
       <r>     5.3369     0.1623     8.1028 </r>
       <r>     5.4605     0.0688     8.1113 </r>
       <r>     5.5842    -0.0012     8.1111 </r>
       <r>     5.7078     0.0000     8.1111 </r>
       <r>     5.8314     0.0000     8.1111 </r>
       <r>     5.9550     0.0000     8.1111 </r>
       <r>     6.0786     0.0000     8.1111 </r>
       <r>     6.2022     0.0192     8.1135 </r>
       <r>     6.3258     0.5509     8.1816 </r>
       <r>     6.4495     0.2055     8.2070 </r>
       <r>     6.5731     0.0062     8.2077 </r>
       <r>     6.6967     0.2291     8.2361 </r>
       <r>     6.8203    -0.0079     8.2351 </r>
       <r>     6.9439     0.4392     8.2894 </r>
       <r>     7.0675     1.3192     8.4525 </r>
       <r>     7.1911     0.8367     8.5559 </r>
       <r>     7.3148     0.8236     8.6577 </r>
       <r>     7.4384     0.0493     8.6638 </r>
       <r>     7.5620     0.9334     8.7792 </r>
       <r>     7.6856     0.9240     8.8934 </r>
       <r>     7.8092     0.4167     8.9449 </r>
       <r>     7.9328    -0.0037     8.9444 </r>
       <r>     8.0564     0.0000     8.9444 </r>
       <r>     8.1801     0.0000     8.9444 </r>
       <r>     8.3037     0.0000     8.9444 </r>
       <r>     8.4273     0.0000     8.9444 </r>
       <r>     8.5509     0.0000     8.9444 </r>
       <r>     8.6745     0.0000     8.9444 </r>
       <r>     8.7981     0.0000     8.9444 </r>
       <r>     8.9218    -0.0007     8.9444 </r>
       <r>     9.0454     0.0373     8.9490 </r>
       <r>     9.1690     0.0002     8.9490 </r>
       <r>     9.2926     0.1628     8.9691 </r>
       <r>     9.4162     0.5864     9.0416 </r>
       <r>     9.5398     0.4620     9.0987 </r>
       <r>     9.6634     0.0718     9.1076 </r>
       <r>     9.7871     0.3987     9.1569 </r>
       <r>     9.9107     0.2870     9.1924 </r>
       <r>    10.0343     0.3483     9.2354 </r>
       <r>    10.1579     0.7713     9.3308 </r>
       <r>    10.2815     0.3900     9.3790 </r>
       <r>    10.4051     0.0429     9.3843 </r>
       <r>    10.5287    -0.0002     9.3843 </r>
       <r>    10.6524     0.0000     9.3843 </r>
       <r>    10.7760     0.0000     9.3843 </r>
       <r>    10.8996    -0.0054     9.3836 </r>
       <r>    11.0232     0.8038     9.4830 </r>
       <r>    11.1468     0.8316     9.5858 </r>
       <r>    11.2704     0.4541     9.6419 </r>
       <r>    11.3940     0.7126     9.7300 </r>
       <r>    11.5177     0.5800     9.8017 </r>
[...]
       </set>
       <set comment="band 10">
        <r>  0.0003  0.0000  0.1803  0.0000  0.0000  0.0000  0.0000  0.0000  0.0000 </r>
        <r>  0.0000  0.0001  0.1633  0.0002  0.0000  0.0000  0.0000  0.0000  0.0000 </r>
        <r>  0.0001  0.0002  0.0459  0.0006  0.0000  0.0000  0.0000  0.0000  0.0000 </r>
        <r>  0.0012  0.0000  0.0507  0.0000  0.0000  0.0000  0.0000  0.0000  0.0000 </r>
       </set>
       <set comment="band 11">
        <r>  0.0695  0.0038  0.0000  0.0113  0.0000  0.0000  0.0000  0.0000  0.0000 </r>
        <r>  0.0698  0.0038  0.0000  0.0113  0.0000  0.0000  0.0000  0.0000  0.0000 </r>
        <r>  0.1159  0.0063  0.0000  0.0188  0.0000  0.0000  0.0000  0.0000  0.0000 </r>
        <r>  0.1154  0.0063  0.0000  0.0188  0.0000  0.0000  0.0000  0.0000  0.0000 </r>
       </set>
       <set comment="band 12">
        <r>  0.1154  0.0063  0.0000  0.0188  0.0000  0.0000  0.0000  0.0000  0.0000 </r>
        <r>  0.1159  0.0063  0.0000  0.0188  0.0000  0.0000  0.0000  0.0000  0.0000 </r>
        <r>  0.0698  0.0038  0.0000  0.0113  0.0000  0.0000  0.0000  0.0000  0.0000 </r>
        <r>  0.0695  0.0038  0.0000  0.0113  0.0000  0.0000  0.0000  0.0000  0.0000 </r>
       </set>
       <set comment="band 13">
        <r>  0.0043  0.0007  0.0463  0.0022  0.0000  0.0000  0.0000  0.0000  0.0000 </r>
        <r>  0.0004  0.0046  0.0557  0.0139  0.0000  0.0000  0.0000  0.0000  0.0000 </r>
        <r>  0.0005  0.0063  0.0408  0.0190  0.0000  0.0000  0.0000  0.0000  0.0000 </r>
        <r>  0.0059  0.0010  0.0339  0.0030  0.0000  0.0000  0.0000  0.0000  0.0000 </r>
       </set>
       <set comment="band 14">
        <r>  0.0059  0.0010  0.0339  0.0030  0.0000  0.0000  0.0000  0.0000  0.0000 </r>
        <r>  0.0005  0.0063  0.0408  0.0190  0.0000  0.0000  0.0000  0.0000  0.0000 </r>
        <r>  0.0004  0.0046  0.0557  0.0139  0.0000  0.0000  0.0000  0.0000  0.0000 </r>
        <r>  0.0043  0.0007  0.0463  0.0022  0.0000  0.0000  0.0000  0.0000  0.0000 </r>
       </set>
      </set>
      <set comment="kpoint 26">
       <set comment="band 1">
        <r>  0.1113  0.0117  0.0000  0.0039  0.0000  0.0000  0.0000  0.0000  0.0000 </r>
        <r>  0.1128  0.0116  0.0000  0.0039  0.0000  0.0000  0.0000  0.0000  0.0000 </r>
        <r>  0.1818  0.0187  0.0000  0.0063  0.0000  0.0000  0.0000  0.0000  0.0000 </r>
        <r>  0.1794  0.0189  0.0000  0.0063  0.0000  0.0000  0.0000  0.0000  0.0000 </r>
       </set>
       <set comment="band 2">
        <r>  0.1794  0.0189  0.0000  0.0063  0.0000  0.0000  0.0000  0.0000  0.0000 </r>
        <r>  0.1818  0.0187  0.0000  0.0063  0.0000  0.0000  0.0000  0.0000  0.0000 </r>
        <r>  0.1128  0.0116  0.0000  0.0039  0.0000  0.0000  0.0000  0.0000  0.0000 </r>
        <r>  0.1113  0.0117  0.0000  0.0039  0.0000  0.0000  0.0000  0.0000  0.0000 </r>
       </set>
       <set comment="band 3">
        <r>  0.0412  0.0595  0.0000  0.0304  0.0000  0.0000  0.0000  0.0000  0.0000 </r>
        <r>  0.0409  0.0607  0.0000  0.0304  0.0000  0.0000  0.0000  0.0000  0.0000 </r>
        <r>  0.0798  0.1182  0.0000  0.0592  0.0000  0.0000  0.0000  0.0000  0.0000 </r>
        <r>  0.0803  0.1160  0.0000  0.0593  0.0000  0.0000  0.0000  0.0000  0.0000 </r>
       </set>
       <set comment="band 4">
        <r>  0.0803  0.1160  0.0000  0.0593  0.0000  0.0000  0.0000  0.0000  0.0000 </r>
        <r>  0.0798  0.1182  0.0000  0.0592  0.0000  0.0000  0.0000  0.0000  0.0000 </r>
        <r>  0.0409  0.0607  0.0000  0.0304  0.0000  0.0000  0.0000  0.0000  0.0000 </r>
        <r>  0.0412  0.0595  0.0000  0.0304  0.0000  0.0000  0.0000  0.0000  0.0000 </r>
       </set>
       <set comment="band 5">
        <r>  0.0109  0.0982  0.0000  0.1929  0.0000  0.0000  0.0000  0.0000  0.0000 </r>
        <r>  0.0104  0.0976  0.0000  0.1950  0.0000  0.0000  0.0000  0.0000  0.0000 </r>
        <r>  0.0024  0.0227  0.0000  0.0453  0.0000  0.0000  0.0000  0.0000  0.0000 </r>
        <r>  0.0025  0.0228  0.0000  0.0448  0.0000  0.0000  0.0000  0.0000  0.0000 </r>
       </set>
       <set comment="band 6">
        <r>  0.0025  0.0228  0.0000  0.0448  0.0000  0.0000  0.0000  0.0000  0.0000 </r>
        <r>  0.0024  0.0227  0.0000  0.0453  0.0000  0.0000  0.0000  0.0000  0.0000 </r>
        <r>  0.0104  0.0976  0.0000  0.1950  0.0000  0.0000  0.0000  0.0000  0.0000 </r>
        <r>  0.0109  0.0982  0.0000  0.1929  0.0000  0.0000  0.0000  0.0000  0.0000 </r>
       </set>
       <set comment="band 7">
        <r>  0.0003  0.0001  0.1413  0.0000  0.0000  0.0000  0.0000  0.0000  0.0000 </r>
        <r>  0.0005  0.0000  0.1478  0.0000  0.0000  0.0000  0.0000  0.0000  0.0000 </r>
        <r>  0.0009  0.0001  0.0806  0.0000  0.0000  0.0000  0.0000  0.0000  0.0000 </r>
        <r>  0.0006  0.0002  0.0771  0.0001  0.0000  0.0000  0.0000  0.0000  0.0000 </r>
       </set>
       <set comment="band 8">
        <r>  0.0006  0.0002  0.0771  0.0001  0.0000  0.0000  0.0000  0.0000  0.0000 </r>
        <r>  0.0009  0.0001  0.0806  0.0000  0.0000  0.0000  0.0000  0.0000  0.0000 </r>
        <r>  0.0005  0.0000  0.1478  0.0000  0.0000  0.0000  0.0000  0.0000  0.0000 </r>
        <r>  0.0003  0.0001  0.1413  0.0000  0.0000  0.0000  0.0000  0.0000  0.0000 </r>
       </set>
       <set comment="band 9">
        <r>  0.0000  0.0005  0.0531  0.0008  0.0000  0.0000  0.0000  0.0000  0.0000 </r>
        <r>  0.0001  0.0001  0.0522  0.0002  0.0000  0.0000  0.0000  0.0000  0.0000 </r>
        <r>  0.0000  0.0000  0.2464  0.0001  0.0000  0.0000  0.0000  0.0000  0.0000 </r>
        <r>  0.0000  0.0001  0.2508  0.0002  0.0000  0.0000  0.0000  0.0000  0.0000 </r>
       </set>
       <set comment="band 10">
        <r>  0.0000  0.0001  0.2508  0.0002  0.0000  0.0000  0.0000  0.0000  0.0000 </r>
        <r>  0.0000  0.0000  0.2464  0.0001  0.0000  0.0000  0.0000  0.0000  0.0000 </r>
        <r>  0.0001  0.0001  0.0522  0.0002  0.0000  0.0000  0.0000  0.0000  0.0000 </r>
        <r>  0.0000  0.0005  0.0531  0.0008  0.0000  0.0000  0.0000  0.0000  0.0000 </r>
       </set>
       <set comment="band 11">
        <r>  0.0040  0.0133  0.0178  0.0083  0.0000  0.0000  0.0000  0.0000  0.0000 </r>
        <r>  0.0047  0.0152  0.0223  0.0096  0.0000  0.0000  0.0000  0.0000  0.0000 </r>
        <r>  0.0027  0.0086  0.0392  0.0055  0.0000  0.0000  0.0000  0.0000  0.0000 </r>
        <r>  0.0023  0.0076  0.0313  0.0047  0.0000  0.0000  0.0000  0.0000  0.0000 </r>
       </set>
       <set comment="band 12">
        <r>  0.0023  0.0076  0.0313  0.0047  0.0000  0.0000  0.0000  0.0000  0.0000 </r>
        <r>  0.0027  0.0086  0.0392  0.0055  0.0000  0.0000  0.0000  0.0000  0.0000 </r>
        <r>  0.0047  0.0151  0.0223  0.0096  0.0000  0.0000  0.0000  0.0000  0.0000 </r>
        <r>  0.0040  0.0133  0.0178  0.0083  0.0000  0.0000  0.0000  0.0000  0.0000 </r>
       </set>
       <set comment="band 13">
        <r>  0.0162  0.0219  0.0101  0.0277  0.0000  0.0000  0.0000  0.0000  0.0000 </r>
        <r>  0.0172  0.0209  0.0005  0.0266  0.0000  0.0000  0.0000  0.0000  0.0000 </r>
        <r>  0.0394  0.0480  0.0002  0.0610  0.0000  0.0000  0.0000  0.0000  0.0000 </r>
        <r>  0.0373  0.0502  0.0044  0.0635  0.0000  0.0000  0.0000  0.0000  0.0000 </r>
       </set>
       <set comment="band 14">
        <r>  0.0373  0.0502  0.0044  0.0635  0.0000  0.0000  0.0000  0.0000  0.0000 </r>
        <r>  0.0394  0.0480  0.0002  0.0610  0.0000  0.0000  0.0000  0.0000  0.0000 </r>
        <r>  0.0172  0.0209  0.0005  0.0266  0.0000  0.0000  0.0000  0.0000  0.0000 </r>
        <r>  0.0162  0.0219  0.0101  0.0277  0.0000  0.0000  0.0000  0.0000  0.0000 </r>
       </set>
      </set>
      <set comment="kpoint 27">
       <set comment="band 1">
        <r>  0.1768  0.0343  0.0000  0.0256  0.0000  0.0000  0.0000  0.0000  0.0000 </r>
        <r>  0.1820  0.0336  0.0000  0.0248  0.0000  0.0000  0.0000  0.0000  0.0000 </r>
        <r>  0.0840  0.0155  0.0000  0.0114  0.0000  0.0000  0.0000  0.0000  0.0000 </r>
        <r>  0.0816  0.0158  0.0000  0.0118  0.0000  0.0000  0.0000  0.0000  0.0000 </r>
       </set>
       <set comment="band 2">
        <r>  0.0816  0.0158  0.0000  0.0118  0.0000  0.0000  0.0000  0.0000  0.0000 </r>
        <r>  0.0840  0.0155  0.0000  0.0114  0.0000  0.0000  0.0000  0.0000  0.0000 </r>
        <r>  0.1820  0.0336  0.0000  0.0248  0.0000  0.0000  0.0000  0.0000  0.0000 </r>
        <r>  0.1768  0.0343  0.0000  0.0256  0.0000  0.0000  0.0000  0.0000  0.0000 </r>
       </set>
       <set comment="band 3">
        <r>  0.0814  0.0136  0.0000  0.0753  0.0000  0.0000  0.0000  0.0000  0.0000 </r>
        <r>  0.0795  0.0145  0.0000  0.0764  0.0000  0.0000  0.0000  0.0000  0.0000 </r>
        <r>  0.0891  0.0162  0.0000  0.0856  0.0000  0.0000  0.0000  0.0000  0.0000 </r>
        <r>  0.0912  0.0152  0.0000  0.0844  0.0000  0.0000  0.0000  0.0000  0.0000 </r>
       </set>
       <set comment="band 4">
        <r>  0.0912  0.0152  0.0000  0.0844  0.0000  0.0000  0.0000  0.0000  0.0000 </r>
        <r>  0.0891  0.0162  0.0000  0.0856  0.0000  0.0000  0.0000  0.0000  0.0000 </r>
        <r>  0.0795  0.0145  0.0000  0.0764  0.0000  0.0000  0.0000  0.0000  0.0000 </r>
        <r>  0.0814  0.0136  0.0000  0.0753  0.0000  0.0000  0.0000  0.0000  0.0000 </r>
       </set>
       <set comment="band 5">
        <r>  0.0181  0.1124  0.0000  0.0431  0.0000  0.0000  0.0000  0.0000  0.0000 </r>
        <r>  0.0176  0.1129  0.0000  0.0435  0.0000  0.0000  0.0000  0.0000  0.0000 </r>
        <r>  0.0196  0.1257  0.0000  0.0484  0.0000  0.0000  0.0000  0.0000  0.0000 </r>
        <r>  0.0201  0.1251  0.0000  0.0479  0.0000  0.0000  0.0000  0.0000  0.0000 </r>
       </set>
       <set comment="band 6">
        <r>  0.0201  0.1251  0.0000  0.0479  0.0000  0.0000  0.0000  0.0000  0.0000 </r>
        <r>  0.0196  0.1257  0.0000  0.0484  0.0000  0.0000  0.0000  0.0000  0.0000 </r>
        <r>  0.0176  0.1129  0.0000  0.0435  0.0000  0.0000  0.0000  0.0000  0.0000 </r>
        <r>  0.0181  0.1124  0.0000  0.0431  0.0000  0.0000  0.0000  0.0000  0.0000 </r>
       </set>
       <set comment="band 7">
        <r>  0.0001  0.0001  0.1658  0.0001  0.0000  0.0000  0.0000  0.0000  0.0000 </r>
        <r>  0.0002  0.0000  0.1810  0.0000  0.0000  0.0000  0.0000  0.0000  0.0000 </r>
        <r>  0.0006  0.0001  0.0724  0.0001  0.0000  0.0000  0.0000  0.0000  0.0000 </r>
        <r>  0.0002  0.0003  0.0663  0.0003  0.0000  0.0000  0.0000  0.0000  0.0000 </r>
       </set>
       <set comment="band 8">
        <r>  0.0002  0.0003  0.0663  0.0003  0.0000  0.0000  0.0000  0.0000  0.0000 </r>
        <r>  0.0006  0.0001  0.0724  0.0001  0.0000  0.0000  0.0000  0.0000  0.0000 </r>
        <r>  0.0002  0.0000  0.1810  0.0000  0.0000  0.0000  0.0000  0.0000  0.0000 </r>
        <r>  0.0001  0.0001  0.1658  0.0001  0.0000  0.0000  0.0000  0.0000  0.0000 </r>
       </set>
       <set comment="band 9">
        <r>  0.0001  0.0000  0.2159  0.0001  0.0000  0.0000  0.0000  0.0000  0.0000 </r>
        <r>  0.0000  0.0000  0.2016  0.0001  0.0000  0.0000  0.0000  0.0000  0.0000 </r>
        <r>  0.0001  0.0001  0.0475  0.0004  0.0000  0.0000  0.0000  0.0000  0.0000 </r>
        <r>  0.0003  0.0001  0.0509  0.0004  0.0000  0.0000  0.0000  0.0000  0.0000 </r>
       </set>
       <set comment="band 10">
        <r>  0.0003  0.0001  0.0509  0.0004  0.0000  0.0000  0.0000  0.0000  0.0000 </r>
        <r>  0.0001  0.0001  0.0475  0.0004  0.0000  0.0000  0.0000  0.0000  0.0000 </r>
        <r>  0.0000  0.0000  0.2016  0.0001  0.0000  0.0000  0.0000  0.0000  0.0000 </r>
        <r>  0.0001  0.0000  0.2159  0.0001  0.0000  0.0000  0.0000  0.0000  0.0000 </r>
       </set>
       <set comment="band 11">
        <r>  0.0521  0.0256  0.0008  0.0352  0.0000  0.0000  0.0000  0.0000  0.0000 </r>
        <r>  0.0576  0.0320  0.0016  0.0397  0.0000  0.0000  0.0000  0.0000  0.0000 </r>
        <r>  0.0522  0.0289  0.0018  0.0359  0.0000  0.0000  0.0000  0.0000  0.0000 </r>
        <r>  0.0472  0.0231  0.0009  0.0318  0.0000  0.0000  0.0000  0.0000  0.0000 </r>
       </set>
       <set comment="band 12">
        <r>  0.0472  0.0231  0.0009  0.0318  0.0000  0.0000  0.0000  0.0000  0.0000 </r>
        <r>  0.0522  0.0289  0.0018  0.0359  0.0000  0.0000  0.0000  0.0000  0.0000 </r>
        <r>  0.0576  0.0320  0.0016  0.0397  0.0000  0.0000  0.0000  0.0000  0.0000 </r>
        <r>  0.0521  0.0256  0.0008  0.0352  0.0000  0.0000  0.0000  0.0000  0.0000 </r>
       </set>
       <set comment="band 13">
        <r>  0.0113  0.0077  0.0344  0.0018  0.0000  0.0000  0.0000  0.0000  0.0000 </r>
        <r>  0.0060  0.0031  0.0353  0.0010  0.0000  0.0000  0.0000  0.0000  0.0000 </r>
        <r>  0.0108  0.0055  0.0196  0.0018  0.0000  0.0000  0.0000  0.0000  0.0000 </r>
        <r>  0.0203  0.0140  0.0191  0.0032  0.0000  0.0000  0.0000  0.0000  0.0000 </r>
       </set>
       <set comment="band 14">
        <r>  0.0203  0.0140  0.0191  0.0032  0.0000  0.0000  0.0000  0.0000  0.0000 </r>
        <r>  0.0108  0.0055  0.0196  0.0018  0.0000  0.0000  0.0000  0.0000  0.0000 </r>
        <r>  0.0060  0.0031  0.0353  0.0010  0.0000  0.0000  0.0000  0.0000  0.0000 </r>
        <r>  0.0113  0.0077  0.0344  0.0018  0.0000  0.0000  0.0000  0.0000  0.0000 </r>
       </set>
      </set>
      <set comment="kpoint 28">
       <set comment="band 1">
        <r>  0.0000  0.1207  0.0000  0.1207  0.0000  0.0000  0.0000  0.0000  0.0000 </r>
        <r>  0.4979  0.0000  0.0000  0.0000  0.0000  0.0000  0.0000  0.0000  0.0000 </r>
        <r>  0.0029  0.0000  0.0001  0.0000  0.0000  0.0000  0.0000  0.0000  0.0000 </r>
        <r>  0.0000  0.0007  0.0000  0.0007  0.0000  0.0000  0.0000  0.0000  0.0000 </r>
       </set>
       <set comment="band 2">
        <r>  0.0000  0.0007  0.0000  0.0007  0.0000  0.0000  0.0000  0.0000  0.0000 </r>
        <r>  0.0029  0.0000  0.0001  0.0000  0.0000  0.0000  0.0000  0.0000  0.0000 </r>
        <r>  0.4979  0.0000  0.0000  0.0000  0.0000  0.0000  0.0000  0.0000  0.0000 </r>
        <r>  0.0000  0.1207  0.0000  0.1207  0.0000  0.0000  0.0000  0.0000  0.0000 </r>
       </set>
       <set comment="band 3">
        <r>  0.3397  0.0000  0.0000  0.0000  0.0000  0.0000  0.0000  0.0000  0.0000 </r>
        <r>  0.0000  0.0836  0.0000  0.0836  0.0000  0.0000  0.0000  0.0000  0.0000 </r>
        <r>  0.0000  0.0391  0.0000  0.0391  0.0000  0.0000  0.0000  0.0000  0.0000 </r>
        <r>  0.1587  0.0000  0.0000  0.0000  0.0000  0.0000  0.0000  0.0000  0.0000 </r>
       </set>
       <set comment="band 4">
        <r>  0.1587  0.0000  0.0000  0.0000  0.0000  0.0000  0.0000  0.0000  0.0000 </r>
        <r>  0.0000  0.0391  0.0000  0.0391  0.0000  0.0000  0.0000  0.0000  0.0000 </r>
        <r>  0.0000  0.0836  0.0000  0.0836  0.0000  0.0000  0.0000  0.0000  0.0000 </r>
        <r>  0.3397  0.0000  0.0000  0.0000  0.0000  0.0000  0.0000  0.0000  0.0000 </r>
       </set>
       <set comment="band 5">
        <r>  0.0000  0.0340  0.0000  0.0340  0.0000  0.0000  0.0000  0.0000  0.0000 </r>
        <r>  0.0000  0.0341  0.0000  0.0341  0.0000  0.0000  0.0000  0.0000  0.0000 </r>
        <r>  0.0000  0.1269  0.0000  0.1269  0.0000  0.0000  0.0000  0.0000  0.0000 </r>
        <r>  0.0000  0.1265  0.0000  0.1265  0.0000  0.0000  0.0000  0.0000  0.0000 </r>
       </set>
       <set comment="band 6">
        <r>  0.0000  0.1265  0.0000  0.1265  0.0000  0.0000  0.0000  0.0000  0.0000 </r>
        <r>  0.0000  0.1269  0.0000  0.1269  0.0000  0.0000  0.0000  0.0000  0.0000 </r>
        <r>  0.0000  0.0341  0.0000  0.0341  0.0000  0.0000  0.0000  0.0000  0.0000 </r>
        <r>  0.0000  0.0340  0.0000  0.0340  0.0000  0.0000  0.0000  0.0000  0.0000 </r>
       </set>
       <set comment="band 7">
        <r>  0.0000  0.0002  0.0000  0.0002  0.0000  0.0000  0.0000  0.0000  0.0000 </r>
        <r>  0.0002  0.0000  0.3342  0.0000  0.0000  0.0000  0.0000  0.0000  0.0000 </r>
        <r>  0.0004  0.0000  0.1881  0.0000  0.0000  0.0000  0.0000  0.0000  0.0000 </r>
        <r>  0.0000  0.0003  0.0000  0.0003  0.0000  0.0000  0.0000  0.0000  0.0000 </r>
       </set>
       <set comment="band 8">
        <r>  0.0000  0.0003  0.0000  0.0003  0.0000  0.0000  0.0000  0.0000  0.0000 </r>
        <r>  0.0004  0.0000  0.1881  0.0000  0.0000  0.0000  0.0000  0.0000  0.0000 </r>
        <r>  0.0002  0.0000  0.3342  0.0000  0.0000  0.0000  0.0000  0.0000  0.0000 </r>
        <r>  0.0000  0.0002  0.0000  0.0002  0.0000  0.0000  0.0000  0.0000  0.0000 </r>
       </set>
       <set comment="band 9">
        <r>  0.0000  0.0003  0.1371  0.0003  0.0000  0.0000  0.0000  0.0000  0.0000 </r>
        <r>  0.0000  0.0003  0.0000  0.0003  0.0000  0.0000  0.0000  0.0000  0.0000 </r>
        <r>  0.0000  0.0001  0.0000  0.0001  0.0000  0.0000  0.0000  0.0000  0.0000 </r>
        <r>  0.0000  0.0001  0.3826  0.0001  0.0000  0.0000  0.0000  0.0000  0.0000 </r>
       </set>
       <set comment="band 10">
        <r>  0.0000  0.0001  0.3826  0.0001  0.0000  0.0000  0.0000  0.0000  0.0000 </r>
        <r>  0.0000  0.0001  0.0000  0.0001  0.0000  0.0000  0.0000  0.0000  0.0000 </r>
        <r>  0.0000  0.0003  0.0000  0.0003  0.0000  0.0000  0.0000  0.0000  0.0000 </r>
        <r>  0.0000  0.0003  0.1371  0.0003  0.0000  0.0000  0.0000  0.0000  0.0000 </r>
       </set>
       <set comment="band 11">
        <r>  0.0000  0.0000  0.0000  0.0000  0.0000  0.0000  0.0000  0.0000  0.0000 </r>
        <r>  0.0000  0.0042  0.0000  0.0042  0.0000  0.0000  0.0000  0.0000  0.0000 </r>
        <r>  0.0000  0.0172  0.0000  0.0172  0.0000  0.0000  0.0000  0.0000  0.0000 </r>
        <r>  0.0000  0.0000  0.0000  0.0000  0.0000  0.0000  0.0000  0.0000  0.0000 </r>
       </set>
       <set comment="band 12">
        <r>  0.0000  0.0000  0.0000  0.0000  0.0000  0.0000  0.0000  0.0000  0.0000 </r>
        <r>  0.0000  0.0172  0.0000  0.0172  0.0000  0.0000  0.0000  0.0000  0.0000 </r>
        <r>  0.0000  0.0042  0.0000  0.0042  0.0000  0.0000  0.0000  0.0000  0.0000 </r>
        <r>  0.0000  0.0000  0.0000  0.0000  0.0000  0.0000  0.0000  0.0000  0.0000 </r>
       </set>
       <set comment="band 13">
        <r>  0.0000  0.0385  0.0000  0.0385  0.0000  0.0000  0.0000  0.0000  0.0000 </r>
        <r>  0.0118  0.0000  0.0248  0.0000  0.0000  0.0000  0.0000  0.0000  0.0000 </r>
        <r>  0.0476  0.0000  0.0061  0.0000  0.0000  0.0000  0.0000  0.0000  0.0000 </r>
        <r>  0.0000  0.1554  0.0000  0.1555  0.0000  0.0000  0.0000  0.0000  0.0000 </r>
       </set>
       <set comment="band 14">
        <r>  0.0000  0.1555  0.0000  0.1554  0.0000  0.0000  0.0000  0.0000  0.0000 </r>
        <r>  0.0476  0.0000  0.0061  0.0000  0.0000  0.0000  0.0000  0.0000  0.0000 </r>
        <r>  0.0118  0.0000  0.0248  0.0000  0.0000  0.0000  0.0000  0.0000  0.0000 </r>
        <r>  0.0000  0.0385  0.0000  0.0385  0.0000  0.0000  0.0000  0.0000  0.0000 </r>
       </set>
      </set>
     </set>
    </set>
   </array>
  </projected>
 </calculation>
 <structure name="finalpos" >
  <crystal>
   <varray name="basis" >
    <v>       2.46120000       0.00000000       0.00000000 </v>
    <v>      -1.23060000       2.13146172       0.00000000 </v>
    <v>       0.00000000       0.00000000       6.70790000 </v>
   </varray>
   <i name="volume">     35.18933212 </i>
   <varray name="rec_basis" >
    <v>       0.40630587       0.23458080       0.00000000 </v>
    <v>       0.00000000       0.46916160       0.00000000 </v>
    <v>       0.00000000       0.00000000       0.14907795 </v>
   </varray>
  </crystal>
  <varray name="positions" >
   <v>       0.00000000       0.00000000       0.00000000 </v>
   <v>       0.33333333       0.66666667       0.00000000 </v>
   <v>       0.33333333       0.66666667       0.50000000 </v>
   <v>       0.66666667       0.33333333       0.50000000 </v>
  </varray>
 </structure>
</modeling>
