   1   1   1   0
  0.1812793E+02  0.2948635E-09  0.2948635E-09  0.2948635E-09  0.5000000E-15
  1.000000000000000E-004
  CAR 
 unknown system                          
     24.62844662     -3.15874311  301      5.99651772      1.00000000
     -3.159  0.0000E+00  0.0000E+00  0.0000E+00  0.0000E+00
     -3.066  0.0000E+00  0.0000E+00  0.0000E+00  0.0000E+00
     -2.973  0.0000E+00  0.0000E+00  0.0000E+00  0.0000E+00
     -2.881  0.0000E+00  0.0000E+00  0.0000E+00  0.0000E+00
     -2.788  0.0000E+00  0.0000E+00  0.0000E+00  0.0000E+00
     -2.696  0.0000E+00  0.0000E+00  0.0000E+00  0.0000E+00
     -2.603  0.0000E+00  0.0000E+00  0.0000E+00  0.0000E+00
     -2.510  0.0000E+00  0.0000E+00  0.0000E+00  0.0000E+00
     -2.418  0.0000E+00  0.0000E+00  0.0000E+00  0.0000E+00
     -2.325 -0.1127E-33 -0.2226E-32 -0.1044E-34 -0.2062E-33
     -2.233 -0.3604E-21 -0.3728E-20 -0.3338E-22 -0.3453E-21
     -2.140 -0.1075E-11 -0.5783E-11 -0.9955E-13 -0.5357E-12
     -2.047 -0.2845E-05 -0.7828E-05 -0.2635E-06 -0.7250E-06
     -1.955 -0.3333E-02 -0.3502E-02 -0.3090E-03 -0.3251E-03
     -1.862  0.9035E-01  0.9851E-01  0.8059E-02  0.8799E-02
     -1.769  0.1317E-01  0.5068E-02  0.9279E-02  0.9269E-02
     -1.677 -0.2176E-03 -0.1029E-03  0.9259E-02  0.9259E-02
     -1.584 -0.2336E-08 -0.5528E-09  0.9259E-02  0.9259E-02
     -1.492 -0.2291E-16 -0.6144E-17  0.9259E-02  0.9259E-02
     -1.399 -0.3306E-09 -0.1480E-08  0.9259E-02  0.9259E-02
     -1.306 -0.1282E-03 -0.2906E-03  0.9247E-02  0.9232E-02
     -1.214 -0.9690E-03  0.1371E-01  0.9158E-02  0.1050E-01
     -1.121  0.3083E+00  0.2969E+00  0.3772E-01  0.3801E-01
     -1.028 -0.7261E-02 -0.1043E-01  0.3704E-01  0.3704E-01
     -0.936 -0.6460E-04 -0.2532E-04  0.3704E-01  0.3704E-01
     -0.843 -0.9836E-10 -0.1971E-10  0.3704E-01  0.3704E-01
     -0.751 -0.1478E-08 -0.6211E-08  0.3704E-01  0.3704E-01
     -0.658 -0.2904E-03 -0.6141E-03  0.3701E-01  0.3698E-01
     -0.565  0.1369E-01  0.3708E-01  0.3828E-01  0.4041E-01
     -0.473  0.2970E+00  0.2736E+00  0.6578E-01  0.6575E-01
     -0.380 -0.1043E-01 -0.1013E-01  0.6482E-01  0.6482E-01
     -0.287 -0.2535E-04 -0.9329E-05  0.6481E-01  0.6481E-01
     -0.195 -0.5338E-05 -0.1406E-04  0.6481E-01  0.6481E-01
     -0.102 -0.3533E-02 -0.3101E-02  0.6449E-01  0.6453E-01
     -0.010  0.9360E-01  0.9784E-01  0.7316E-01  0.7359E-01
      0.083  0.1169E+00  0.1541E+00  0.8399E-01  0.8786E-01
      0.176  0.1987E+00  0.1549E+00  0.1024E+00  0.1022E+00
      0.268 -0.5825E-02 -0.3797E-02  0.1019E+00  0.1019E+00
      0.361 -0.1050E-05 -0.3292E-06  0.1019E+00  0.1019E+00
      0.454 -0.1858E-04 -0.4985E-04  0.1019E+00  0.1018E+00
      0.546 -0.2024E-01 -0.2090E-01  0.9998E-01  0.9991E-01
      0.639  0.5469E+00  0.5933E+00  0.1506E+00  0.1549E+00
      0.731  0.7349E-01  0.2636E-01  0.1574E+00  0.1573E+00
      0.824  0.5179E-01  0.8906E-01  0.1622E+00  0.1656E+00
      0.917  0.2570E+00  0.2188E+00  0.1860E+00  0.1858E+00
      1.009 -0.9209E-02 -0.6922E-02  0.1852E+00  0.1852E+00
      1.102 -0.8310E-05 -0.9988E-05  0.1852E+00  0.1852E+00
      1.195 -0.4162E-02 -0.5063E-02  0.1848E+00  0.1847E+00
      1.287  0.1371E+00  0.1799E+00  0.1975E+00  0.2014E+00
      1.380  0.3986E+00  0.3923E+00  0.2344E+00  0.2377E+00
      1.472  0.1628E+00  0.1296E+00  0.2495E+00  0.2497E+00
      1.565  0.3316E+00  0.3728E+00  0.2802E+00  0.2842E+00
      1.658  0.2814E+00  0.2432E+00  0.3063E+00  0.3068E+00
      1.750  0.2917E+00  0.2868E+00  0.3333E+00  0.3333E+00
      1.843  0.2326E+00  0.3196E+00  0.3548E+00  0.3629E+00
      1.936  0.9776E+00  0.8922E+00  0.4454E+00  0.4456E+00
      2.028  0.5377E+00  0.5747E+00  0.4952E+00  0.4988E+00
      2.121  0.5294E-01  0.1323E-01  0.5001E+00  0.5000E+00
      2.213 -0.2390E-01 -0.2730E-01  0.4979E+00  0.4975E+00
      2.306  0.6799E+00  0.7607E+00  0.5608E+00  0.5680E+00
      2.399  0.3913E+00  0.3681E+00  0.5971E+00  0.6021E+00
      2.491  0.4616E+00  0.4010E+00  0.6398E+00  0.6392E+00
      2.584  0.2455E+00  0.3585E+00  0.6626E+00  0.6724E+00
      2.677  0.8869E+00  0.7967E+00  0.7447E+00  0.7462E+00
      2.769  0.2222E+00  0.2470E+00  0.7653E+00  0.7691E+00
      2.862  0.6905E+00  0.6850E+00  0.8293E+00  0.8325E+00
      2.954  0.4474E-01  0.9123E-02  0.8334E+00  0.8334E+00
      3.047 -0.1678E-01 -0.1975E-01  0.8319E+00  0.8315E+00
      3.140  0.5425E+00  0.6432E+00  0.8821E+00  0.8911E+00
      3.232  0.6700E+00  0.5745E+00  0.9442E+00  0.9443E+00
      3.325  0.6414E+00  0.7169E+00  0.1004E+01  0.1011E+01
      3.418  0.1031E+01  0.1005E+01  0.1099E+01  0.1104E+01
      3.510  0.1215E+00  0.6539E-01  0.1110E+01  0.1110E+01
      3.603  0.3764E+00  0.4553E+00  0.1145E+01  0.1152E+01
      3.695  0.3774E+00  0.3383E+00  0.1180E+01  0.1183E+01
      3.788  0.2715E+00  0.2767E+00  0.1205E+01  0.1209E+01
      3.881  0.1827E+00  0.1388E+00  0.1222E+01  0.1222E+01
      3.973  0.2354E+00  0.3212E+00  0.1244E+01  0.1252E+01
      4.066  0.6705E+00  0.5798E+00  0.1306E+01  0.1305E+01
      4.159  0.5828E+00  0.7988E+00  0.1360E+01  0.1379E+01
      4.251  0.1236E+01  0.1017E+01  0.1475E+01  0.1473E+01
      4.344  0.3849E+00  0.4429E+00  0.1510E+01  0.1515E+01
      4.436  0.3734E+00  0.3516E+00  0.1545E+01  0.1547E+01
      4.529  0.1176E+00  0.9324E-01  0.1556E+01  0.1556E+01
      4.622 -0.2171E-01 -0.2079E-01  0.1554E+01  0.1554E+01
      4.714  0.7137E+00  0.8278E+00  0.1620E+01  0.1630E+01
      4.807  0.6134E+00  0.5571E+00  0.1677E+01  0.1682E+01
      4.900  0.5957E+00  0.5771E+00  0.1732E+01  0.1736E+01
      4.992  0.9659E+00  0.9879E+00  0.1821E+01  0.1827E+01
      5.085  0.1352E+00  0.9706E-01  0.1834E+01  0.1836E+01
      5.177  0.9831E+00  0.1044E+01  0.1925E+01  0.1933E+01
      5.270  0.5262E+00  0.4373E+00  0.1974E+01  0.1973E+01
      5.363  0.5792E-01  0.1158E+00  0.1979E+01  0.1984E+01
      5.455  0.6300E+00  0.6014E+00  0.2037E+01  0.2040E+01
      5.548  0.7154E+00  0.7841E+00  0.2104E+01  0.2112E+01
      5.641  0.8523E+00  0.7881E+00  0.2183E+01  0.2185E+01
      5.733  0.7558E+00  0.7577E+00  0.2253E+01  0.2255E+01
      5.826  0.7364E+00  0.8214E+00  0.2321E+01  0.2332E+01
      5.918  0.8551E+00  0.7550E+00  0.2400E+01  0.2401E+01
      6.011  0.1245E+01  0.1324E+01  0.2515E+01  0.2524E+01
      6.104  0.2395E+00  0.1434E+00  0.2538E+01  0.2537E+01
      6.196 -0.1695E-01 -0.1067E-01  0.2536E+01  0.2536E+01
      6.289  0.4029E+00  0.4514E+00  0.2573E+01  0.2578E+01
      6.382  0.7030E+00  0.6764E+00  0.2638E+01  0.2641E+01
      6.474  0.4545E+00  0.5257E+00  0.2680E+01  0.2689E+01
      6.567  0.1222E+01  0.1140E+01  0.2794E+01  0.2795E+01
      6.659  0.3631E-01  0.3470E-01  0.2797E+01  0.2798E+01
      6.752  0.6316E+00  0.6662E+00  0.2856E+01  0.2860E+01
      6.845  0.1615E+00  0.1106E+00  0.2870E+01  0.2870E+01
      6.937  0.9971E-01  0.1471E+00  0.2880E+01  0.2884E+01
      7.030  0.1285E+01  0.1456E+01  0.2999E+01  0.3019E+01
      7.123  0.1897E+01  0.1698E+01  0.3174E+01  0.3176E+01
      7.215  0.3618E+00  0.3777E+00  0.3208E+01  0.3211E+01
      7.308  0.1579E+00  0.1236E+00  0.3223E+01  0.3222E+01
      7.400 -0.4392E-02 -0.3026E-02  0.3222E+01  0.3222E+01
      7.493 -0.1863E-01 -0.1755E-01  0.3220E+01  0.3221E+01
      7.586  0.5476E+00  0.5702E+00  0.3271E+01  0.3273E+01
      7.678  0.3951E+00  0.4303E+00  0.3308E+01  0.3313E+01
      7.771  0.2603E+00  0.2109E+00  0.3332E+01  0.3333E+01
      7.864  0.8976E+00  0.9078E+00  0.3415E+01  0.3417E+01
      7.956  0.2928E+00  0.3316E+00  0.3442E+01  0.3448E+01
      8.049  0.6446E+00  0.5836E+00  0.3502E+01  0.3502E+01
      8.141 -0.2027E-01 -0.1775E-01  0.3500E+01  0.3500E+01
      8.234 -0.3917E-04 -0.6893E-04  0.3500E+01  0.3500E+01
      8.327 -0.1801E-01 -0.1780E-01  0.3498E+01  0.3498E+01
      8.419  0.5482E+00  0.6315E+00  0.3549E+01  0.3557E+01
      8.512  0.1227E+01  0.1183E+01  0.3663E+01  0.3666E+01
      8.605  0.8476E+00  0.8650E+00  0.3741E+01  0.3747E+01
      8.697  0.8012E+00  0.7733E+00  0.3816E+01  0.3818E+01
      8.790  0.1057E+01  0.1053E+01  0.3913E+01  0.3916E+01
      8.882  0.2090E-01 -0.7271E-02  0.3915E+01  0.3915E+01
      8.975  0.4563E+00  0.5087E+00  0.3958E+01  0.3962E+01
      9.068  0.1604E+00  0.1105E+00  0.3972E+01  0.3972E+01
      9.160 -0.2912E-02 -0.1861E-02  0.3972E+01  0.3972E+01
      9.253 -0.9602E-05 -0.1520E-04  0.3972E+01  0.3972E+01
      9.345 -0.1020E-01 -0.1065E-01  0.3971E+01  0.3971E+01
      9.438  0.2518E+00  0.2653E+00  0.3995E+01  0.3996E+01
      9.531  0.6918E+00  0.7074E+00  0.4059E+01  0.4061E+01
      9.623  0.1656E+00  0.1438E+00  0.4074E+01  0.4075E+01
      9.716  0.3459E+00  0.3551E+00  0.4106E+01  0.4108E+01
      9.809  0.1379E+00  0.1150E+00  0.4119E+01  0.4118E+01
      9.901  0.8419E+00  0.9965E+00  0.4197E+01  0.4210E+01
      9.994  0.9905E+00  0.8353E+00  0.4289E+01  0.4288E+01
     10.086  0.3846E+00  0.4387E+00  0.4324E+01  0.4328E+01
     10.179  0.5151E+00  0.4660E+00  0.4372E+01  0.4372E+01
     10.272 -0.1253E-01 -0.6031E-03  0.4371E+01  0.4372E+01
     10.364  0.4418E+00  0.4741E+00  0.4412E+01  0.4416E+01
     10.457  0.4608E+00  0.4188E+00  0.4454E+01  0.4454E+01
     10.550  0.2886E+00  0.2933E+00  0.4481E+01  0.4481E+01
     10.642  0.4828E-02  0.3244E-03  0.4481E+01  0.4481E+01
     10.735 -0.1892E-03 -0.1415E-03  0.4481E+01  0.4481E+01
     10.827 -0.1111E-04 -0.1763E-04  0.4481E+01  0.4481E+01
     10.920 -0.1046E-01 -0.1079E-01  0.4481E+01  0.4480E+01
     11.013  0.2628E+00  0.2798E+00  0.4505E+01  0.4506E+01
     11.105  0.6353E+00  0.6235E+00  0.4564E+01  0.4564E+01
     11.198  0.4391E+00  0.5156E+00  0.4604E+01  0.4612E+01
     11.291  0.1071E+01  0.1036E+01  0.4704E+01  0.4708E+01
     11.383  0.9422E+00  0.9311E+00  0.4791E+01  0.4794E+01
     11.476  0.1181E+01  0.1171E+01  0.4900E+01  0.4903E+01
     11.568  0.2872E+00  0.2602E+00  0.4927E+01  0.4927E+01
     11.661  0.8049E-01  0.1227E+00  0.4934E+01  0.4938E+01
     11.754  0.7362E+00  0.6932E+00  0.5002E+01  0.5002E+01
     11.846 -0.2573E-01 -0.1469E-01  0.5000E+01  0.5001E+01
     11.939  0.4597E+00  0.4717E+00  0.5043E+01  0.5045E+01
     12.032  0.2358E+00  0.2320E+00  0.5064E+01  0.5066E+01
     12.124  0.4979E+00  0.4950E+00  0.5111E+01  0.5112E+01
     12.217  0.3584E+00  0.3655E+00  0.5144E+01  0.5146E+01
     12.309  0.7454E+00  0.7976E+00  0.5213E+01  0.5220E+01
     12.402  0.1430E+01  0.1400E+01  0.5345E+01  0.5349E+01
     12.495  0.4896E+00  0.4427E+00  0.5391E+01  0.5390E+01
     12.587 -0.2144E-01 -0.1234E-01  0.5389E+01  0.5389E+01
     12.680  0.3089E+00  0.3053E+00  0.5417E+01  0.5418E+01
     12.773 -0.6425E-02 -0.9087E-02  0.5417E+01  0.5417E+01
     12.865 -0.3074E-02 -0.4051E-02  0.5416E+01  0.5416E+01
     12.958  0.1646E+00  0.2037E+00  0.5432E+01  0.5435E+01
     13.050  0.4529E+00  0.4124E+00  0.5474E+01  0.5473E+01
     13.143 -0.2105E-01 -0.1282E-01  0.5472E+01  0.5472E+01
     13.236  0.3048E+00  0.3020E+00  0.5500E+01  0.5500E+01
     13.328  0.2037E+00  0.2656E+00  0.5519E+01  0.5525E+01
     13.421  0.8880E+00  0.8593E+00  0.5601E+01  0.5604E+01
     13.514  0.6752E+00  0.6502E+00  0.5664E+01  0.5665E+01
     13.606  0.2833E+00  0.2915E+00  0.5690E+01  0.5692E+01
     13.699  0.5069E-01  0.3044E-01  0.5694E+01  0.5694E+01
     13.791  0.3406E-01  0.7301E-01  0.5698E+01  0.5701E+01
     13.884  0.6094E+00  0.5952E+00  0.5754E+01  0.5756E+01
     13.977  0.2667E+00  0.2417E+00  0.5779E+01  0.5779E+01
     14.069 -0.2552E-01 -0.2784E-01  0.5776E+01  0.5776E+01
     14.162  0.4687E+00  0.5463E+00  0.5820E+01  0.5827E+01
     14.255  0.7694E+00  0.6948E+00  0.5891E+01  0.5891E+01
     14.347 -0.2364E-01 -0.2324E-01  0.5889E+01  0.5889E+01
     14.440 -0.5809E-04 -0.3133E-04  0.5889E+01  0.5889E+01
     14.532 -0.9536E-06 -0.2243E-05  0.5889E+01  0.5889E+01
     14.625 -0.8768E-02 -0.1191E-01  0.5888E+01  0.5888E+01
     14.718  0.3377E+00  0.4026E+00  0.5919E+01  0.5925E+01
     14.810  0.2772E+00  0.2133E+00  0.5945E+01  0.5945E+01
     14.903 -0.6346E-02 -0.4279E-02  0.5944E+01  0.5944E+01
     14.996 -0.4223E-06 -0.1686E-06  0.5944E+01  0.5944E+01
     15.088 -0.1878E-13 -0.4661E-14  0.5944E+01  0.5944E+01
     15.181 -0.1702E-13 -0.6558E-13  0.5944E+01  0.5944E+01
     15.273 -0.3966E-06 -0.9538E-06  0.5944E+01  0.5944E+01
     15.366 -0.6186E-02 -0.8777E-02  0.5944E+01  0.5944E+01
     15.459  0.2584E+00  0.3202E+00  0.5968E+01  0.5973E+01
     15.551  0.7869E+00  0.7768E+00  0.6041E+01  0.6045E+01
     15.644  0.1636E+00  0.1132E+00  0.6056E+01  0.6056E+01
     15.737 -0.2260E-01 -0.1358E-01  0.6054E+01  0.6054E+01
     15.829  0.6060E+00  0.6183E+00  0.6110E+01  0.6112E+01
     15.922  0.1038E-01 -0.1134E-01  0.6111E+01  0.6111E+01
     16.014  0.1407E+00  0.1747E+00  0.6124E+01  0.6127E+01
     16.107  0.2146E+00  0.2142E+00  0.6144E+01  0.6147E+01
     16.200  0.1038E+01  0.1051E+01  0.6240E+01  0.6244E+01
     16.292  0.1116E+00  0.6548E-01  0.6250E+01  0.6250E+01
     16.385  0.3139E-02  0.1596E-01  0.6251E+01  0.6252E+01
     16.478  0.3039E+00  0.2933E+00  0.6279E+01  0.6279E+01
     16.570 -0.9488E-02 -0.1058E-01  0.6278E+01  0.6278E+01
     16.663 -0.2262E-02 -0.3661E-02  0.6278E+01  0.6277E+01
     16.755  0.1075E+00  0.1479E+00  0.6288E+01  0.6291E+01
     16.848  0.3121E+00  0.3222E+00  0.6316E+01  0.6321E+01
     16.941  0.5958E+00  0.5471E+00  0.6372E+01  0.6372E+01
     17.033 -0.2700E-01 -0.1515E-01  0.6369E+01  0.6370E+01
     17.126  0.6110E+00  0.6074E+00  0.6426E+01  0.6427E+01
     17.219  0.2746E+00  0.3232E+00  0.6451E+01  0.6456E+01
     17.311  0.3360E+00  0.2767E+00  0.6482E+01  0.6482E+01
     17.404 -0.2759E-01 -0.2743E-01  0.6480E+01  0.6480E+01
     17.496  0.5219E+00  0.5694E+00  0.6528E+01  0.6532E+01
     17.589  0.9794E-01  0.5162E-01  0.6537E+01  0.6537E+01
     17.682  0.2443E-01  0.4391E-01  0.6539E+01  0.6541E+01
     17.774  0.3770E+00  0.3835E+00  0.6574E+01  0.6577E+01
     17.867  0.2030E+00  0.1762E+00  0.6593E+01  0.6593E+01
     17.960  0.4317E-01  0.6892E-01  0.6597E+01  0.6599E+01
     18.052  0.2588E+00  0.2324E+00  0.6621E+01  0.6621E+01
     18.145  0.8221E-01  0.1342E+00  0.6629E+01  0.6633E+01
     18.237  0.5290E+00  0.4764E+00  0.6678E+01  0.6677E+01
     18.330 -0.2410E-01 -0.2347E-01  0.6675E+01  0.6675E+01
     18.423  0.2060E+00  0.2738E+00  0.6695E+01  0.6701E+01
     18.515  0.4115E+00  0.3432E+00  0.6733E+01  0.6732E+01
     18.608 -0.1935E-01  0.2849E-02  0.6731E+01  0.6733E+01
     18.701  0.6146E+00  0.6025E+00  0.6788E+01  0.6788E+01
     18.793  0.7389E-01  0.9556E-01  0.6795E+01  0.6797E+01
     18.886  0.6180E+00  0.6045E+00  0.6852E+01  0.6853E+01
     18.978  0.5059E+00  0.5292E+00  0.6899E+01  0.6902E+01
     19.071  0.9503E-01  0.5550E-01  0.6908E+01  0.6907E+01
     19.164  0.1318E-01  0.2402E-01  0.6909E+01  0.6910E+01
     19.256  0.2444E+00  0.2809E+00  0.6931E+01  0.6936E+01
     19.349  0.2475E+00  0.1991E+00  0.6954E+01  0.6954E+01
     19.442 -0.2599E-01 -0.1664E-01  0.6952E+01  0.6953E+01
     19.534  0.6080E+00  0.6183E+00  0.7008E+01  0.7010E+01
     19.627  0.7109E-02 -0.1631E-01  0.7009E+01  0.7008E+01
     19.719 -0.1873E+00  0.1035E+00  0.6992E+01  0.7018E+01
     19.812  0.1014E+02  0.1068E+02  0.7931E+01  0.8007E+01
     19.905  0.8633E+00  0.2662E-01  0.8011E+01  0.8010E+01
     19.997 -0.3109E-01 -0.6047E-02  0.8008E+01  0.8009E+01
     20.090  0.6019E+00  0.6153E+00  0.8064E+01  0.8066E+01
     20.182  0.8745E+00  0.8777E+00  0.8145E+01  0.8148E+01
     20.275 -0.6031E-02 -0.3192E-01  0.8144E+01  0.8145E+01
     20.368  0.1304E+01  0.1406E+01  0.8265E+01  0.8275E+01
     20.460  0.4548E+00  0.3608E+00  0.8307E+01  0.8308E+01
     20.553  0.5889E+00  0.6951E+00  0.8362E+01  0.8373E+01
     20.646  0.7069E+00  0.6069E+00  0.8427E+01  0.8429E+01
     20.738  0.2948E+00  0.2797E+00  0.8454E+01  0.8455E+01
     20.831 -0.7714E-02 -0.1053E-01  0.8454E+01  0.8454E+01
     20.923 -0.8502E-02 -0.9963E-02  0.8453E+01  0.8453E+01
     21.016  0.2443E+00  0.2698E+00  0.8476E+01  0.8478E+01
     21.109  0.6514E-01  0.4067E-01  0.8482E+01  0.8482E+01
     21.201 -0.3316E-02 -0.4260E-02  0.8481E+01  0.8481E+01
     21.294  0.1032E+00  0.1425E+00  0.8491E+01  0.8494E+01
     21.387  0.3829E+00  0.3696E+00  0.8526E+01  0.8529E+01
     21.479  0.4332E+00  0.4995E+00  0.8566E+01  0.8575E+01
     21.572  0.6047E+00  0.5226E+00  0.8622E+01  0.8623E+01
     21.664  0.2868E+00  0.2794E+00  0.8649E+01  0.8649E+01
     21.757 -0.9137E-02 -0.1194E-01  0.8648E+01  0.8648E+01
     21.850 -0.1634E-03  0.7553E-01  0.8648E+01  0.8655E+01
     21.942 -0.1857E-02  0.2479E+00  0.8648E+01  0.8678E+01
     22.035  0.2972E+00  0.2729E+00  0.8675E+01  0.8703E+01
     22.128  0.3816E+00  0.4459E+00  0.8711E+01  0.8745E+01
     22.220  0.4991E+00  0.3465E+00  0.8757E+01  0.8777E+01
     22.313  0.4950E+00  0.3211E+00  0.8803E+01  0.8806E+01
     22.405  0.1735E+00  0.1464E+00  0.8819E+01  0.8820E+01
     22.498  0.5659E-01  0.4549E-01  0.8824E+01  0.8824E+01
     22.591 -0.8151E-02 -0.1525E-01  0.8823E+01  0.8823E+01
     22.683  0.2982E+00  0.4742E+00  0.8851E+01  0.8867E+01
     22.776  0.4194E+00  0.2446E+00  0.8890E+01  0.8889E+01
     22.869 -0.2171E-01 -0.1533E-01  0.8888E+01  0.8888E+01
     22.961  0.2779E+00  0.2968E+00  0.8914E+01  0.8915E+01
     23.054  0.3217E-01  0.1237E-01  0.8917E+01  0.8917E+01
     23.146  0.4028E-01  0.8054E-01  0.8920E+01  0.8924E+01
     23.239  0.2691E+00  0.2266E+00  0.8945E+01  0.8945E+01
     23.332  0.2048E-01  0.7581E-01  0.8947E+01  0.8952E+01
     23.424  0.5911E+00  0.5377E+00  0.9002E+01  0.9002E+01
     23.517 -0.2101E-01 -0.1977E-01  0.9000E+01  0.9000E+01
     23.610 -0.4697E-04 -0.1583E-04  0.9000E+01  0.9000E+01
     23.702 -0.3470E-10 -0.5698E-11  0.9000E+01  0.9000E+01
     23.795  0.0000E+00  0.0000E+00  0.9000E+01  0.9000E+01
     23.887  0.0000E+00  0.0000E+00  0.9000E+01  0.9000E+01
     23.980  0.0000E+00  0.0000E+00  0.9000E+01  0.9000E+01
     24.073  0.0000E+00  0.0000E+00  0.9000E+01  0.9000E+01
     24.165  0.0000E+00  0.0000E+00  0.9000E+01  0.9000E+01
     24.258  0.0000E+00  0.0000E+00  0.9000E+01  0.9000E+01
     24.351  0.0000E+00  0.0000E+00  0.9000E+01  0.9000E+01
     24.443  0.0000E+00  0.0000E+00  0.9000E+01  0.9000E+01
     24.536  0.0000E+00  0.0000E+00  0.9000E+01  0.9000E+01
     24.628  0.0000E+00  0.0000E+00  0.9000E+01  0.9000E+01
     24.62844662     -3.15874311  301      5.99651772      1.00000000
     -3.159  0.0000E+00  0.0000E+00  0.0000E+00  0.0000E+00  0.0000E+00  0.0000E+00  0.0000E+00  0.0000E+00  0.0000E+00  0.0000E+00  0.0000E+00  0.0000E+00  0.0000E+00  0.0000E+00  0.0000E+00  0.0000E+00  0.0000E+00  0.0000E+00
     -3.066  0.0000E+00  0.0000E+00  0.0000E+00  0.0000E+00  0.0000E+00  0.0000E+00  0.0000E+00  0.0000E+00  0.0000E+00  0.0000E+00  0.0000E+00  0.0000E+00  0.0000E+00  0.0000E+00  0.0000E+00  0.0000E+00  0.0000E+00  0.0000E+00
     -2.973  0.0000E+00  0.0000E+00  0.0000E+00  0.0000E+00  0.0000E+00  0.0000E+00  0.0000E+00  0.0000E+00  0.0000E+00  0.0000E+00  0.0000E+00  0.0000E+00  0.0000E+00  0.0000E+00  0.0000E+00  0.0000E+00  0.0000E+00  0.0000E+00
     -2.881  0.0000E+00  0.0000E+00  0.0000E+00  0.0000E+00  0.0000E+00  0.0000E+00  0.0000E+00  0.0000E+00  0.0000E+00  0.0000E+00  0.0000E+00  0.0000E+00  0.0000E+00  0.0000E+00  0.0000E+00  0.0000E+00  0.0000E+00  0.0000E+00
     -2.788  0.0000E+00  0.0000E+00  0.0000E+00  0.0000E+00  0.0000E+00  0.0000E+00  0.0000E+00  0.0000E+00  0.0000E+00  0.0000E+00  0.0000E+00  0.0000E+00  0.0000E+00  0.0000E+00  0.0000E+00  0.0000E+00  0.0000E+00  0.0000E+00
     -2.696  0.0000E+00  0.0000E+00  0.0000E+00  0.0000E+00  0.0000E+00  0.0000E+00  0.0000E+00  0.0000E+00  0.0000E+00  0.0000E+00  0.0000E+00  0.0000E+00  0.0000E+00  0.0000E+00  0.0000E+00  0.0000E+00  0.0000E+00  0.0000E+00
     -2.603  0.0000E+00  0.0000E+00  0.0000E+00  0.0000E+00  0.0000E+00  0.0000E+00  0.0000E+00  0.0000E+00  0.0000E+00  0.0000E+00  0.0000E+00  0.0000E+00  0.0000E+00  0.0000E+00  0.0000E+00  0.0000E+00  0.0000E+00  0.0000E+00
     -2.510  0.0000E+00  0.0000E+00  0.0000E+00  0.0000E+00  0.0000E+00  0.0000E+00  0.0000E+00  0.0000E+00  0.0000E+00  0.0000E+00  0.0000E+00  0.0000E+00  0.0000E+00  0.0000E+00  0.0000E+00  0.0000E+00  0.0000E+00  0.0000E+00
     -2.418  0.0000E+00  0.0000E+00  0.0000E+00  0.0000E+00  0.0000E+00  0.0000E+00  0.0000E+00  0.0000E+00  0.0000E+00  0.0000E+00  0.0000E+00  0.0000E+00  0.0000E+00  0.0000E+00  0.0000E+00  0.0000E+00  0.0000E+00  0.0000E+00
     -2.325 -0.9561E-34 -0.1890E-32 -0.8137E-36 -0.1607E-34 -0.8137E-36 -0.1607E-34 -0.8137E-36 -0.1607E-34 -0.3271E-37 -0.6462E-36 -0.3272E-37 -0.6462E-36 -0.2067E-45 -0.1245E-46 -0.3272E-37 -0.6462E-36 -0.2637E-46 -0.6186E-47
     -2.233 -0.3056E-21 -0.3164E-20 -0.2601E-23 -0.2690E-22 -0.2601E-23 -0.2690E-22 -0.2601E-23 -0.2690E-22 -0.1046E-24 -0.1082E-23 -0.1046E-24 -0.1082E-23 -0.6607E-33 -0.2084E-34 -0.1046E-24 -0.1082E-23 -0.8430E-34 -0.1036E-34
     -2.140 -0.9115E-12 -0.4909E-11 -0.7757E-14 -0.4174E-13 -0.7757E-14 -0.4174E-13 -0.7757E-14 -0.4174E-13 -0.3119E-15 -0.1678E-14 -0.3119E-15 -0.1678E-14 -0.1970E-23 -0.3234E-25 -0.3119E-15 -0.1678E-14 -0.2514E-24 -0.1607E-25
     -2.047 -0.2413E-05 -0.6644E-05 -0.2053E-07 -0.5650E-07 -0.2053E-07 -0.5650E-07 -0.2053E-07 -0.5650E-07 -0.8255E-09 -0.2272E-08 -0.8256E-09 -0.2272E-08 -0.5216E-17 -0.4377E-19 -0.8255E-09 -0.2272E-08 -0.6655E-18 -0.2175E-19
     -1.955 -0.2827E-02 -0.2973E-02 -0.2406E-04 -0.2528E-04 -0.2406E-04 -0.2528E-04 -0.2406E-04 -0.2528E-04 -0.9673E-06 -0.1016E-05 -0.9673E-06 -0.1016E-05 -0.6111E-14 -0.1958E-16 -0.9673E-06 -0.1016E-05 -0.7797E-15 -0.9731E-17
     -1.862  0.7662E-01  0.8362E-01  0.6521E-03  0.7110E-03  0.6521E-03  0.7110E-03  0.6521E-03  0.7110E-03  0.2622E-04  0.2859E-04  0.2622E-04  0.2859E-04  0.1656E-12  0.5509E-15  0.2622E-04  0.2859E-04  0.2113E-13  0.2737E-15
     -1.769  0.1117E-01  0.4302E-02  0.9508E-04  0.3658E-04  0.9508E-04  0.3658E-04  0.9508E-04  0.3658E-04  0.3822E-05  0.1471E-05  0.3823E-05  0.1471E-05  0.2415E-13  0.2834E-16  0.3823E-05  0.1471E-05  0.3081E-14  0.1408E-16
     -1.677 -0.1846E-03 -0.8737E-04 -0.1571E-05 -0.7429E-06 -0.1571E-05 -0.7429E-06 -0.1571E-05 -0.7429E-06 -0.6315E-07 -0.2987E-07 -0.6315E-07 -0.2987E-07 -0.3990E-15 -0.5756E-18 -0.6315E-07 -0.2987E-07 -0.5090E-16 -0.2860E-18
     -1.584 -0.1981E-08 -0.4693E-09 -0.1686E-10 -0.3990E-11 -0.1686E-10 -0.3990E-11 -0.1686E-10 -0.3990E-11 -0.6777E-12 -0.1605E-12 -0.6778E-12 -0.1605E-12 -0.4282E-20 -0.3091E-23 -0.6778E-12 -0.1605E-12 -0.5463E-21 -0.1536E-23
     -1.492 -0.1940E-16 -0.4922E-17 -0.1647E-18 -0.3907E-19 -0.1647E-18 -0.3907E-19 -0.2046E-18 -0.3819E-18 -0.8174E-20 -0.1491E-19 -0.6773E-20 -0.2855E-20 -0.5918E-21 -0.5084E-20 -0.8174E-20 -0.1491E-19 -0.1775E-20 -0.1525E-19
     -1.399 -0.2645E-09 -0.1186E-08 -0.2102E-11 -0.9412E-11 -0.2102E-11 -0.9412E-11 -0.2054E-10 -0.9198E-10 -0.8017E-12 -0.3591E-11 -0.1536E-12 -0.6877E-12 -0.2738E-12 -0.1225E-11 -0.8018E-12 -0.3591E-11 -0.8214E-12 -0.3674E-11
     -1.306 -0.1026E-03 -0.2328E-03 -0.8151E-06 -0.1848E-05 -0.8151E-06 -0.1848E-05 -0.7965E-05 -0.1806E-04 -0.3109E-06 -0.7050E-06 -0.5955E-07 -0.1350E-06 -0.1062E-06 -0.2404E-06 -0.3109E-06 -0.7050E-06 -0.3185E-06 -0.7213E-06
     -1.214 -0.7755E-03  0.1098E-01 -0.6162E-05  0.8719E-04 -0.6162E-05  0.8719E-04 -0.6021E-04  0.8521E-03 -0.2350E-05  0.3326E-04 -0.4501E-06  0.6371E-05 -0.8027E-06  0.1134E-04 -0.2350E-05  0.3326E-04 -0.2408E-05  0.3403E-04
     -1.121  0.2467E+00  0.2379E+00  0.1961E-02  0.1888E-02  0.1961E-02  0.1888E-02  0.1916E-01  0.1845E-01  0.7478E-03  0.7204E-03  0.1432E-03  0.1380E-03  0.2554E-03  0.2457E-03  0.7478E-03  0.7204E-03  0.7662E-03  0.7371E-03
     -1.028 -0.5811E-02 -0.8357E-02 -0.4617E-04 -0.6634E-04 -0.4617E-04 -0.6634E-04 -0.4512E-03 -0.6483E-03 -0.1761E-04 -0.2531E-04 -0.3373E-05 -0.4848E-05 -0.6015E-05 -0.8632E-05 -0.1761E-04 -0.2531E-04 -0.1804E-04 -0.2590E-04
     -0.936 -0.5170E-04 -0.2028E-04 -0.4108E-06 -0.1610E-06 -0.4108E-06 -0.1610E-06 -0.4014E-05 -0.1574E-05 -0.1567E-06 -0.6143E-07 -0.3001E-07 -0.1177E-07 -0.5351E-07 -0.2095E-07 -0.1567E-06 -0.6143E-07 -0.1605E-06 -0.6285E-07
     -0.843 -0.7871E-10 -0.1579E-10 -0.6255E-12 -0.1253E-12 -0.6254E-12 -0.1253E-12 -0.6112E-11 -0.1225E-11 -0.2386E-12 -0.4781E-13 -0.4569E-13 -0.9157E-14 -0.8147E-13 -0.1630E-13 -0.2386E-12 -0.4781E-13 -0.2444E-12 -0.4891E-13
     -0.751 -0.1112E-08 -0.4679E-08 -0.8090E-10 -0.3400E-09 -0.8090E-10 -0.3400E-09 -0.7209E-11 -0.3029E-10 -0.5777E-11 -0.2428E-10 -0.3044E-10 -0.1280E-09 -0.7863E-12 -0.3300E-11 -0.5777E-11 -0.2428E-10 -0.2359E-11 -0.9901E-11
     -0.658 -0.2186E-03 -0.4627E-03 -0.1589E-04 -0.3362E-04 -0.1589E-04 -0.3362E-04 -0.1416E-05 -0.2996E-05 -0.1135E-05 -0.2401E-05 -0.5981E-05 -0.1265E-04 -0.1545E-06 -0.3264E-06 -0.1135E-05 -0.2401E-05 -0.4635E-06 -0.9791E-06
     -0.565  0.1031E-01  0.2794E-01  0.7495E-03  0.2030E-02  0.7495E-03  0.2030E-02  0.6679E-04  0.1809E-03  0.5352E-04  0.1450E-03  0.2820E-03  0.7640E-03  0.7285E-05  0.1971E-04  0.5352E-04  0.1450E-03  0.2186E-04  0.5912E-04
     -0.473  0.2235E+00  0.2061E+00  0.1625E-01  0.1498E-01  0.1625E-01  0.1498E-01  0.1449E-02  0.1334E-02  0.1161E-02  0.1070E-02  0.6117E-02  0.5636E-02  0.1580E-03  0.1454E-03  0.1161E-02  0.1070E-02  0.4740E-03  0.4361E-03
     -0.380 -0.7852E-02 -0.7629E-02 -0.5710E-03 -0.5543E-03 -0.5710E-03 -0.5543E-03 -0.5089E-04 -0.4939E-04 -0.4078E-04 -0.3959E-04 -0.2149E-03 -0.2086E-03 -0.5550E-05 -0.5381E-05 -0.4078E-04 -0.3959E-04 -0.1665E-04 -0.1614E-04
     -0.287 -0.1908E-04 -0.7029E-05 -0.1387E-05 -0.5107E-06 -0.1387E-05 -0.5107E-06 -0.1236E-06 -0.4550E-07 -0.9908E-07 -0.3647E-07 -0.5221E-06 -0.1922E-06 -0.1349E-07 -0.4957E-08 -0.9908E-07 -0.3647E-07 -0.4046E-07 -0.1487E-07
     -0.195 -0.3723E-05 -0.9814E-05 -0.2188E-06 -0.5761E-06 -0.2188E-06 -0.5761E-06 -0.2187E-06 -0.5761E-06 -0.1717E-06 -0.4521E-06 -0.1717E-06 -0.4521E-06 -0.1060E-13 -0.2643E-14 -0.1717E-06 -0.4521E-06 -0.3150E-13 -0.5949E-14
     -0.102 -0.2464E-02 -0.2165E-02 -0.1448E-03 -0.1271E-03 -0.1448E-03 -0.1271E-03 -0.1448E-03 -0.1271E-03 -0.1136E-03 -0.9973E-04 -0.1136E-03 -0.9973E-04 -0.3588E-08 -0.1217E-07 -0.1136E-03 -0.9973E-04 -0.1122E-19 -0.7299E-21
     -0.010  0.6530E-01  0.6833E-01  0.3915E-02  0.4143E-02  0.3593E-02  0.3604E-02  0.3915E-02  0.4143E-02  0.3079E-02  0.3262E-02  0.3069E-02  0.3246E-02 -0.8744E-04 -0.1462E-03  0.3069E-02  0.3246E-02 -0.5223E-16  0.2073E-19
      0.083  0.8087E-01  0.1066E+00  0.8720E-03  0.8364E-03  0.1677E-01  0.2307E-01  0.8720E-03  0.8364E-03  0.3774E-03  0.2273E-03  0.8410E-03  0.8756E-03  0.4317E-02  0.6026E-02  0.8410E-03  0.8756E-03  0.2591E-14  0.1310E-18
      0.176  0.1374E+00  0.1072E+00  0.9989E-03  0.7804E-03  0.2999E-01  0.2337E-01  0.9989E-03  0.7804E-03  0.2245E-03  0.1764E-03  0.1070E-02  0.8352E-03  0.7869E-02  0.6124E-02  0.1070E-02  0.8352E-03  0.4722E-14  0.1328E-18
      0.268 -0.4027E-02 -0.2628E-02 -0.2943E-04 -0.1919E-04 -0.8786E-03 -0.5729E-03 -0.2943E-04 -0.1919E-04 -0.6707E-05 -0.4373E-05 -0.3146E-04 -0.2052E-04 -0.2305E-03 -0.1501E-03 -0.3146E-04 -0.2052E-04 -0.1383E-15 -0.3590E-20
      0.361 -0.7260E-06 -0.2278E-06 -0.5307E-08 -0.1665E-08 -0.1584E-06 -0.4966E-07 -0.5307E-08 -0.1669E-08 -0.1210E-08 -0.3809E-09 -0.5673E-08 -0.1779E-08 -0.4156E-07 -0.1301E-07 -0.5673E-08 -0.1779E-08 -0.9693E-13 -0.5010E-12
      0.454 -0.1205E-04 -0.3237E-04 -0.7971E-06 -0.2138E-05 -0.4706E-07 -0.1262E-06 -0.2504E-05 -0.6720E-05 -0.9058E-06 -0.2431E-05 -0.1782E-06 -0.4781E-06 -0.1649E-06 -0.4416E-06 -0.1711E-06 -0.4591E-06 -0.2429E-06 -0.6508E-06
      0.546 -0.1313E-01 -0.1357E-01 -0.8681E-03 -0.8964E-03 -0.5125E-04 -0.5291E-04 -0.2728E-02 -0.2817E-02 -0.9865E-03 -0.1019E-02 -0.1941E-03 -0.2004E-03 -0.1796E-03 -0.1851E-03 -0.1863E-03 -0.1925E-03 -0.2646E-03 -0.2728E-03
      0.639  0.3547E+00  0.3852E+00  0.2346E-01  0.2545E-01  0.1385E-02  0.1502E-02  0.7370E-01  0.7997E-01  0.2666E-01  0.2893E-01  0.5244E-02  0.5689E-02  0.4852E-02  0.5255E-02  0.5035E-02  0.5463E-02  0.7149E-02  0.7745E-02
      0.731  0.4772E-01  0.1722E-01  0.3172E-02  0.1168E-02  0.1702E-03  0.3655E-04  0.9937E-02  0.3617E-02  0.3561E-02  0.1246E-02  0.6534E-03  0.1556E-03  0.6576E-03  0.2443E-03  0.6210E-03  0.1373E-03  0.9658E-03  0.3538E-03
      0.824  0.3020E-01  0.5209E-01  0.1033E-02  0.1812E-02  0.1083E-02  0.1836E-02  0.4955E-02  0.8582E-02  0.3753E-02  0.6421E-02  0.3561E-02  0.6037E-02  0.1174E-03  0.2115E-03  0.3802E-02  0.6444E-02  0.3689E-03  0.6423E-03
      0.917  0.1502E+00  0.1281E+00  0.5265E-02  0.4485E-02  0.5265E-02  0.4485E-02  0.2482E-01  0.2114E-01  0.1848E-01  0.1574E-01  0.1732E-01  0.1475E-01  0.6220E-03  0.5289E-03  0.1848E-01  0.1574E-01  0.1866E-02  0.1587E-02
      1.009 -0.5384E-02 -0.4051E-02 -0.1887E-03 -0.1418E-03 -0.1887E-03 -0.1418E-03 -0.8895E-03 -0.6687E-03 -0.6623E-03 -0.4980E-03 -0.6206E-03 -0.4665E-03 -0.2229E-04 -0.1673E-04 -0.6623E-03 -0.4980E-03 -0.6687E-04 -0.5019E-04
      1.102 -0.4347E-05 -0.4416E-05 -0.1357E-06 -0.1085E-06 -0.1357E-06 -0.1085E-06 -0.5443E-06 -0.2431E-06 -0.9382E-06 -0.1669E-05 -0.9142E-06 -0.1662E-05 -0.1302E-07 -0.4356E-08 -0.9382E-06 -0.1669E-05 -0.3906E-07 -0.1307E-07
      1.195 -0.1763E-02 -0.2186E-02 -0.6669E-04 -0.1032E-03 -0.6672E-04 -0.1033E-03 -0.3007E-04 -0.3260E-04 -0.7300E-03 -0.8500E-03 -0.7546E-03 -0.8975E-03 -0.4565E-06 -0.9122E-06 -0.7300E-03 -0.8500E-03 -0.1270E-05 -0.2444E-05
      1.287  0.5939E-01  0.7941E-01  0.3057E-02  0.4807E-02  0.2566E-02  0.4045E-02  0.8496E-03  0.9756E-03  0.2308E-01  0.2905E-01  0.2456E-01  0.3162E-01 -0.5981E-03 -0.9232E-03  0.2308E-01  0.2905E-01  0.7656E-04  0.1326E-03
      1.380  0.1897E+00  0.1875E+00  0.1280E-01  0.1114E-01  0.3551E-01  0.4107E-01  0.1083E-02  0.1113E-02  0.3495E-01  0.2893E-01  0.4299E-01  0.3589E-01  0.2900E-01  0.3809E-01  0.3512E-01  0.2916E-01  0.4064E-03  0.3466E-03
      1.472  0.7709E-01  0.6174E-01 -0.7015E-03 -0.2711E-03  0.3262E-01  0.2582E-01  0.7327E-03  0.5602E-03 -0.8842E-03 -0.7379E-03 -0.2008E-02 -0.1355E-02  0.4232E-01  0.3310E-01 -0.6295E-03 -0.5381E-03 -0.7403E-04 -0.4278E-04