    1    1    1    2
  0.1812793E+02  0.2948635E-09  0.2948635E-09  0.2948635E-09  0.5000000E-15
  1.000000000000000E-004
  CAR 
 unknown system                          
    5   28    9
 
  0.8333333E-01  0.8333333E-01  0.8333333E-01  0.9259259E-02
   1       -1.887035     -1.895689
   2        6.289486      6.282161
   3        6.686555      6.679403
   4        6.686555      6.679403
   5        9.541455      9.538298
   6        9.541455      9.538298
   7       19.258870     19.247522
   8       19.772693     19.759451
   9       22.410335     22.403217
 
  0.2500000E+00  0.8333333E-01  0.8333333E-01  0.2777778E-01
   1       -0.530914     -0.539506
   2        5.410929      5.403172
   3        6.950511      6.944039
   4        7.217829      7.211063
   5        8.723843      8.719984
   6       10.063337     10.059599
   7       19.769166     19.756125
   8       20.160288     20.153133
   9       21.986039     21.976239
 
  0.4166667E+00  0.8333333E-01  0.8333333E-01  0.2777778E-01
   1        1.309494      1.300794
   2        5.564859      5.557308
   3        6.309510      6.303627
   4        6.746705      6.741341
   5       10.371033     10.366168
   6       11.938298     11.934225
   7       17.710424     17.704420
   8       19.775655     19.762463
   9       20.688030     20.679468
 
 -0.4166667E+00  0.8333333E-01  0.8333333E-01  0.2777778E-01
   1        1.591599      1.582811
   2        5.783530      5.778142
   3        6.547995      6.542598
   4        6.728531      6.720791
   5       12.160889     12.156988
   6       12.344284     12.339987
   7       16.423358     16.417576
   8       18.933673     18.925144
   9       19.782074     19.768729
 
 -0.2500000E+00  0.8333333E-01  0.8333333E-01  0.2777778E-01
   1        0.845337      0.836735
   2        5.163033      5.155233
   3        6.508624      6.503009
   4        7.044629      7.038773
   5        9.928680      9.923563
   6       10.985497     10.981549
   7       18.446207     18.439899
   8       19.778728     19.765460
   9       22.220091     22.211863
 
 -0.8333333E-01  0.8333333E-01  0.8333333E-01  0.2777778E-01
   1       -1.170685     -1.179290
   2        5.658954      5.651353
   3        7.026311      7.019354
   4        7.060686      7.053694
   5        8.713489      8.709740
   6        9.882034      9.878936
   7       19.772395     19.759175
   8       20.600668     20.590069
   9       21.611249     21.604439
 
  0.2500000E+00  0.2500000E+00  0.8333333E-01  0.2777778E-01
   1        0.091721      0.083330
   2        4.705520      4.697601
   3        6.986721      6.981496
   4        7.831464      7.824776
   5        8.408445      8.402332
   6       10.510656     10.507655
   7       19.774276     19.761072
   8       21.478472     21.472441
   9       23.171102     23.161031
 
  0.4166667E+00  0.2500000E+00  0.8333333E-01  0.5555556E-01
   1        1.875187      1.867370
   2        4.155456      4.147438
   3        5.705604      5.699580
   4        8.454271      8.448901
   5        9.900191      9.894308
   6       12.247218     12.243291
   7       19.495618     19.489229
   8       19.807738     19.794603
   9       22.688504     22.673129
 
 -0.4166667E+00  0.2500000E+00  0.8333333E-01  0.5555556E-01
   1        2.831513      2.823114
   2        4.331955      4.326645
   3        5.846057      5.837935
   4        7.818261      7.813367
   5       11.691704     11.686720
   6       14.197498     14.192082
   7       15.537936     15.531803
   8       19.780665     19.767361
   9       21.493522     21.486920
 
 -0.2500000E+00  0.2500000E+00  0.8333333E-01  0.5555556E-01
   1        2.604071      2.595713
   2        4.723700      4.716540
   3        5.122599      5.116126
   4        7.960899      7.956317
   5        9.906831      9.900872
   6       13.433607     13.429326
   7       18.167978     18.161568
   8       19.784572     19.771205
   9       22.119246     22.112364
 
 -0.8333333E-01  0.2500000E+00  0.8333333E-01  0.5555556E-01
   1        0.613105      0.604630
   2        4.829277      4.821331
   3        6.496968      6.491336
   4        7.675962      7.669992
   5        8.760705      8.755387
   6       11.063226     11.059347
   7       19.761907     19.749296
   8       20.045911     20.039383
   9       23.365393     23.356114
 
  0.4166667E+00  0.4166667E+00  0.8333333E-01  0.2777778E-01
   1        1.833794      1.827744
   2        3.116872      3.108598
   3        7.031594      7.023671
   4       10.309545     10.304428
   5       11.434014     11.427702
   6       12.092407     12.089157
   7       18.967599     18.960222
   8       19.782551     19.769289
   9       20.346076     20.338296
 
 -0.4166667E+00  0.4166667E+00  0.8333333E-01  0.5555556E-01
   1        2.283196      2.277767
   2        3.291850      3.283629
   3        7.042566      7.034093
   4       10.102493     10.098629
   5       12.424200     12.418847
   6       14.714815     14.708569
   7       15.791378     15.784189
   8       18.837388     18.829910
   9       19.781968     19.768699
 
 -0.2500000E+00  0.4166667E+00  0.8333333E-01  0.5555556E-01
   1        3.401966      3.395134
   2        3.980251      3.973577
   3        5.579226      5.570935
   4        8.517661      8.513385
   5       11.327568     11.321804
   6       13.824072     13.817180
   7       17.221258     17.215628
   8       19.771824     19.758900
   9       20.134713     20.128632
 
 -0.8333333E-01  0.4166667E+00  0.8333333E-01  0.5555556E-01
   1        1.998958      1.990295
   2        5.193007      5.187440
   3        6.003868      5.996178
   4        7.078346      7.073096
   5       11.228152     11.223286
   6       12.972071     12.967923
   7       16.867846     16.861848
   8       19.780427     19.767128
   9       20.330349     20.322066
 
 -0.4166667E+00 -0.4166667E+00  0.8333333E-01  0.2777778E-01
   1        1.702057      1.696612
   2        2.762173      2.753831
   3        8.386768      8.377741
   4       11.443274     11.440257
   5       12.631479     12.626835
   6       13.191412     13.185560
   7       16.763948     16.755924
   8       18.421161     18.412858
   9       19.722772     19.709751
 
 -0.2500000E+00 -0.4166667E+00  0.8333333E-01  0.5555556E-01
   1        2.415060      2.408855
   2        3.595648      3.587580
   3        5.974214      5.966516
   4        9.497430      9.492764
   5       11.417033     11.411436
   6       13.353215     13.348412
   7       17.474132     17.467046
   8       19.781593     19.768306
   9       20.556324     20.548587
 
 -0.2500000E+00 -0.2500000E+00  0.8333333E-01  0.2777778E-01
   1        1.385376      1.377838
   2        3.795318      3.787181
   3        6.335819      6.329811
   4        8.958734      8.952588
   5        9.669835      9.663341
   6       11.328610     11.325640
   7       19.773363     19.760227
   8       21.379628     21.373332
   9       22.934112     22.926922
 
  0.2500000E+00  0.2500000E+00  0.2500000E+00  0.9259259E-02
   1       -0.039870     -0.048488
   2        5.369080      5.361280
   3        6.957980      6.951796
   4        6.957980      6.951796
   5        9.734892      9.730723
   6        9.734892      9.730723
   7       18.767689     18.760708
   8       19.777917     19.764642
   9       22.686950     22.678107
 
  0.4166667E+00  0.2500000E+00  0.2500000E+00  0.2777778E-01
   1        1.527890      1.519353
   2        4.909006      4.900993
   3        5.949290      5.943602
   4        7.547735      7.542937
   5        8.961798      8.955990
   6       12.329722     12.325648
   7       19.264089     19.258458
   8       19.791062     19.777736
   9       22.310119     22.301014
 
 -0.4166667E+00  0.2500000E+00  0.2500000E+00  0.2777778E-01
   1        3.177118      3.168522
   2        4.430189      4.425066
   3        5.387150      5.378902
   4        7.986478      7.982203
   5       10.396068     10.390242
   6       13.584682     13.578851
   7       17.785997     17.780616
   8       19.782645     19.769315
   9       20.997916     20.991426
 
 -0.2500000E+00  0.2500000E+00  0.2500000E+00  0.2777778E-01
   1        2.583776      2.576497
   2        4.011646      4.004878
   3        5.862081      5.854166
   4        8.448578      8.443659
   5       12.363648     12.359656
   6       13.332897     13.326619
   7       16.016532     16.009987
   8       19.781373     19.768077
   9       22.225082     21.865414
 
  0.4166667E+00  0.4166667E+00  0.2500000E+00  0.2777778E-01
   1        1.885072      1.876773
   2        4.674749      4.667683
   3        5.805900      5.799385
   4        7.565398      7.559901
   5       11.268525     11.262872
   6       12.040883     12.037208
   7       17.981616     17.975595
   8       19.782807     19.769479
   9       21.302717     21.294758
 
 -0.4166667E+00  0.4166667E+00  0.2500000E+00  0.5555556E-01
   1        3.348646      3.342056
   2        4.169516      4.162398
   3        4.975680      4.967635
   4        8.637843      8.633371
   5       11.188955     11.183091
   6       14.148376     14.142609
   7       17.082096     17.075920
   8       19.779575     19.766325
   9       20.353893     20.346732
 
 -0.2500000E+00  0.4166667E+00  0.2500000E+00  0.5555556E-01
   1        3.143047      3.137910
   2        4.185333      4.177098
   3        5.501258      5.492949
   4        8.586992      8.582293
   5       12.328632     12.323091
   6       15.461977     15.455805
   7       16.161568     16.154418
   8       18.652679     18.645850
   9       19.785450     19.772073
 
 -0.4166667E+00 -0.4166667E+00  0.2500000E+00  0.2777778E-01
   1        2.660556      2.654478
   2        3.696709      3.689205
   3        6.475296      6.466876
   4        9.412173      9.408237
   5       11.885297     11.880090
   6       13.914554     13.906597
   7       16.190614     16.184722
   8       19.772444     19.759456
   9       20.444209     20.439577
 
  0.4166667E+00  0.4166667E+00  0.4166667E+00  0.9259259E-02
   1        1.261954      1.253166
   2        6.378952      6.371294
   3        6.404365      6.398867
   4        6.404365      6.398867
   5       11.678332     11.674187
   6       11.678332     11.674187
   7       16.905610     16.899503
   8       19.184155     19.175924
   9       19.787068     19.773655
 
 -0.4166667E+00  0.4166667E+00  0.4166667E+00  0.2777778E-01
   1        2.305652      2.296944
   2        4.942893      4.937712
   3        6.250157      6.242137
   4        7.146236      7.141171
   5       11.507801     11.503161
   6       13.488446     13.483534
   7       16.122947     16.117023
   8       19.781545     19.768222
   9       20.532706     20.524916
