       N       E                     dE             d eps       ncg     rms          rms(c)
DAV:   1     0.206362531777E+01    0.20636E+01   -0.13927E+03  1233   0.218E+02
DAV:   2    -0.193363168585E+01   -0.39973E+01   -0.36380E+01  1187   0.321E+01
DAV:   3    -0.198133037608E+01   -0.47699E-01   -0.47523E-01  1318   0.286E+00
DAV:   4    -0.198137163687E+01   -0.41261E-04   -0.41256E-04  1273   0.736E-02
DAV:   5    -0.198137165226E+01   -0.15393E-07   -0.15317E-07  1222   0.143E-03    0.752E+00
DAV:   6    -0.113231815664E+02   -0.93418E+01   -0.26851E+00  1116   0.464E+00    0.395E+00
DAV:   7    -0.114545865278E+02   -0.13140E+00   -0.47804E-02  1270   0.110E+00    0.351E+00
DAV:   8    -0.113700873181E+02    0.84499E-01   -0.11847E+00  1112   0.540E+00    0.230E+00
DAV:   9    -0.116010074096E+02   -0.23092E+00   -0.16584E-01  1076   0.219E+00    0.548E-01
DAV:  10    -0.116193470693E+02   -0.18340E-01   -0.57895E-02  1098   0.125E+00    0.148E-01
DAV:  11    -0.116188536143E+02    0.49346E-03   -0.93391E-04  1143   0.179E-01    0.128E-01
DAV:  12    -0.116192458002E+02   -0.39219E-03   -0.18345E-03  1085   0.206E-01    0.510E-02
DAV:  13    -0.116192841254E+02   -0.38325E-04   -0.26705E-04  1039   0.880E-02
   1 F= -.11619284E+02 E0= -.11618990E+02  d E =-.882278E-03  mag=    -0.0208
