PROCAR lm decomposed
# of k-points:   28         # of bands:   9         # of ions:   1

 k-point    1 :    0.08333333 0.08333333 0.08333333     weight = 0.00925926

band   1 # energy   -1.88703517 # occ.  1.00000000
 
ion      s     py     pz     px    dxy    dyz    dz2    dxz    dx2    tot
  1  0.848  0.007  0.007  0.007  0.000  0.000  0.000  0.000  0.000  0.871
 
band   2 # energy    6.28948639 # occ.  0.00000000
 
ion      s     py     pz     px    dxy    dyz    dz2    dxz    dx2    tot
  1  0.000  0.004  0.004  0.004  0.331  0.331  0.000  0.331  0.000  1.003
 
band   3 # energy    6.68655525 # occ.  0.00000000
 
ion      s     py     pz     px    dxy    dyz    dz2    dxz    dx2    tot
  1  0.000  0.000  0.002  0.000  0.661  0.177  0.003  0.157  0.000  1.001
 
band   4 # energy    6.68655525 # occ.  0.00000000
 
ion      s     py     pz     px    dxy    dyz    dz2    dxz    dx2    tot
  1  0.000  0.001  0.000  0.001  0.002  0.486  0.000  0.506  0.003  1.001
 
band   5 # energy    9.54145472 # occ.  0.00000000
 
ion      s     py     pz     px    dxy    dyz    dz2    dxz    dx2    tot
  1  0.000  0.000  0.000  0.000  0.000  0.002  0.040  0.001  0.932  0.975
 
band   6 # energy    9.54145472 # occ.  0.00000000
 
ion      s     py     pz     px    dxy    dyz    dz2    dxz    dx2    tot
  1  0.000  0.000  0.000  0.000  0.002  0.000  0.932  0.001  0.040  0.975
 
band   7 # energy   19.25887008 # occ.  0.00000000
 
ion      s     py     pz     px    dxy    dyz    dz2    dxz    dx2    tot
  1  0.000  0.000  0.000  0.000  0.009  0.009  0.000  0.009  0.000  0.026
 
band   8 # energy   19.77269330 # occ.  0.00000000
 
ion      s     py     pz     px    dxy    dyz    dz2    dxz    dx2    tot
  1 43.823  0.000  0.000  0.000  0.000  0.000  0.000  0.000  0.000 43.823
 
band   9 # energy   22.41033520 # occ.  0.00000000
 
ion      s     py     pz     px    dxy    dyz    dz2    dxz    dx2    tot
  1  0.061  0.032  0.032  0.032  0.005  0.005  0.000  0.005  0.000  0.171
 

 k-point    2 :    0.25000000 0.08333333 0.08333333     weight = 0.02777778

band   1 # energy   -0.53091415 # occ.  1.00000000
 
ion      s     py     pz     px    dxy    dyz    dz2    dxz    dx2    tot
  1  0.753  0.055  0.055  0.005  0.004  0.021  0.001  0.004  0.002  0.898
 
band   2 # energy    5.41092880 # occ.  1.00000000
 
ion      s     py     pz     px    dxy    dyz    dz2    dxz    dx2    tot
  1  0.002  0.008  0.008  0.047  0.442  0.034  0.000  0.442  0.000  0.982
 
band   3 # energy    6.95051054 # occ.  0.00000000
 
ion      s     py     pz     px    dxy    dyz    dz2    dxz    dx2    tot
  1  0.000  0.016  0.016  0.001  0.019  0.705  0.051  0.019  0.153  0.981
 
band   4 # energy    7.21782858 # occ.  0.00000000
 
ion      s     py     pz     px    dxy    dyz    dz2    dxz    dx2    tot
  1  0.000  0.000  0.000  0.000  0.445  0.000  0.068  0.445  0.023  0.982
 
band   5 # energy    8.72384303 # occ.  0.00000000
 
ion      s     py     pz     px    dxy    dyz    dz2    dxz    dx2    tot
  1  0.000  0.002  0.002  0.000  0.045  0.000  0.640  0.045  0.213  0.946
 
band   6 # energy   10.06333652 # occ.  0.00000000
 
ion      s     py     pz     px    dxy    dyz    dz2    dxz    dx2    tot
  1  0.004  0.006  0.006  0.000  0.004  0.185  0.186  0.004  0.559  0.953
 
band   7 # energy   19.76916639 # occ.  0.00000000
 
ion      s     py     pz     px    dxy    dyz    dz2    dxz    dx2    tot
  1 42.902  0.001  0.001  0.000  0.000  0.000  0.000  0.000  0.000 42.904
 
band   8 # energy   20.16028813 # occ.  0.00000000
 
ion      s     py     pz     px    dxy    dyz    dz2    dxz    dx2    tot
  1  0.982  0.024  0.024  0.011  0.000  0.026  0.007  0.000  0.020  1.094
 
band   9 # energy   21.98603893 # occ.  0.00000000
 
ion      s     py     pz     px    dxy    dyz    dz2    dxz    dx2    tot
  1  0.041  0.009  0.009  0.002  0.072  0.031  0.001  0.072  0.004  0.243
 

 k-point    3 :    0.41666667 0.08333333 0.08333333     weight = 0.02777778

band   1 # energy    1.30949358 # occ.  1.00000000
 
ion      s     py     pz     px    dxy    dyz    dz2    dxz    dx2    tot
  1  0.479  0.047  0.047  0.002  0.123  0.153  0.001  0.123  0.002  0.974
 
band   2 # energy    5.56485864 # occ.  1.00000000
 
ion      s     py     pz     px    dxy    dyz    dz2    dxz    dx2    tot
  1  0.040  0.138  0.138  0.163  0.167  0.045  0.013  0.167  0.039  0.911
 
band   3 # energy    6.30950991 # occ.  0.00000000
 
ion      s     py     pz     px    dxy    dyz    dz2    dxz    dx2    tot
  1  0.005  0.001  0.001  0.014  0.094  0.295  0.118  0.094  0.353  0.975
 
band   4 # energy    6.74670516 # occ.  0.00000000
 
ion      s     py     pz     px    dxy    dyz    dz2    dxz    dx2    tot
  1  0.000  0.000  0.000  0.000  0.198  0.000  0.438  0.198  0.146  0.980
 
band   5 # energy   10.37103291 # occ.  0.00000000
 
ion      s     py     pz     px    dxy    dyz    dz2    dxz    dx2    tot
  1  0.000  0.007  0.007  0.000  0.282  0.000  0.267  0.282  0.089  0.934
 
band   6 # energy   11.93829756 # occ.  0.00000000
 
ion      s     py     pz     px    dxy    dyz    dz2    dxz    dx2    tot
  1  0.012  0.023  0.023  0.001  0.031  0.413  0.106  0.031  0.318  0.958
 
band   7 # energy   17.71042374 # occ.  0.00000000
 
ion      s     py     pz     px    dxy    dyz    dz2    dxz    dx2    tot
  1  0.165  0.027  0.027  0.024  0.042  0.103  0.005  0.042  0.015  0.450
 
band   8 # energy   19.77565452 # occ.  0.00000000
 
ion      s     py     pz     px    dxy    dyz    dz2    dxz    dx2    tot
  1 43.469  0.000  0.000  0.000  0.000  0.000  0.000  0.000  0.000 43.470
 
band   9 # energy   20.68802961 # occ.  0.00000000
 
ion      s     py     pz     px    dxy    dyz    dz2    dxz    dx2    tot
  1  0.664  0.079  0.079  0.038  0.086  0.043  0.001  0.086  0.003  1.078
 

 k-point    4 :   -0.41666667 0.08333333 0.08333333     weight = 0.02777778

band   1 # energy    1.59159856 # occ.  1.00000000
 
ion      s     py     pz     px    dxy    dyz    dz2    dxz    dx2    tot
  1  0.351  0.001  0.001  0.021  0.200  0.235  0.000  0.200  0.001  1.009
 
band   2 # energy    5.78353020 # occ.  1.00000001
 
ion      s     py     pz     px    dxy    dyz    dz2    dxz    dx2    tot
  1  0.000  0.067  0.067  0.031  0.047  0.081  0.144  0.047  0.433  0.919
 
band   3 # energy    6.54799543 # occ.  0.00000000
 
ion      s     py     pz     px    dxy    dyz    dz2    dxz    dx2    tot
  1  0.000  0.004  0.004  0.000  0.190  0.000  0.444  0.190  0.148  0.979
 
band   4 # energy    6.72853076 # occ.  0.00000000
 
ion      s     py     pz     px    dxy    dyz    dz2    dxz    dx2    tot
  1  0.006  0.181  0.181  0.214  0.028  0.253  0.009  0.028  0.028  0.928
 
band   5 # energy   12.16088892 # occ.  0.00000000
 
ion      s     py     pz     px    dxy    dyz    dz2    dxz    dx2    tot
  1  0.000  0.000  0.000  0.000  0.301  0.000  0.272  0.301  0.091  0.965
 
band   6 # energy   12.34428440 # occ.  0.00000000
 
ion      s     py     pz     px    dxy    dyz    dz2    dxz    dx2    tot
  1  0.000  0.024  0.024  0.055  0.097  0.311  0.084  0.097  0.252  0.942
 
band   7 # energy   16.42335821 # occ.  0.00000000
 
ion      s     py     pz     px    dxy    dyz    dz2    dxz    dx2    tot
  1  0.450  0.002  0.002  0.004  0.166  0.119  0.000  0.166  0.000  0.911
 
band   8 # energy   18.93367337 # occ.  0.00000000
 
ion      s     py     pz     px    dxy    dyz    dz2    dxz    dx2    tot
  1  0.007  0.015  0.015  0.026  0.000  0.030  0.004  0.000  0.011  0.108
 
band   9 # energy   19.78207444 # occ.  0.00000000
 
ion      s     py     pz     px    dxy    dyz    dz2    dxz    dx2    tot
  1 44.036  0.000  0.000  0.000  0.000  0.000  0.000  0.000  0.000 44.037
 

 k-point    5 :   -0.25000000 0.08333333 0.08333333     weight = 0.02777778

band   1 # energy    0.84533690 # occ.  1.00000000
 
ion      s     py     pz     px    dxy    dyz    dz2    dxz    dx2    tot
  1  0.585  0.020  0.020  0.097  0.072  0.067  0.002  0.072  0.007  0.943
 
band   2 # energy    5.16303301 # occ.  1.00000000
 
ion      s     py     pz     px    dxy    dyz    dz2    dxz    dx2    tot
  1  0.025  0.092  0.092  0.063  0.097  0.458  0.005  0.097  0.014  0.943
 
band   3 # energy    6.50862360 # occ.  0.00000000
 
ion      s     py     pz     px    dxy    dyz    dz2    dxz    dx2    tot
  1  0.004  0.001  0.001  0.000  0.103  0.233  0.130  0.103  0.391  0.966
 
band   4 # energy    7.04462936 # occ.  0.00000000
 
ion      s     py     pz     px    dxy    dyz    dz2    dxz    dx2    tot
  1  0.000  0.010  0.010  0.000  0.278  0.000  0.303  0.278  0.101  0.978
 
band   5 # energy    9.92867977 # occ.  0.00000000
 
ion      s     py     pz     px    dxy    dyz    dz2    dxz    dx2    tot
  1  0.008  0.006  0.006  0.044  0.161  0.173  0.094  0.161  0.282  0.935
 
band   6 # energy   10.98549741 # occ.  0.00000000
 
ion      s     py     pz     px    dxy    dyz    dz2    dxz    dx2    tot
  1  0.000  0.006  0.006  0.000  0.194  0.000  0.409  0.194  0.136  0.946
 
band   7 # energy   18.44620700 # occ.  0.00000000
 
ion      s     py     pz     px    dxy    dyz    dz2    dxz    dx2    tot
  1  0.090  0.027  0.027  0.021  0.046  0.008  0.004  0.046  0.013  0.282
 
band   8 # energy   19.77872793 # occ.  0.00000000
 
ion      s     py     pz     px    dxy    dyz    dz2    dxz    dx2    tot
  1 43.784  0.000  0.000  0.000  0.000  0.000  0.000  0.000  0.000 43.784
 
band   9 # energy   22.22009093 # occ.  0.00000000
 
ion      s     py     pz     px    dxy    dyz    dz2    dxz    dx2    tot
  1  0.303  0.073  0.073  0.089  0.102  0.137  0.002  0.102  0.005  0.886
 

 k-point    6 :   -0.08333333 0.08333333 0.08333333     weight = 0.02777778

band   1 # energy   -1.17068531 # occ.  1.00000000
 
ion      s     py     pz     px    dxy    dyz    dz2    dxz    dx2    tot
  1  0.800  0.006  0.006  0.062  0.002  0.000  0.001  0.002  0.002  0.884
 
band   2 # energy    5.65895400 # occ.  1.00000000
 
ion      s     py     pz     px    dxy    dyz    dz2    dxz    dx2    tot
  1  0.000  0.008  0.008  0.001  0.061  0.850  0.000  0.061  0.000  0.989
 
band   3 # energy    7.02631115 # occ.  0.00000000
 
ion      s     py     pz     px    dxy    dyz    dz2    dxz    dx2    tot
  1  0.000  0.007  0.007  0.004  0.401  0.130  0.011  0.401  0.033  0.993
 
band   4 # energy    7.06068614 # occ.  0.00000000
 
ion      s     py     pz     px    dxy    dyz    dz2    dxz    dx2    tot
  1  0.000  0.010  0.010  0.000  0.473  0.000  0.022  0.473  0.007  0.997
 
band   5 # energy    8.71348926 # occ.  0.00000000
 
ion      s     py     pz     px    dxy    dyz    dz2    dxz    dx2    tot
  1  0.004  0.000  0.000  0.003  0.019  0.005  0.225  0.019  0.674  0.949
 
band   6 # energy    9.88203448 # occ.  0.00000000
 
ion      s     py     pz     px    dxy    dyz    dz2    dxz    dx2    tot
  1  0.000  0.000  0.000  0.000  0.015  0.000  0.708  0.015  0.236  0.973
 
band   7 # energy   19.77239528 # occ.  0.00000000
 
ion      s     py     pz     px    dxy    dyz    dz2    dxz    dx2    tot
  1 43.743  0.000  0.000  0.000  0.000  0.000  0.000  0.000  0.000 43.743
 
band   8 # energy   20.60066828 # occ.  0.00000000
 
ion      s     py     pz     px    dxy    dyz    dz2    dxz    dx2    tot
  1  0.022  0.002  0.002  0.002  0.002  0.056  0.001  0.002  0.002  0.093
 
band   9 # energy   21.61124857 # occ.  0.00000000
 
ion      s     py     pz     px    dxy    dyz    dz2    dxz    dx2    tot
  1  0.127  0.019  0.019  0.030  0.019  0.017  0.009  0.019  0.026  0.285
 

 k-point    7 :    0.25000000 0.25000000 0.08333333     weight = 0.02777778

band   1 # energy    0.09172094 # occ.  1.00000000
 
ion      s     py     pz     px    dxy    dyz    dz2    dxz    dx2    tot
  1  0.691  0.005  0.151  0.005  0.001  0.005  0.040  0.005  0.000  0.904
 
band   2 # energy    4.70552049 # occ.  1.00000000
 
ion      s     py     pz     px    dxy    dyz    dz2    dxz    dx2    tot
  1  0.000  0.008  0.001  0.008  0.939  0.017  0.000  0.017  0.000  0.991
 
band   3 # energy    6.98672051 # occ.  0.00000000
 
ion      s     py     pz     px    dxy    dyz    dz2    dxz    dx2    tot
  1  0.016  0.007  0.008  0.007  0.016  0.125  0.632  0.125  0.000  0.937
 
band   4 # energy    7.83146393 # occ.  0.00000000
 
ion      s     py     pz     px    dxy    dyz    dz2    dxz    dx2    tot
  1  0.000  0.025  0.000  0.025  0.000  0.422  0.000  0.422  0.083  0.976
 
band   5 # energy    8.40844537 # occ.  0.00000000
 
ion      s     py     pz     px    dxy    dyz    dz2    dxz    dx2    tot
  1  0.011  0.019  0.024  0.019  0.029  0.307  0.240  0.307  0.000  0.955
 
band   6 # energy   10.51065562 # occ.  0.00000000
 
ion      s     py     pz     px    dxy    dyz    dz2    dxz    dx2    tot
  1  0.000  0.002  0.000  0.002  0.000  0.040  0.000  0.040  0.887  0.970
 
band   7 # energy   19.77427642 # occ.  0.00000000
 
ion      s     py     pz     px    dxy    dyz    dz2    dxz    dx2    tot
  1 43.699  0.000  0.000  0.000  0.000  0.000  0.000  0.000  0.000 43.699
 
band   8 # energy   21.47847181 # occ.  0.00000000
 
ion      s     py     pz     px    dxy    dyz    dz2    dxz    dx2    tot
  1  0.172  0.032  0.018  0.032  0.001  0.025  0.098  0.025  0.000  0.402
 
band   9 # energy   23.17110192 # occ.  0.00000000
 
ion      s     py     pz     px    dxy    dyz    dz2    dxz    dx2    tot
  1  0.011  0.006  0.003  0.006  0.179  0.017  0.004  0.017  0.000  0.243
 

 k-point    8 :    0.41666667 0.25000000 0.08333333     weight = 0.05555556

band   1 # energy    1.87518701 # occ.  1.00000000
 
ion      s     py     pz     px    dxy    dyz    dz2    dxz    dx2    tot
  1  0.456  0.034  0.183  0.001  0.031  0.054  0.160  0.011  0.000  0.929
 
band   2 # energy    4.15545550 # occ.  1.00000000
 
ion      s     py     pz     px    dxy    dyz    dz2    dxz    dx2    tot
  1  0.004  0.017  0.007  0.068  0.811  0.005  0.027  0.052  0.000  0.992
 
band   3 # energy    5.70560357 # occ.  1.00000000
 
ion      s     py     pz     px    dxy    dyz    dz2    dxz    dx2    tot
  1  0.054  0.016  0.046  0.000  0.038  0.247  0.500  0.008  0.035  0.944
 
band   4 # energy    8.45427119 # occ.  0.00000000
 
ion      s     py     pz     px    dxy    dyz    dz2    dxz    dx2    tot
  1  0.004  0.024  0.031  0.019  0.016  0.135  0.076  0.264  0.380  0.948
 
band   5 # energy    9.90019147 # occ.  0.00000000
 
ion      s     py     pz     px    dxy    dyz    dz2    dxz    dx2    tot
  1  0.008  0.013  0.053  0.043  0.065  0.039  0.097  0.510  0.106  0.934
 
band   6 # energy   12.24721762 # occ.  0.00000000
 
ion      s     py     pz     px    dxy    dyz    dz2    dxz    dx2    tot
  1  0.023  0.025  0.032  0.000  0.001  0.419  0.040  0.009  0.422  0.972
 
band   7 # energy   19.49561825 # occ.  0.00000000
 
ion      s     py     pz     px    dxy    dyz    dz2    dxz    dx2    tot
  1  3.097  0.151  0.074  0.037  0.009  0.121  0.013  0.039  0.026  3.567
 
band   8 # energy   19.80773769 # occ.  0.00000000
 
ion      s     py     pz     px    dxy    dyz    dz2    dxz    dx2    tot
  1 40.987  0.017  0.006  0.004  0.001  0.014  0.002  0.005  0.003 41.039
 
band   9 # energy   22.68850386 # occ.  0.00000000
 
ion      s     py     pz     px    dxy    dyz    dz2    dxz    dx2    tot
  1  0.080  0.034  0.091  0.017  0.023  0.001  0.196  0.010  0.001  0.453
 

 k-point    9 :   -0.41666667 0.25000000 0.08333333     weight = 0.05555556

band   1 # energy    2.83151284 # occ.  1.00000000
 
ion      s     py     pz     px    dxy    dyz    dz2    dxz    dx2    tot
  1  0.235  0.000  0.070  0.026  0.359  0.159  0.057  0.089  0.000  0.996
 
band   2 # energy    4.33195510 # occ.  1.00000000
 
ion      s     py     pz     px    dxy    dyz    dz2    dxz    dx2    tot
  1  0.001  0.120  0.005  0.063  0.004  0.057  0.565  0.015  0.064  0.893
 
band   3 # energy    5.84605653 # occ.  1.00008869
 
ion      s     py     pz     px    dxy    dyz    dz2    dxz    dx2    tot
  1  0.016  0.044  0.179  0.100  0.341  0.262  0.011  0.011  0.009  0.973
 
band   4 # energy    7.81826117 # occ.  0.00000000
 
ion      s     py     pz     px    dxy    dyz    dz2    dxz    dx2    tot
  1  0.001  0.009  0.026  0.020  0.006  0.029  0.068  0.209  0.577  0.946
 
band   5 # energy   11.69170413 # occ.  0.00000000
 
ion      s     py     pz     px    dxy    dyz    dz2    dxz    dx2    tot
  1  0.035  0.004  0.007  0.003  0.073  0.171  0.029  0.438  0.178  0.937
 
band   6 # energy   14.19749808 # occ.  0.00000000
 
ion      s     py     pz     px    dxy    dyz    dz2    dxz    dx2    tot
  1  0.003  0.060  0.192  0.127  0.132  0.185  0.164  0.001  0.063  0.927
 
band   7 # energy   15.53793643 # occ.  0.00000000
 
ion      s     py     pz     px    dxy    dyz    dz2    dxz    dx2    tot
  1  0.486  0.002  0.001  0.004  0.050  0.117  0.022  0.204  0.024  0.909
 
band   8 # energy   19.78066484 # occ.  0.00000000
 
ion      s     py     pz     px    dxy    dyz    dz2    dxz    dx2    tot
  1 43.942  0.000  0.000  0.000  0.000  0.000  0.000  0.000  0.000 43.943
 
band   9 # energy   21.49352174 # occ.  0.00000000
 
ion      s     py     pz     px    dxy    dyz    dz2    dxz    dx2    tot
  1  0.019  0.008  0.101  0.002  0.018  0.061  0.184  0.009  0.008  0.410
 

 k-point   10 :   -0.25000000 0.25000000 0.08333333     weight = 0.05555556

band   1 # energy    2.60407137 # occ.  1.00000000
 
ion      s     py     pz     px    dxy    dyz    dz2    dxz    dx2    tot
  1  0.392  0.069  0.003  0.155  0.200  0.064  0.016  0.031  0.028  0.958
 
band   2 # energy    4.72370013 # occ.  1.00000000
 
ion      s     py     pz     px    dxy    dyz    dz2    dxz    dx2    tot
  1  0.005  0.066  0.125  0.031  0.026  0.376  0.155  0.109  0.048  0.940
 
band   3 # energy    5.12259950 # occ.  1.00000000
 
ion      s     py     pz     px    dxy    dyz    dz2    dxz    dx2    tot
  1  0.020  0.012  0.037  0.003  0.238  0.209  0.338  0.032  0.062  0.952
 
band   4 # energy    7.96089939 # occ.  0.00000000
 
ion      s     py     pz     px    dxy    dyz    dz2    dxz    dx2    tot
  1  0.001  0.003  0.003  0.054  0.011  0.033  0.080  0.110  0.646  0.940
 
band   5 # energy    9.90683052 # occ.  0.00000000
 
ion      s     py     pz     px    dxy    dyz    dz2    dxz    dx2    tot
  1  0.000  0.000  0.019  0.017  0.000  0.209  0.005  0.559  0.120  0.930
 
band   6 # energy   13.43360664 # occ.  0.00000000
 
ion      s     py     pz     px    dxy    dyz    dz2    dxz    dx2    tot
  1  0.108  0.023  0.004  0.047  0.505  0.002  0.296  0.001  0.000  0.986
 
band   7 # energy   18.16797765 # occ.  0.00000000
 
ion      s     py     pz     px    dxy    dyz    dz2    dxz    dx2    tot
  1  0.210  0.138  0.027  0.117  0.046  0.022  0.125  0.037  0.002  0.724
 
band   8 # energy   19.78457235 # occ.  0.00000000
 
ion      s     py     pz     px    dxy    dyz    dz2    dxz    dx2    tot
  1 44.026  0.000  0.000  0.000  0.000  0.000  0.000  0.000  0.000 44.028
 
band   9 # energy   22.11924638 # occ.  0.00000000
 
ion      s     py     pz     px    dxy    dyz    dz2    dxz    dx2    tot
  1  0.008  0.003  0.103  0.040  0.028  0.076  0.079  0.066  0.030  0.434
 

 k-point   11 :   -0.08333333 0.25000000 0.08333333     weight = 0.05555556

band   1 # energy    0.61310545 # occ.  1.00000000
 
ion      s     py     pz     px    dxy    dyz    dz2    dxz    dx2    tot
  1  0.649  0.043  0.003  0.135  0.049  0.010  0.009  0.009  0.013  0.918
 
band   2 # energy    4.82927727 # occ.  1.00000000
 
ion      s     py     pz     px    dxy    dyz    dz2    dxz    dx2    tot
  1  0.003  0.013  0.065  0.008  0.013  0.723  0.002  0.156  0.002  0.984
 
band   3 # energy    6.49696824 # occ.  0.00000000
 
ion      s     py     pz     px    dxy    dyz    dz2    dxz    dx2    tot
  1  0.005  0.026  0.000  0.001  0.368  0.037  0.321  0.004  0.184  0.946
 
band   4 # energy    7.67596198 # occ.  0.00000000
 
ion      s     py     pz     px    dxy    dyz    dz2    dxz    dx2    tot
  1  0.001  0.006  0.013  0.006  0.100  0.085  0.047  0.437  0.270  0.966
 
band   5 # energy    8.76070477 # occ.  0.00000000
 
ion      s     py     pz     px    dxy    dyz    dz2    dxz    dx2    tot
  1  0.006  0.004  0.009  0.028  0.073  0.101  0.001  0.294  0.428  0.944
 
band   6 # energy   11.06322591 # occ.  0.00000000
 
ion      s     py     pz     px    dxy    dyz    dz2    dxz    dx2    tot
  1  0.010  0.018  0.000  0.013  0.311  0.001  0.561  0.010  0.032  0.958
 
band   7 # energy   19.76190684 # occ.  0.00000000
 
ion      s     py     pz     px    dxy    dyz    dz2    dxz    dx2    tot
  1 40.952  0.003  0.001  0.002  0.004  0.000  0.003  0.001  0.000 40.966
 
band   8 # energy   20.04591119 # occ.  0.00000000
 
ion      s     py     pz     px    dxy    dyz    dz2    dxz    dx2    tot
  1  2.964  0.047  0.016  0.026  0.074  0.001  0.052  0.010  0.012  3.202
 
band   9 # energy   23.36539254 # occ.  0.00000000
 
ion      s     py     pz     px    dxy    dyz    dz2    dxz    dx2    tot
  1  0.083  0.052  0.025  0.038  0.052  0.162  0.000  0.083  0.003  0.498
 

 k-point   12 :    0.41666667 0.41666667 0.08333333     weight = 0.02777778

band   1 # energy    1.83379373 # occ.  1.00000000
 
ion      s     py     pz     px    dxy    dyz    dz2    dxz    dx2    tot
  1  0.223  0.004  0.078  0.004  0.006  0.001  0.603  0.001  0.000  0.920
 
band   2 # energy    3.11687243 # occ.  1.00000000
 
ion      s     py     pz     px    dxy    dyz    dz2    dxz    dx2    tot
  1  0.000  0.008  0.000  0.008  1.006  0.002  0.004  0.002  0.000  1.030
 
band   3 # energy    7.03159440 # occ.  0.00000000
 
ion      s     py     pz     px    dxy    dyz    dz2    dxz    dx2    tot
  1  0.160  0.002  0.443  0.002  0.002  0.061  0.225  0.061  0.000  0.955
 
band   4 # energy   10.30954503 # occ.  0.00000000
 
ion      s     py     pz     px    dxy    dyz    dz2    dxz    dx2    tot
  1  0.000  0.039  0.000  0.039  0.000  0.250  0.000  0.250  0.356  0.935
 
band   5 # energy   11.43401361 # occ.  0.00000000
 
ion      s     py     pz     px    dxy    dyz    dz2    dxz    dx2    tot
  1  0.012  0.050  0.084  0.050  0.007  0.349  0.032  0.349  0.000  0.935
 
band   6 # energy   12.09240729 # occ.  0.00000000
 
ion      s     py     pz     px    dxy    dyz    dz2    dxz    dx2    tot
  1  0.000  0.006  0.000  0.006  0.000  0.178  0.000  0.178  0.601  0.970
 
band   7 # energy   18.96759900 # occ.  0.00000000
 
ion      s     py     pz     px    dxy    dyz    dz2    dxz    dx2    tot
  1  0.240  0.195  0.054  0.195  0.008  0.086  0.006  0.086  0.000  0.870
 
band   8 # energy   19.78255133 # occ.  0.00000000
 
ion      s     py     pz     px    dxy    dyz    dz2    dxz    dx2    tot
  1 43.511  0.003  0.000  0.003  0.000  0.001  0.000  0.001  0.000 43.520
 
band   9 # energy   20.34607640 # occ.  0.00000000
 
ion      s     py     pz     px    dxy    dyz    dz2    dxz    dx2    tot
  1  0.000  0.298  0.000  0.298  0.000  0.090  0.000  0.090  0.023  0.799
 

 k-point   13 :   -0.41666667 0.41666667 0.08333333     weight = 0.05555556

band   1 # energy    2.28319569 # occ.  1.00000000
 
ion      s     py     pz     px    dxy    dyz    dz2    dxz    dx2    tot
  1  0.094  0.038  0.008  0.001  0.037  0.001  0.733  0.000  0.004  0.915
 
band   2 # energy    3.29184996 # occ.  1.00000000
 
ion      s     py     pz     px    dxy    dyz    dz2    dxz    dx2    tot
  1  0.000  0.014  0.000  0.066  0.909  0.000  0.023  0.002  0.001  1.015
 
band   3 # energy    7.04256566 # occ.  0.00000000
 
ion      s     py     pz     px    dxy    dyz    dz2    dxz    dx2    tot
  1  0.035  0.002  0.486  0.000  0.003  0.379  0.015  0.029  0.009  0.958
 
band   4 # energy   10.10249342 # occ.  0.00000000
 
ion      s     py     pz     px    dxy    dyz    dz2    dxz    dx2    tot
  1  0.032  0.060  0.029  0.008  0.000  0.001  0.007  0.022  0.754  0.913
 
band   5 # energy   12.42419956 # occ.  0.00000000
 
ion      s     py     pz     px    dxy    dyz    dz2    dxz    dx2    tot
  1  0.010  0.002  0.001  0.018  0.006  0.121  0.000  0.774  0.021  0.954
 
band   6 # energy   14.71481481 # occ.  0.00000000
 
ion      s     py     pz     px    dxy    dyz    dz2    dxz    dx2    tot
  1  0.019  0.009  0.335  0.019  0.003  0.483  0.022  0.088  0.010  0.987
 
band   7 # energy   15.79137784 # occ.  0.00000000
 
ion      s     py     pz     px    dxy    dyz    dz2    dxz    dx2    tot
  1  0.387  0.094  0.011  0.151  0.032  0.005  0.014  0.036  0.087  0.817
 
band   8 # energy   18.83738781 # occ.  0.00000000
 
ion      s     py     pz     px    dxy    dyz    dz2    dxz    dx2    tot
  1  0.093  0.039  0.021  0.498  0.034  0.002  0.040  0.033  0.087  0.847
 
band   9 # energy   19.78196791 # occ.  0.00000000
 
ion      s     py     pz     px    dxy    dyz    dz2    dxz    dx2    tot
  1 43.679  0.003  0.000  0.001  0.000  0.000  0.000  0.000  0.001 43.685
 

 k-point   14 :   -0.25000000 0.41666667 0.08333333     weight = 0.05555556

band   1 # energy    3.40196618 # occ.  1.00000000
 
ion      s     py     pz     px    dxy    dyz    dz2    dxz    dx2    tot
  1  0.102  0.011  0.015  0.012  0.398  0.017  0.384  0.010  0.009  0.957
 
band   2 # energy    3.98025086 # occ.  1.00000000
 
ion      s     py     pz     px    dxy    dyz    dz2    dxz    dx2    tot
  1  0.046  0.135  0.004  0.140  0.220  0.035  0.291  0.013  0.043  0.926
 
band   3 # energy    5.57922638 # occ.  1.00000000
 
ion      s     py     pz     px    dxy    dyz    dz2    dxz    dx2    tot
  1  0.002  0.010  0.283  0.022  0.080  0.480  0.001  0.095  0.001  0.973
 
band   4 # energy    8.51766125 # occ.  0.00000000
 
ion      s     py     pz     px    dxy    dyz    dz2    dxz    dx2    tot
  1  0.025  0.009  0.008  0.044  0.007  0.005  0.044  0.049  0.733  0.924
 
band   5 # energy   11.32756808 # occ.  0.00000000
 
ion      s     py     pz     px    dxy    dyz    dz2    dxz    dx2    tot
  1  0.022  0.001  0.010  0.000  0.018  0.239  0.002  0.604  0.035  0.931
 
band   6 # energy   13.82407200 # occ.  0.00000000
 
ion      s     py     pz     px    dxy    dyz    dz2    dxz    dx2    tot
  1  0.419  0.019  0.019  0.092  0.231  0.002  0.016  0.022  0.049  0.868
 
band   7 # energy   17.22125850 # occ.  0.00000000
 
ion      s     py     pz     px    dxy    dyz    dz2    dxz    dx2    tot
  1  0.101  0.037  0.266  0.076  0.012  0.178  0.156  0.149  0.002  0.976
 
band   8 # energy   19.77182434 # occ.  0.00000000
 
ion      s     py     pz     px    dxy    dyz    dz2    dxz    dx2    tot
  1 42.302  0.001  0.009  0.004  0.001  0.004  0.005  0.003  0.000 42.329
 
band   9 # energy   20.13471283 # occ.  0.00000000
 
ion      s     py     pz     px    dxy    dyz    dz2    dxz    dx2    tot
  1  1.764  0.052  0.246  0.133  0.024  0.095  0.242  0.083  0.008  2.648
 

 k-point   15 :   -0.08333333 0.41666667 0.08333333     weight = 0.05555556

band   1 # energy    1.99895847 # occ.  1.00000000
 
ion      s     py     pz     px    dxy    dyz    dz2    dxz    dx2    tot
  1  0.356  0.012  0.005  0.069  0.199  0.211  0.003  0.131  0.009  0.994
 
band   2 # energy    5.19300738 # occ.  1.00000000
 
ion      s     py     pz     px    dxy    dyz    dz2    dxz    dx2    tot
  1  0.004  0.127  0.070  0.052  0.085  0.005  0.353  0.023  0.174  0.893
 
band   3 # energy    6.00386758 # occ.  0.37707849
 
ion      s     py     pz     px    dxy    dyz    dz2    dxz    dx2    tot
  1  0.031  0.045  0.125  0.095  0.152  0.410  0.086  0.020  0.015  0.979
 
band   4 # energy    7.07834585 # occ.  0.00000000
 
ion      s     py     pz     px    dxy    dyz    dz2    dxz    dx2    tot
  1  0.000  0.004  0.004  0.019  0.046  0.051  0.149  0.246  0.448  0.967
 
band   5 # energy   11.22815203 # occ.  0.00000000
 
ion      s     py     pz     px    dxy    dyz    dz2    dxz    dx2    tot
  1  0.000  0.003  0.014  0.038  0.006  0.175  0.012  0.409  0.279  0.935
 
band   6 # energy   12.97207065 # occ.  0.00000000
 
ion      s     py     pz     px    dxy    dyz    dz2    dxz    dx2    tot
  1  0.031  0.030  0.023  0.059  0.437  0.033  0.341  0.013  0.002  0.969
 
band   7 # energy   16.86784613 # occ.  0.00000000
 
ion      s     py     pz     px    dxy    dyz    dz2    dxz    dx2    tot
  1  0.348  0.043  0.030  0.039  0.111  0.076  0.027  0.134  0.001  0.808
 
band   8 # energy   19.78042700 # occ.  0.00000000
 
ion      s     py     pz     px    dxy    dyz    dz2    dxz    dx2    tot
  1 43.861  0.000  0.000  0.000  0.000  0.000  0.000  0.000  0.000 43.862
 
band   9 # energy   20.33034916 # occ.  0.00000000
 
ion      s     py     pz     px    dxy    dyz    dz2    dxz    dx2    tot
  1  0.174  0.017  0.013  0.047  0.006  0.046  0.024  0.011  0.022  0.361
 

 k-point   16 :   -0.41666667-0.41666667 0.08333333     weight = 0.02777778

band   1 # energy    1.70205682 # occ.  1.00000000
 
ion      s     py     pz     px    dxy    dyz    dz2    dxz    dx2    tot
  1  0.125  0.004  0.007  0.004  0.005  0.000  0.776  0.000  0.000  0.923
 
band   2 # energy    2.76217341 # occ.  1.00000000
 
ion      s     py     pz     px    dxy    dyz    dz2    dxz    dx2    tot
  1  0.000  0.008  0.000  0.008  1.023  0.000  0.003  0.000  0.000  1.042
 
band   3 # energy    8.38676785 # occ.  0.00000000
 
ion      s     py     pz     px    dxy    dyz    dz2    dxz    dx2    tot
  1  0.038  0.001  0.737  0.001  0.000  0.079  0.025  0.079  0.000  0.959
 
band   4 # energy   11.44327370 # occ.  0.00000000
 
ion      s     py     pz     px    dxy    dyz    dz2    dxz    dx2    tot
  1  0.000  0.023  0.000  0.023  0.000  0.059  0.000  0.059  0.780  0.946
 
band   5 # energy   12.63147881 # occ.  0.00000000
 
ion      s     py     pz     px    dxy    dyz    dz2    dxz    dx2    tot
  1  0.000  0.003  0.000  0.003  0.000  0.410  0.000  0.410  0.146  0.971
 
band   6 # energy   13.19141211 # occ.  0.00000000
 
ion      s     py     pz     px    dxy    dyz    dz2    dxz    dx2    tot
  1  0.002  0.020  0.149  0.020  0.001  0.384  0.006  0.384  0.000  0.966
 