<?xml version="1.0" encoding="ISO-8859-1"?>
<modeling>
 <generator>
  <i name="program" type="string">vasp </i>
  <i name="version" type="string">5.2.12  </i>
  <i name="subversion" type="string">11Nov11 complex                                                      parallel </i>
  <i name="platform" type="string">LinuxIFC </i>
  <i name="date" type="string">2012 10 17 </i>
  <i name="time" type="string">11:06:58 </i>
 </generator>
 <incar>
  <i type="int" name="ISTART">     0</i>
  <i type="string" name="PREC">accurate</i>
  <i type="int" name="ISPIN">     2</i>
  <i name="ENCUT">    200.00000000</i>
  <v name="MAGMOM">      6.00000000</v>
  <i type="logical" name="LREAL"> F  </i>
  <i type="int" name="ISMEAR">     1</i>
  <i name="SIGMA">      0.05000000</i>
  <i type="logical" name="LORBIT"> F  </i>
 </incar>
 <kpoints>
  <generation param="Monkhorst-Pack">
   <v type="int" name="divisions">       6        6        6 </v>
   <v name="usershift">      0.00000000       0.00000000       0.00000000 </v>
   <v name="genvec1">      0.16666667       0.00000000       0.00000000 </v>
   <v name="genvec2">      0.00000000       0.16666667       0.00000000 </v>
   <v name="genvec3">      0.00000000       0.00000000       0.16666667 </v>
   <v name="shift">      0.50000000       0.50000000       0.50000000 </v>
  </generation>
  <varray name="kpointlist" >
   <v>       0.08333333       0.08333333       0.08333333 </v>
   <v>       0.25000000       0.08333333       0.08333333 </v>
   <v>       0.41666667       0.08333333       0.08333333 </v>
   <v>      -0.41666667       0.08333333       0.08333333 </v>
   <v>      -0.25000000       0.08333333       0.08333333 </v>
   <v>      -0.08333333       0.08333333       0.08333333 </v>
   <v>       0.25000000       0.25000000       0.08333333 </v>
   <v>       0.41666667       0.25000000       0.08333333 </v>
   <v>      -0.41666667       0.25000000       0.08333333 </v>
   <v>      -0.25000000       0.25000000       0.08333333 </v>
   <v>      -0.08333333       0.25000000       0.08333333 </v>
   <v>       0.41666667       0.41666667       0.08333333 </v>
   <v>      -0.41666667       0.41666667       0.08333333 </v>
   <v>      -0.25000000       0.41666667       0.08333333 </v>
   <v>      -0.08333333       0.41666667       0.08333333 </v>
   <v>      -0.41666667      -0.41666667       0.08333333 </v>
   <v>      -0.25000000      -0.41666667       0.08333333 </v>
   <v>      -0.25000000      -0.25000000       0.08333333 </v>
   <v>       0.25000000       0.25000000       0.25000000 </v>
   <v>       0.41666667       0.25000000       0.25000000 </v>
   <v>      -0.41666667       0.25000000       0.25000000 </v>
   <v>      -0.25000000       0.25000000       0.25000000 </v>
   <v>       0.41666667       0.41666667       0.25000000 </v>
   <v>      -0.41666667       0.41666667       0.25000000 </v>
   <v>      -0.25000000       0.41666667       0.25000000 </v>
   <v>      -0.41666667      -0.41666667       0.25000000 </v>
   <v>       0.41666667       0.41666667       0.41666667 </v>
   <v>      -0.41666667       0.41666667       0.41666667 </v>
  </varray>
  <varray name="weights" >
   <v>       0.00925926 </v>
   <v>       0.02777778 </v>
   <v>       0.02777778 </v>
   <v>       0.02777778 </v>
   <v>       0.02777778 </v>
   <v>       0.02777778 </v>
   <v>       0.02777778 </v>
   <v>       0.05555556 </v>
   <v>       0.05555556 </v>
   <v>       0.05555556 </v>
   <v>       0.05555556 </v>
   <v>       0.02777778 </v>
   <v>       0.05555556 </v>
   <v>       0.05555556 </v>
   <v>       0.05555556 </v>
   <v>       0.02777778 </v>
   <v>       0.05555556 </v>
   <v>       0.02777778 </v>
   <v>       0.00925926 </v>
   <v>       0.02777778 </v>
   <v>       0.02777778 </v>
   <v>       0.02777778 </v>
   <v>       0.02777778 </v>
   <v>       0.05555556 </v>
   <v>       0.05555556 </v>
   <v>       0.02777778 </v>
   <v>       0.00925926 </v>
   <v>       0.02777778 </v>
  </varray>
 </kpoints>
 <parameters>
  <separator name="general" >
   <i type="string" name="SYSTEM">unknown system</i>
   <i type="logical" name="LCOMPAT"> F  </i>
  </separator>
  <separator name="electronic" >
   <i type="string" name="PREC">accura</i>
   <i name="ENMAX">    200.00000000</i>
   <i name="ENAUG">    332.07500000</i>
   <i name="EDIFF">      0.00010000</i>
   <i type="int" name="IALGO">    38</i>
   <i type="int" name="IWAVPR">    10</i>
   <i type="int" name="NBANDS">     9</i>
   <i name="NELECT">      5.00000000</i>
   <i type="int" name="TURBO">     0</i>
   <i type="int" name="IRESTART">     0</i>
   <i type="int" name="NREBOOT">     0</i>
   <i type="int" name="NMIN">     0</i>
   <i name="EREF">      0.00000000</i>
   <separator name="electronic smearing" >
    <i type="int" name="ISMEAR">     1</i>
    <i name="SIGMA">      0.05000000</i>
    <i name="KSPACING">      0.50000000</i>
    <i type="logical" name="KGAMMA"> T  </i>
   </separator>
   <separator name="electronic projectors" >
    <i type="logical" name="LREAL"> F  </i>
    <v name="ROPT">      0.00000000</v>
    <i type="int" name="LMAXPAW">  -100</i>
    <i type="int" name="LMAXMIX">     2</i>
    <i type="logical" name="NLSPLINE"> F  </i>
   </separator>
   <separator name="electronic startup" >
    <i type="int" name="ISTART">     0</i>
    <i type="int" name="ICHARG">     2</i>
    <i type="int" name="INIWAV">     1</i>
   </separator>
   <separator name="electronic spin" >
    <i type="int" name="ISPIN">     2</i>
    <i type="logical" name="LNONCOLLINEAR"> F  </i>
    <v name="MAGMOM">      6.00000000</v>
    <i name="NUPDOWN">     -1.00000000</i>
    <i type="logical" name="LSORBIT"> F  </i>
    <v name="SAXIS">      0.00000000      0.00000000      1.00000000</v>
    <i type="logical" name="LSPIRAL"> F  </i>
    <v name="QSPIRAL">      0.00000000      0.00000000      0.00000000</v>
    <i type="logical" name="LZEROZ"> F  </i>
   </separator>
   <separator name="electronic exchange-correlation" >
    <i type="logical" name="LASPH"> F  </i>
    <i type="logical" name="LMETAGGA"> F  </i>
   </separator>
   <separator name="electronic convergence" >
    <i type="int" name="NELM">    60</i>
    <i type="int" name="NELMDL">    -5</i>
    <i type="int" name="NELMIN">     2</i>
    <i name="ENINI">    200.00000000</i>
    <separator name="electronic convergence detail" >
     <i type="logical" name="LDIAG"> T  </i>
     <i type="logical" name="LSUBROT"> T  </i>
     <i name="WEIMIN">      0.00000000</i>
     <i name="EBREAK">      0.00000278</i>
     <i name="DEPER">      0.30000000</i>
     <i type="int" name="NRMM">     4</i>
     <i name="TIME">      0.40000000</i>
    </separator>
   </separator>
   <separator name="electronic mixer" >
    <i name="AMIX">      0.40000000</i>
    <i name="BMIX">      1.00000000</i>
    <i name="AMIN">      0.10000000</i>
    <i name="AMIX_MAG">      1.60000000</i>
    <i name="BMIX_MAG">      1.00000000</i>
    <separator name="electronic mixer details" >
     <i type="int" name="IMIX">     4</i>
     <i type="int" name="MAXMIX">   -45</i>
     <i name="WC">    100.00000000</i>
     <i type="int" name="INIMIX">     1</i>
     <i type="int" name="MIXPRE">     1</i>
     <i type="int" name="MREMOVE">     5</i>
    </separator>
   </separator>
   <separator name="electronic dipolcorrection" >
    <i type="logical" name="LDIPOL"> F  </i>
    <i type="logical" name="LMONO"> F  </i>
    <i type="int" name="IDIPOL">     0</i>
    <i name="EPSILON">      1.00000000</i>
    <v name="DIPOL">   -100.00000000   -100.00000000   -100.00000000</v>
    <i name="EFIELD">      0.00000000</i>
   </separator>
  </separator>
  <separator name="grids" >
   <i type="int" name="NGX">    14</i>
   <i type="int" name="NGY">    14</i>
   <i type="int" name="NGZ">    14</i>
   <i type="int" name="NGXF">    28</i>
   <i type="int" name="NGYF">    28</i>
   <i type="int" name="NGZF">    28</i>
   <i type="logical" name="ADDGRID"> F  </i>
  </separator>
  <separator name="ionic" >
   <i type="int" name="NSW">     0</i>
   <i type="int" name="IBRION">    -1</i>
   <i type="int" name="ISIF">     2</i>
   <i name="PSTRESS">      0.00000000</i>
   <i name="EDIFFG">      0.00100000</i>
   <i type="int" name="NFREE">     0</i>
   <i name="POTIM">      0.50000000</i>
   <i name="SMASS">     -3.00000000</i>
   <i name="SCALEE">      1.00000000</i>
  </separator>
  <separator name="ionic md" >
   <i name="TEBEG">      0.00010000</i>
   <i name="TEEND">      0.00010000</i>
   <i type="int" name="NBLOCK">     1</i>
   <i type="int" name="KBLOCK">     1</i>
   <i type="int" name="NPACO">   256</i>
   <i name="APACO">     16.00000000</i>
  </separator>
  <separator name="symmetry" >
   <i type="int" name="ISYM">     2</i>
   <i name="SYMPREC">      0.00001000</i>
  </separator>
  <separator name="dos" >
   <i type="logical" name="LORBIT"> F  </i>
   <v name="RWIGS">     -1.00000000</v>
   <i type="int" name="NEDOS">   301</i>
   <i name="EMIN">     10.00000000</i>
   <i name="EMAX">    -10.00000000</i>
   <i name="EFERMI">      0.00000000</i>
  </separator>
  <separator name="writing" >
   <i type="int" name="NWRITE">     2</i>
   <i type="logical" name="LWAVE"> T  </i>
   <i type="logical" name="LCHARG"> T  </i>
   <i type="logical" name="LPARD"> F  </i>
   <i type="logical" name="LVTOT"> F  </i>
   <i type="logical" name="LVHAR"> F  </i>
   <i type="logical" name="LELF"> F  </i>
   <i type="logical" name="LOPTICS"> F  </i>
   <v name="STM">      0.00000000      0.00000000      0.00000000      0.00000000      0.00000000      0.00000000      0.00000000</v>
  </separator>
  <separator name="performance" >
   <i type="int" name="NPAR">     1</i>
   <i type="int" name="NSIM">     4</i>
   <i type="int" name="NBLK">    -1</i>
   <i type="logical" name="LPLANE"> T  </i>
   <i type="logical" name="LSCALAPACK"> F  </i>
   <i type="logical" name="LSCAAWARE"> F  </i>
   <i type="logical" name="LSCALU"> F  </i>
   <i type="logical" name="LASYNC"> F  </i>
   <i type="logical" name="LORBITALREAL"> F  </i>
  </separator>
  <separator name="miscellaneous" >
   <i type="int" name="IDIOT">     3</i>
   <i type="logical" name="LMUSIC"> F  </i>
   <v name="POMASS">    180.94800000</v>
   <v name="DARWINR">      0.00000000</v>
   <v name="DARWINV">      1.00000000</v>
   <i type="logical" name="LCORR"> T  </i>
  </separator>
  <i type="logical" name="GGA_COMPAT"> T  </i>
  <i type="logical" name="LBERRY"> F  </i>
  <i type="int" name="ICORELEVEL">     0</i>
  <i type="logical" name="LDAU"> F  </i>
  <i type="int" name="I_CONSTRAINED_M">     0</i>
  <separator name="electronic exchange-correlation" >
   <i type="string" name="GGA">--</i>
   <i type="int" name="VOSKOWN">     0</i>
   <i type="logical" name="LHFCALC"> F  </i>
   <i type="string" name="PRECFOCK"></i>
   <i type="logical" name="LHFONE"> F  </i>
   <i type="logical" name="LRHFCALC"> F  </i>
   <i type="logical" name="LTHOMAS"> F  </i>
   <i type="logical" name="LMODELHF"> F  </i>
   <i name="ENCUT4O">     -1.00000000</i>
   <i type="int" name="EXXOEP">     0</i>
   <i type="int" name="FOURORBIT">     0</i>
   <i name="AEXX">      0.00000000</i>
   <i name="HFALPHA">      0.00000000</i>
   <i name="ALDAX">      1.00000000</i>
   <i name="AGGAX">      1.00000000</i>
   <i name="ALDAC">      1.00000000</i>
   <i name="AGGAC">      1.00000000</i>
   <i type="int" name="NKREDX">     1</i>
   <i type="int" name="NKREDY">     1</i>
   <i type="int" name="NKREDZ">     1</i>
   <i type="logical" name="SHIFTRED"> F  </i>
   <i type="logical" name="ODDONLY"> F  </i>
   <i type="logical" name="EVENONLY"> F  </i>
   <i type="int" name="LMAXFOCK">     0</i>
   <i type="int" name="NMAXFOCKAE">     0</i>
   <i type="logical" name="LFOCKAEDFT"> F  </i>
   <i name="HFSCREEN">      0.00000000</i>
   <i name="HFSCREENC">      0.00000000</i>
  </separator>
  <separator name="vdW DFT" >
   <i type="logical" name="LUSE_VDW"> F  </i>
   <i name="Zab_VDW">     -0.84910000</i>
   <i name="PARAM1">      0.12340000</i>
   <i name="PARAM2">      1.00000000</i>
   <i name="PARAM3">      0.00000000</i>
  </separator>
  <separator name="model GW" >
   <i type="int" name="MODEL_GW">     0</i>
   <i name="MODEL_EPS0">     10.87675695</i>
   <i name="MODEL_ALPHA">      1.00000000</i>
  </separator>
  <separator name="linear response parameters" >
   <i type="logical" name="LEPSILON"> F  </i>
   <i type="logical" name="LRPA"> F  </i>
   <i type="logical" name="LNABLA"> F  </i>
   <i type="logical" name="LVEL"> F  </i>
   <i type="int" name="KINTER">     0</i>
   <i name="CSHIFT">      0.10000000</i>
   <i name="OMEGAMAX">     -1.00000000</i>
  </separator>
  <separator name="orbital magnetization" >
   <i type="logical" name="NUCIND"> F  </i>
   <v name="MAGPOS">      0.00000000      0.00000000      0.00000000</v>
   <i type="logical" name="LNICSALL"> T  </i>
   <i type="logical" name="ORBITALMAG"> F  </i>
   <i type="logical" name="LMAGBLOCH"> F  </i>
   <i type="logical" name="LCHIMAG"> F  </i>
   <i type="logical" name="LGAUGE"> T  </i>
   <i type="int" name="MAGATOM">     0</i>
   <v name="MAGDIPOL">      0.00000000      0.00000000      0.00000000</v>
   <v name="AVECCONST">      0.00000000      0.00000000      0.00000000</v>
  </separator>
  <separator name="response functions" >
   <i type="logical" name="LADDER"> F  </i>
   <i type="logical" name="LHARTREE"> T  </i>
   <i type="int" name="IBSE">     0</i>
   <i type="logical" name="LTCTE"> F  </i>
   <i type="logical" name="LTETE"> F  </i>
   <i type="logical" name="LFXCEPS"> F  </i>
   <i type="logical" name="L2ORDER"> F  </i>
   <i type="logical" name="LUSEW"> F  </i>
   <i name="ENCUTGW">     -2.00000000</i>
   <i name="ENCUTGWSOFT">     -2.00000000</i>
   <i name="ENCUTLF">     -1.00000000</i>
   <i type="int" name="LMAXMP2">    -1</i>
   <i name="SCISSOR">      0.00000000</i>
   <i type="int" name="NOMEGA">     0</i>
   <i type="int" name="NOMEGAR">     0</i>
   <i type="int" name="NBANDSGW">    -1</i>
   <i type="int" name="NBANDSO">    -1</i>
   <i type="int" name="NBANDSV">    -1</i>
   <i name="OPTEMAX">      0.00000000</i>
   <i type="int" name="NELM">     1</i>
   <i type="int" name="DIM">     3</i>
   <i type="int" name="ANTIRES">     0</i>
   <i name="OMEGAMAX">    -30.00000000</i>
   <i name="OMEGATL">   -200.00000000</i>
   <i type="int" name="OMEGAGRID">     0</i>
   <i name="CSHIFT">     -0.10000000</i>
   <i type="logical" name="SELFENERGY"> F  </i>
   <i type="logical" name="LSPECTRAL"> F  </i>
   <i type="logical" name="ODDONLYGW"> F  </i>
   <i type="logical" name="EVENONLYGW"> F  </i>
   <i type="int" name="NKREDLFX">     1</i>
   <i type="int" name="NKREDLFY">     1</i>
   <i type="int" name="NKREDLFZ">     1</i>
   <i type="int" name="MAXMEM">  1800</i>
   <i type="int" name="TELESCOPE">     0</i>
  </separator>
 </parameters>
 <atominfo>
  <atoms>       1 </atoms>
  <types>       1 </types>
  <array name="atoms" >
   <dimension dim="1">ion</dimension>
   <field type="string">element</field>
   <field type="int">atomtype</field>
   <set>
    <rc><c>Ta</c><c>   1</c></rc>
   </set>
  </array>
  <array name="atomtypes" >
   <dimension dim="1">type</dimension>
   <field type="int">atomspertype</field>
   <field type="string">element</field>
   <field>mass</field>
   <field>valence</field>
   <field type="string">pseudopotential</field>
   <set>
    <rc><c>   1</c><c>Ta</c><c>    180.94800000</c><c>      5.00000000</c><c>  PAW_PBE Ta 17Jan2003                  </c></rc>
   </set>
  </array>
 </atominfo>
 <structure name="initialpos" >
  <crystal>
   <varray name="basis" >
    <v>       0.00000000       2.08500000       2.08500000 </v>
    <v>       2.08500000       0.00000000       2.08500000 </v>
    <v>       2.08500000       2.08500000       0.00000000 </v>
   </varray>
   <i name="volume">     18.12792825 </i>
   <varray name="rec_basis" >
    <v>      -0.23980815       0.23980815       0.23980815 </v>
    <v>       0.23980815      -0.23980815       0.23980815 </v>
    <v>       0.23980815       0.23980815      -0.23980815 </v>
   </varray>
  </crystal>
  <varray name="positions" >
   <v>       0.00000000       0.00000000       0.00000000 </v>
  </varray>
 </structure>
 <calculation>
  <scstep>
   <time name="dav">    0.65    0.65</time>
   <time name="total">    0.75    0.76</time>
   <energy>
    <i name="alphaZ">     30.59079297 </i>
    <i name="ewald">   -197.90479031 </i>
    <i name="hartreedc">     -2.54064926 </i>
    <i name="XCdc">    -60.72141178 </i>
    <i name="pawpsdc">    143.51874798 </i>
    <i name="pawaedc">    -69.33493833 </i>
    <i name="eentropy">     -0.00050854 </i>
    <i name="bandstr">     27.87688228 </i>
    <i name="atom">    130.57950032 </i>
    <i name="e_fr_energy">      2.06362532 </i>
    <i name="e_wo_entrp">      2.06413386 </i>
    <i name="e_0_energy">      2.06379483 </i>
   </energy>
  </scstep>
  <scstep>
   <time name="dav">    0.63    0.63</time>
   <time name="total">    0.63    0.64</time>
   <energy>
    <i name="e_fr_energy">     -1.93363169 </i>
    <i name="e_wo_entrp">     -1.93330808 </i>
    <i name="e_0_energy">     -1.93352382 </i>
   </energy>
  </scstep>
  <scstep>
   <time name="dav">    0.68    0.68</time>
   <time name="total">    0.69    0.70</time>
   <energy>
    <i name="e_fr_energy">     -1.98133038 </i>
    <i name="e_wo_entrp">     -1.98102200 </i>
    <i name="e_0_energy">     -1.98122758 </i>
   </energy>
  </scstep>
  <scstep>
   <time name="dav">    0.68    0.68</time>
   <time name="total">    0.69    0.69</time>
   <energy>
    <i name="e_fr_energy">     -1.98137164 </i>
    <i name="e_wo_entrp">     -1.98106339 </i>
    <i name="e_0_energy">     -1.98126889 </i>
   </energy>
  </scstep>
  <scstep>
   <time name="dav">    0.66    0.66</time>
   <time name="total">    0.72    0.74</time>
   <energy>
    <i name="e_fr_energy">     -1.98137165 </i>
    <i name="e_wo_entrp">     -1.98106341 </i>
    <i name="e_0_energy">     -1.98126890 </i>
   </energy>
  </scstep>
  <scstep>
   <time name="dav">    0.60    0.60</time>
   <time name="total">    0.76    0.80</time>
   <energy>
    <i name="e_fr_energy">    -11.32318157 </i>
    <i name="e_wo_entrp">    -11.32337984 </i>
    <i name="e_0_energy">    -11.32324766 </i>
   </energy>
  </scstep>
  <scstep>
   <time name="dav">    0.66    0.66</time>
   <time name="total">    0.80    0.82</time>
   <energy>
    <i name="e_fr_energy">    -11.45458653 </i>
    <i name="e_wo_entrp">    -11.45453989 </i>
    <i name="e_0_energy">    -11.45457098 </i>
   </energy>
  </scstep>
  <scstep>
   <time name="dav">    0.61    0.61</time>
   <time name="total">    0.75    0.76</time>
   <energy>
    <i name="e_fr_energy">    -11.37008732 </i>
    <i name="e_wo_entrp">    -11.36985259 </i>
    <i name="e_0_energy">    -11.37000908 </i>
   </energy>
  </scstep>
  <scstep>
   <time name="dav">    0.58    0.58</time>
   <time name="total">    0.72    0.74</time>
   <energy>
    <i name="e_fr_energy">    -11.60100741 </i>
    <i name="e_wo_entrp">    -11.60067802 </i>
    <i name="e_0_energy">    -11.60089761 </i>
   </energy>
  </scstep>
  <scstep>
   <time name="dav">    0.58    0.59</time>
   <time name="total">    0.72    0.75</time>
   <energy>
    <i name="e_fr_energy">    -11.61934707 </i>
    <i name="e_wo_entrp">    -11.61910782 </i>
    <i name="e_0_energy">    -11.61926732 </i>
   </energy>
  </scstep>
  <scstep>
   <time name="dav">    0.61    0.61</time>
   <time name="total">    0.75    0.76</time>
   <energy>
    <i name="e_fr_energy">    -11.61885361 </i>
    <i name="e_wo_entrp">    -11.61864936 </i>
    <i name="e_0_energy">    -11.61878553 </i>
   </energy>
  </scstep>
  <scstep>
   <time name="dav">    0.58    0.58</time>
   <time name="total">    0.72    0.74</time>
   <energy>
    <i name="e_fr_energy">    -11.61924580 </i>
    <i name="e_wo_entrp">    -11.61836716 </i>
    <i name="e_0_energy">    -11.61895292 </i>
   </energy>
  </scstep>
  <scstep>
   <time name="dav">    0.56    0.56</time>
   <time name="total">    0.66    0.67</time>
   <energy>
    <i name="alphaZ">     30.59079297 </i>
    <i name="ewald">   -197.90479031 </i>
    <i name="hartreedc">     -0.60829697 </i>
    <i name="XCdc">    -65.93221553 </i>
    <i name="pawpsdc">    193.20475499 </i>
    <i name="pawaedc">   -119.84937438 </i>
    <i name="eentropy">     -0.00088228 </i>
    <i name="bandstr">     18.30122707 </i>
    <i name="atom">    130.57950032 </i>
    <i name="e_fr_energy">    -11.61928413 </i>
    <i name="e_wo_entrp">    -11.61840185 </i>
    <i name="e_0_energy">    -11.61899003 </i>
   </energy>
  </scstep>
  <parameters_embedded>
   <separator name="dft+d2" >
    <i type="logical" name="LVDW"> F  </i>
   </separator>
  </parameters_embedded>
  <structure>
   <crystal>
    <varray name="basis" >
     <v>       0.00000000       2.08500000       2.08500000 </v>
     <v>       2.08500000       0.00000000       2.08500000 </v>
     <v>       2.08500000       2.08500000       0.00000000 </v>
    </varray>
    <i name="volume">     18.12792825 </i>
    <varray name="rec_basis" >
     <v>      -0.23980815       0.23980815       0.23980815 </v>
     <v>       0.23980815      -0.23980815       0.23980815 </v>
     <v>       0.23980815       0.23980815      -0.23980815 </v>
    </varray>
   </crystal>
   <varray name="positions" >
    <v>       0.00000000       0.00000000       0.00000000 </v>
   </varray>
  </structure>
  <varray name="forces" >
   <v>       0.00000000       0.00000000       0.00000000 </v>
  </varray>
  <varray name="stress" >
   <v>      30.77247361       0.00000000       0.00000000 </v>
   <v>       0.00000000      30.77247361       0.00000000 </v>
   <v>       0.00000000       0.00000000      30.77247361 </v>
  </varray>
  <energy>
   <i name="e_fr_energy">    -11.61928413 </i>
   <i name="e_wo_entrp">    -11.61899003 </i>
   <i name="e_0_energy">     -0.00088228 </i>
  </energy>
  <time name="totalsc">    9.96   10.24</time>
  <eigenvalues>
   <array>
    <dimension dim="1">band</dimension>
    <dimension dim="2">kpoint</dimension>
    <dimension dim="3">spin</dimension>
    <field>eigene</field>
    <field>occ</field>
    <set>
     <set comment="spin 1">
      <set comment="kpoint 1">
       <r>   -1.8870    1.0000 </r>
       <r>    6.2895    0.0000 </r>
       <r>    6.6866    0.0000 </r>
       <r>    6.6866    0.0000 </r>
       <r>    9.5415    0.0000 </r>
       <r>    9.5415    0.0000 </r>
       <r>   19.2589    0.0000 </r>
       <r>   19.7727    0.0000 </r>
       <r>   22.4103    0.0000 </r>
      </set>
      <set comment="kpoint 2">
       <r>   -0.5309    1.0000 </r>
       <r>    5.4109    1.0000 </r>
       <r>    6.9505    0.0000 </r>
       <r>    7.2178    0.0000 </r>
       <r>    8.7238    0.0000 </r>
       <r>   10.0633    0.0000 </r>
       <r>   19.7692    0.0000 </r>
       <r>   20.1603    0.0000 </r>
       <r>   21.9860    0.0000 </r>
      </set>
      <set comment="kpoint 3">
       <r>    1.3095    1.0000 </r>
       <r>    5.5649    1.0000 </r>
       <r>    6.3095    0.0000 </r>
       <r>    6.7467    0.0000 </r>
       <r>   10.3710    0.0000 </r>
       <r>   11.9383    0.0000 </r>
       <r>   17.7104    0.0000 </r>
       <r>   19.7757    0.0000 </r>
       <r>   20.6880    0.0000 </r>
      </set>
      <set comment="kpoint 4">
       <r>    1.5916    1.0000 </r>
       <r>    5.7835    1.0000 </r>
       <r>    6.5480    0.0000 </r>
       <r>    6.7285    0.0000 </r>
       <r>   12.1609    0.0000 </r>
       <r>   12.3443    0.0000 </r>
       <r>   16.4234    0.0000 </r>
       <r>   18.9337    0.0000 </r>
       <r>   19.7821    0.0000 </r>
      </set>
      <set comment="kpoint 5">
       <r>    0.8453    1.0000 </r>
       <r>    5.1630    1.0000 </r>
       <r>    6.5086    0.0000 </r>
       <r>    7.0446    0.0000 </r>
       <r>    9.9287    0.0000 </r>
       <r>   10.9855    0.0000 </r>
       <r>   18.4462    0.0000 </r>
       <r>   19.7787    0.0000 </r>
       <r>   22.2201    0.0000 </r>
      </set>
      <set comment="kpoint 6">
       <r>   -1.1707    1.0000 </r>
       <r>    5.6590    1.0000 </r>
       <r>    7.0263    0.0000 </r>
       <r>    7.0607    0.0000 </r>
       <r>    8.7135    0.0000 </r>
       <r>    9.8820    0.0000 </r>
       <r>   19.7724    0.0000 </r>
       <r>   20.6007    0.0000 </r>
       <r>   21.6112    0.0000 </r>
      </set>
      <set comment="kpoint 7">
       <r>    0.0917    1.0000 </r>
       <r>    4.7055    1.0000 </r>
       <r>    6.9867    0.0000 </r>
       <r>    7.8315    0.0000 </r>
       <r>    8.4084    0.0000 </r>
       <r>   10.5107    0.0000 </r>
       <r>   19.7743    0.0000 </r>
       <r>   21.4785    0.0000 </r>
       <r>   23.1711    0.0000 </r>
      </set>
      <set comment="kpoint 8">
       <r>    1.8752    1.0000 </r>
       <r>    4.1555    1.0000 </r>
       <r>    5.7056    1.0000 </r>
       <r>    8.4543    0.0000 </r>
       <r>    9.9002    0.0000 </r>
       <r>   12.2472    0.0000 </r>
       <r>   19.4956    0.0000 </r>
       <r>   19.8077    0.0000 </r>
       <r>   22.6885    0.0000 </r>
      </set>
      <set comment="kpoint 9">
       <r>    2.8315    1.0000 </r>
       <r>    4.3320    1.0000 </r>
       <r>    5.8461    1.0001 </r>
       <r>    7.8183    0.0000 </r>
       <r>   11.6917    0.0000 </r>
       <r>   14.1975    0.0000 </r>
       <r>   15.5379    0.0000 </r>
       <r>   19.7807    0.0000 </r>
       <r>   21.4935    0.0000 </r>
      </set>
      <set comment="kpoint 10">
       <r>    2.6041    1.0000 </r>
       <r>    4.7237    1.0000 </r>
       <r>    5.1226    1.0000 </r>
       <r>    7.9609    0.0000 </r>
       <r>    9.9068    0.0000 </r>
       <r>   13.4336    0.0000 </r>
       <r>   18.1680    0.0000 </r>
       <r>   19.7846    0.0000 </r>
       <r>   22.1192    0.0000 </r>
      </set>
      <set comment="kpoint 11">
       <r>    0.6131    1.0000 </r>
       <r>    4.8293    1.0000 </r>
       <r>    6.4970    0.0000 </r>
       <r>    7.6760    0.0000 </r>
       <r>    8.7607    0.0000 </r>
       <r>   11.0632    0.0000 </r>
       <r>   19.7619    0.0000 </r>
       <r>   20.0459    0.0000 </r>
       <r>   23.3654    0.0000 </r>
      </set>
      <set comment="kpoint 12">
       <r>    1.8338    1.0000 </r>
       <r>    3.1169    1.0000 </r>
       <r>    7.0316    0.0000 </r>
       <r>   10.3095    0.0000 </r>
       <r>   11.4340    0.0000 </r>
       <r>   12.0924    0.0000 </r>
       <r>   18.9676    0.0000 </r>
       <r>   19.7826    0.0000 </r>
       <r>   20.3461    0.0000 </r>
      </set>
      <set comment="kpoint 13">
       <r>    2.2832    1.0000 </r>
       <r>    3.2918    1.0000 </r>
       <r>    7.0426    0.0000 </r>
       <r>   10.1025    0.0000 </r>
       <r>   12.4242    0.0000 </r>
       <r>   14.7148    0.0000 </r>
       <r>   15.7914    0.0000 </r>
       <r>   18.8374    0.0000 </r>
       <r>   19.7820    0.0000 </r>
      </set>
      <set comment="kpoint 14">
       <r>    3.4020    1.0000 </r>
       <r>    3.9803    1.0000 </r>
       <r>    5.5792    1.0000 </r>
       <r>    8.5177    0.0000 </r>
       <r>   11.3276    0.0000 </r>
       <r>   13.8241    0.0000 </r>
       <r>   17.2213    0.0000 </r>
       <r>   19.7718    0.0000 </r>
       <r>   20.1347    0.0000 </r>
      </set>
      <set comment="kpoint 15">
       <r>    1.9990    1.0000 </r>
       <r>    5.1930    1.0000 </r>
       <r>    6.0039    0.3771 </r>
       <r>    7.0783    0.0000 </r>
       <r>   11.2282    0.0000 </r>
       <r>   12.9721    0.0000 </r>
       <r>   16.8678    0.0000 </r>
       <r>   19.7804    0.0000 </r>
       <r>   20.3303    0.0000 </r>
      </set>
      <set comment="kpoint 16">
       <r>    1.7021    1.0000 </r>
       <r>    2.7622    1.0000 </r>
       <r>    8.3868    0.0000 </r>
       <r>   11.4433    0.0000 </r>
       <r>   12.6315    0.0000 </r>
       <r>   13.1914    0.0000 </r>
       <r>   16.7639    0.0000 </r>
       <r>   18.4212    0.0000 </r>
       <r>   19.7228    0.0000 </r>
      </set>
      <set comment="kpoint 17">
       <r>    2.4151    1.0000 </r>
       <r>    3.5956    1.0000 </r>
       <r>    5.9742    0.8391 </r>
       <r>    9.4974    0.0000 </r>
       <r>   11.4170    0.0000 </r>
       <r>   13.3532    0.0000 </r>
       <r>   17.4741    0.0000 </r>
       <r>   19.7816    0.0000 </r>
       <r>   20.5563    0.0000 </r>
      </set>
      <set comment="kpoint 18">
       <r>    1.3854    1.0000 </r>
       <r>    3.7953    1.0000 </r>
       <r>    6.3358    0.0000 </r>
       <r>    8.9587    0.0000 </r>
       <r>    9.6698    0.0000 </r>
       <r>   11.3286    0.0000 </r>
       <r>   19.7734    0.0000 </r>
       <r>   21.3796    0.0000 </r>
       <r>   22.9341    0.0000 </r>
      </set>
      <set comment="kpoint 19">
       <r>   -0.0399    1.0000 </r>
       <r>    5.3691    1.0000 </r>
       <r>    6.9580    0.0000 </r>
       <r>    6.9580    0.0000 </r>
       <r>    9.7349    0.0000 </r>
       <r>    9.7349    0.0000 </r>
       <r>   18.7677    0.0000 </r>
       <r>   19.7779    0.0000 </r>
       <r>   22.6870    0.0000 </r>
      </set>
      <set comment="kpoint 20">
       <r>    1.5279    1.0000 </r>
       <r>    4.9090    1.0000 </r>
       <r>    5.9493    1.0184 </r>
       <r>    7.5477    0.0000 </r>
       <r>    8.9618    0.0000 </r>
       <r>   12.3297    0.0000 </r>
       <r>   19.2641    0.0000 </r>
       <r>   19.7911    0.0000 </r>
       <r>   22.3101    0.0000 </r>
      </set>
      <set comment="kpoint 21">
       <r>    3.1771    1.0000 </r>
       <r>    4.4302    1.0000 </r>
       <r>    5.3871    1.0000 </r>
       <r>    7.9865    0.0000 </r>
       <r>   10.3961    0.0000 </r>
       <r>   13.5847    0.0000 </r>
       <r>   17.7860    0.0000 </r>
       <r>   19.7826    0.0000 </r>
       <r>   20.9979    0.0000 </r>
      </set>
      <set comment="kpoint 22">
       <r>    2.5838    1.0000 </r>
       <r>    4.0116    1.0000 </r>
       <r>    5.8621    1.0005 </r>
       <r>    8.4486    0.0000 </r>
       <r>   12.3636    0.0000 </r>
       <r>   13.3329    0.0000 </r>
       <r>   16.0165    0.0000 </r>
       <r>   19.7814    0.0000 </r>
       <r>   22.2251    0.0000 </r>
      </set>
      <set comment="kpoint 23">
       <r>    1.8851    1.0000 </r>
       <r>    4.6747    1.0000 </r>
       <r>    5.8059    1.0000 </r>
       <r>    7.5654    0.0000 </r>
       <r>   11.2685    0.0000 </r>
       <r>   12.0409    0.0000 </r>
       <r>   17.9816    0.0000 </r>
       <r>   19.7828    0.0000 </r>
       <r>   21.3027    0.0000 </r>
      </set>
      <set comment="kpoint 24">
       <r>    3.3486    1.0000 </r>
       <r>    4.1695    1.0000 </r>
       <r>    4.9757    1.0000 </r>
       <r>    8.6378    0.0000 </r>
       <r>   11.1890    0.0000 </r>
       <r>   14.1484    0.0000 </r>
       <r>   17.0821    0.0000 </r>
       <r>   19.7796    0.0000 </r>
       <r>   20.3539    0.0000 </r>
      </set>
      <set comment="kpoint 25">
       <r>    3.1430    1.0000 </r>
       <r>    4.1853    1.0000 </r>
       <r>    5.5013    1.0000 </r>
       <r>    8.5870    0.0000 </r>
       <r>   12.3286    0.0000 </r>
       <r>   15.4620    0.0000 </r>
       <r>   16.1616    0.0000 </r>
       <r>   18.6527    0.0000 </r>
       <r>   19.7855    0.0000 </r>
      </set>
      <set comment="kpoint 26">
       <r>    2.6606    1.0000 </r>
       <r>    3.6967    1.0000 </r>
       <r>    6.4753    0.0000 </r>
       <r>    9.4122    0.0000 </r>
       <r>   11.8853    0.0000 </r>
       <r>   13.9146    0.0000 </r>
       <r>   16.1906    0.0000 </r>
       <r>   19.7724    0.0000 </r>
       <r>   20.4442    0.0000 </r>
      </set>
      <set comment="kpoint 27">
       <r>    1.2620    1.0000 </r>
       <r>    6.3790    0.0000 </r>
       <r>    6.4044    0.0000 </r>
       <r>    6.4044    0.0000 </r>
       <r>   11.6783    0.0000 </r>
       <r>   11.6783    0.0000 </r>
       <r>   16.9056    0.0000 </r>
       <r>   19.1842    0.0000 </r>
       <r>   19.7871    0.0000 </r>
      </set>
      <set comment="kpoint 28">
       <r>    2.3057    1.0000 </r>
       <r>    4.9429    1.0000 </r>
       <r>    6.2502    0.0000 </r>
       <r>    7.1462    0.0000 </r>
       <r>   11.5078    0.0000 </r>
       <r>   13.4884    0.0000 </r>
       <r>   16.1229    0.0000 </r>
       <r>   19.7815    0.0000 </r>
       <r>   20.5327    0.0000 </r>
      </set>
     </set>
     <set comment="spin 2">
      <set comment="kpoint 1">
       <r>   -1.8957    1.0000 </r>
       <r>    6.2822    0.0000 </r>
       <r>    6.6794    0.0000 </r>
       <r>    6.6794    0.0000 </r>
       <r>    9.5383    0.0000 </r>
       <r>    9.5383    0.0000 </r>
       <r>   19.2475    0.0000 </r>
       <r>   19.7595    0.0000 </r>
       <r>   22.4032    0.0000 </r>
      </set>
      <set comment="kpoint 2">
       <r>   -0.5395    1.0000 </r>
       <r>    5.4032    1.0000 </r>
       <r>    6.9440    0.0000 </r>
       <r>    7.2111    0.0000 </r>
       <r>    8.7200    0.0000 </r>
       <r>   10.0596    0.0000 </r>
       <r>   19.7561    0.0000 </r>
       <r>   20.1531    0.0000 </r>
       <r>   21.9762    0.0000 </r>
      </set>
      <set comment="kpoint 3">
       <r>    1.3008    1.0000 </r>
       <r>    5.5573    1.0000 </r>
       <r>    6.3036    0.0000 </r>
       <r>    6.7413    0.0000 </r>
       <r>   10.3662    0.0000 </r>
       <r>   11.9342    0.0000 </r>
       <r>   17.7044    0.0000 </r>
       <r>   19.7625    0.0000 </r>
       <r>   20.6795    0.0000 </r>
      </set>
      <set comment="kpoint 4">
       <r>    1.5828    1.0000 </r>
       <r>    5.7781    1.0000 </r>
       <r>    6.5426    0.0000 </r>
       <r>    6.7208    0.0000 </r>
       <r>   12.1570    0.0000 </r>
       <r>   12.3400    0.0000 </r>
       <r>   16.4176    0.0000 </r>
       <r>   18.9251    0.0000 </r>
       <r>   19.7687    0.0000 </r>
      </set>
      <set comment="kpoint 5">
       <r>    0.8367    1.0000 </r>
       <r>    5.1552    1.0000 </r>
       <r>    6.5030    0.0000 </r>
       <r>    7.0388    0.0000 </r>
       <r>    9.9236    0.0000 </r>
       <r>   10.9815    0.0000 </r>
       <r>   18.4399    0.0000 </r>
       <r>   19.7655    0.0000 </r>
       <r>   22.2119    0.0000 </r>
      </set>
      <set comment="kpoint 6">
       <r>   -1.1793    1.0000 </r>
       <r>    5.6514    1.0000 </r>
       <r>    7.0194    0.0000 </r>
       <r>    7.0537    0.0000 </r>
       <r>    8.7097    0.0000 </r>
       <r>    9.8789    0.0000 </r>
       <r>   19.7592    0.0000 </r>
       <r>   20.5901    0.0000 </r>
       <r>   21.6044    0.0000 </r>
      </set>
      <set comment="kpoint 7">
       <r>    0.0833    1.0000 </r>
       <r>    4.6976    1.0000 </r>
       <r>    6.9815    0.0000 </r>
       <r>    7.8248    0.0000 </r>
       <r>    8.4023    0.0000 </r>
       <r>   10.5077    0.0000 </r>
       <r>   19.7611    0.0000 </r>
       <r>   21.4724    0.0000 </r>
       <r>   23.1610    0.0000 </r>
      </set>
      <set comment="kpoint 8">
       <r>    1.8674    1.0000 </r>
       <r>    4.1474    1.0000 </r>
       <r>    5.6996    1.0000 </r>
       <r>    8.4489    0.0000 </r>
       <r>    9.8943    0.0000 </r>
       <r>   12.2433    0.0000 </r>
       <r>   19.4892    0.0000 </r>
       <r>   19.7946    0.0000 </r>
       <r>   22.6731    0.0000 </r>
      </set>
      <set comment="kpoint 9">
       <r>    2.8231    1.0000 </r>
       <r>    4.3266    1.0000 </r>
       <r>    5.8379    1.0000 </r>
       <r>    7.8134    0.0000 </r>
       <r>   11.6867    0.0000 </r>
       <r>   14.1921    0.0000 </r>
       <r>   15.5318    0.0000 </r>
       <r>   19.7674    0.0000 </r>
       <r>   21.4869    0.0000 </r>
      </set>
      <set comment="kpoint 10">
       <r>    2.5957    1.0000 </r>
       <r>    4.7165    1.0000 </r>
       <r>    5.1161    1.0000 </r>
       <r>    7.9563    0.0000 </r>
       <r>    9.9009    0.0000 </r>
       <r>   13.4293    0.0000 </r>
       <r>   18.1616    0.0000 </r>
       <r>   19.7712    0.0000 </r>
       <r>   22.1124    0.0000 </r>
      </set>
      <set comment="kpoint 11">
       <r>    0.6046    1.0000 </r>
       <r>    4.8213    1.0000 </r>
       <r>    6.4913    0.0000 </r>
       <r>    7.6700    0.0000 </r>
       <r>    8.7554    0.0000 </r>
       <r>   11.0593    0.0000 </r>
       <r>   19.7493    0.0000 </r>
       <r>   20.0394    0.0000 </r>
       <r>   23.3561    0.0000 </r>
      </set>
      <set comment="kpoint 12">
       <r>    1.8277    1.0000 </r>
       <r>    3.1086    1.0000 </r>
       <r>    7.0237    0.0000 </r>
       <r>   10.3044    0.0000 </r>
       <r>   11.4277    0.0000 </r>
       <r>   12.0892    0.0000 </r>
       <r>   18.9602    0.0000 </r>
       <r>   19.7693    0.0000 </r>
       <r>   20.3383    0.0000 </r>
      </set>
      <set comment="kpoint 13">
       <r>    2.2778    1.0000 </r>
       <r>    3.2836    1.0000 </r>
       <r>    7.0341    0.0000 </r>
       <r>   10.0986    0.0000 </r>
       <r>   12.4188    0.0000 </r>
       <r>   14.7086    0.0000 </r>
       <r>   15.7842    0.0000 </r>
       <r>   18.8299    0.0000 </r>
       <r>   19.7687    0.0000 </r>
      </set>
      <set comment="kpoint 14">
       <r>    3.3951    1.0000 </r>
       <r>    3.9736    1.0000 </r>
       <r>    5.5709    1.0000 </r>
       <r>    8.5134    0.0000 </r>
       <r>   11.3218    0.0000 </r>
       <r>   13.8172    0.0000 </r>
       <r>   17.2156    0.0000 </r>
       <r>   19.7589    0.0000 </r>
       <r>   20.1286    0.0000 </r>
      </set>
      <set comment="kpoint 15">
       <r>    1.9903    1.0000 </r>
       <r>    5.1874    1.0000 </r>
       <r>    5.9962    0.5058 </r>
       <r>    7.0731    0.0000 </r>
       <r>   11.2233    0.0000 </r>
       <r>   12.9679    0.0000 </r>
       <r>   16.8618    0.0000 </r>
       <r>   19.7671    0.0000 </r>
       <r>   20.3221    0.0000 </r>
      </set>
      <set comment="kpoint 16">
       <r>    1.6966    1.0000 </r>
       <r>    2.7538    1.0000 </r>
       <r>    8.3777    0.0000 </r>
       <r>   11.4403    0.0000 </r>
       <r>   12.6268    0.0000 </r>
       <r>   13.1856    0.0000 </r>
       <r>   16.7559    0.0000 </r>
       <r>   18.4129    0.0000 </r>
       <r>   19.7098    0.0000 </r>
      </set>
      <set comment="kpoint 17">
       <r>    2.4089    1.0000 </r>
       <r>    3.5876    1.0000 </r>
       <r>    5.9665    0.9200 </r>
       <r>    9.4928    0.0000 </r>
       <r>   11.4114    0.0000 </r>
       <r>   13.3484    0.0000 </r>
       <r>   17.4670    0.0000 </r>
       <r>   19.7683    0.0000 </r>
       <r>   20.5486    0.0000 </r>
      </set>
      <set comment="kpoint 18">
       <r>    1.3778    1.0000 </r>
       <r>    3.7872    1.0000 </r>
       <r>    6.3298    0.0000 </r>
       <r>    8.9526    0.0000 </r>
       <r>    9.6633    0.0000 </r>
       <r>   11.3256    0.0000 </r>
       <r>   19.7602    0.0000 </r>
       <r>   21.3733    0.0000 </r>
       <r>   22.9269    0.0000 </r>
      </set>
      <set comment="kpoint 19">
       <r>   -0.0485    1.0000 </r>
       <r>    5.3613    1.0000 </r>
       <r>    6.9518    0.0000 </r>
       <r>    6.9518    0.0000 </r>
       <r>    9.7307    0.0000 </r>
       <r>    9.7307    0.0000 </r>
       <r>   18.7607    0.0000 </r>
       <r>   19.7646    0.0000 </r>
       <r>   22.6781    0.0000 </r>
      </set>
      <set comment="kpoint 20">
       <r>    1.5194    1.0000 </r>
       <r>    4.9010    1.0000 </r>
       <r>    5.9436    1.0302 </r>
       <r>    7.5429    0.0000 </r>
       <r>    8.9560    0.0000 </r>
       <r>   12.3256    0.0000 </r>
       <r>   19.2585    0.0000 </r>
       <r>   19.7777    0.0000 </r>
       <r>   22.3010    0.0000 </r>
      </set>
      <set comment="kpoint 21">
       <r>    3.1685    1.0000 </r>
       <r>    4.4251    1.0000 </r>
       <r>    5.3789    1.0000 </r>
       <r>    7.9822    0.0000 </r>
       <r>   10.3902    0.0000 </r>
       <r>   13.5789    0.0000 </r>
       <r>   17.7806    0.0000 </r>
       <r>   19.7693    0.0000 </r>
       <r>   20.9914    0.0000 </r>
      </set>
      <set comment="kpoint 22">
       <r>    2.5765    1.0000 </r>
       <r>    4.0049    1.0000 </r>
       <r>    5.8542    1.0002 </r>
       <r>    8.4437    0.0000 </r>
       <r>   12.3597    0.0000 </r>
       <r>   13.3266    0.0000 </r>
       <r>   16.0100    0.0000 </r>
       <r>   19.7681    0.0000 </r>
       <r>   21.8654    0.0000 </r>
      </set>
      <set comment="kpoint 23">
       <r>    1.8768    1.0000 </r>
       <r>    4.6677    1.0000 </r>
       <r>    5.7994    1.0000 </r>
       <r>    7.5599    0.0000 </r>
       <r>   11.2629    0.0000 </r>
       <r>   12.0372    0.0000 </r>
       <r>   17.9756    0.0000 </r>
       <r>   19.7695    0.0000 </r>
       <r>   21.2948    0.0000 </r>
      </set>
      <set comment="kpoint 24">
       <r>    3.3421    1.0000 </r>
       <r>    4.1624    1.0000 </r>
       <r>    4.9676    1.0000 </r>
       <r>    8.6334    0.0000 </r>
       <r>   11.1831    0.0000 </r>
       <r>   14.1426    0.0000 </r>
       <r>   17.0759    0.0000 </r>
       <r>   19.7663    0.0000 </r>
       <r>   20.3467    0.0000 </r>
      </set>
      <set comment="kpoint 25">
       <r>    3.1379    1.0000 </r>
       <r>    4.1771    1.0000 </r>
       <r>    5.4929    1.0000 </r>
       <r>    8.5823    0.0000 </r>
       <r>   12.3231    0.0000 </r>
       <r>   15.4558    0.0000 </r>
       <r>   16.1544    0.0000 </r>
       <r>   18.6458    0.0000 </r>
       <r>   19.7721    0.0000 </r>
      </set>
      <set comment="kpoint 26">
       <r>    2.6545    1.0000 </r>
       <r>    3.6892    1.0000 </r>
       <r>    6.4669    0.0000 </r>
       <r>    9.4082    0.0000 </r>
       <r>   11.8801    0.0000 </r>
       <r>   13.9066    0.0000 </r>
       <r>   16.1847    0.0000 </r>
       <r>   19.7595    0.0000 </r>
       <r>   20.4396    0.0000 </r>
      </set>
      <set comment="kpoint 27">
       <r>    1.2532    1.0000 </r>
       <r>    6.3713    0.0000 </r>
       <r>    6.3989    0.0000 </r>
       <r>    6.3989    0.0000 </r>
       <r>   11.6742    0.0000 </r>
       <r>   11.6742    0.0000 </r>
       <r>   16.8995    0.0000 </r>
       <r>   19.1759    0.0000 </r>
       <r>   19.7737    0.0000 </r>
      </set>
      <set comment="kpoint 28">
       <r>    2.2969    1.0000 </r>
       <r>    4.9377    1.0000 </r>
       <r>    6.2421    0.0000 </r>
       <r>    7.1412    0.0000 </r>
       <r>   11.5032    0.0000 </r>
       <r>   13.4835    0.0000 </r>
       <r>   16.1170    0.0000 </r>
       <r>   19.7682    0.0000 </r>
       <r>   20.5249    0.0000 </r>
      </set>
     </set>
    </set>
   </array>
  </eigenvalues>
  <separator name="orbital magnetization" >
   <v name="MAGDIPOLOUT">      0.00000000      0.00000000      0.00000000</v>
  </separator>
  <dos>
   <i name="efermi">      5.99651772 </i>
   <total>
    <array>
     <dimension dim="1">gridpoints</dimension>
     <dimension dim="2">spin</dimension>
     <field>energy</field>
     <field>total</field>
     <field>integrated</field>
     <set>
      <set comment="spin 1">
       <r>    -3.1587     0.0000     0.0000 </r>
       <r>    -3.0661     0.0000     0.0000 </r>
       <r>    -2.9735     0.0000     0.0000 </r>
       <r>    -2.8809     0.0000     0.0000 </r>
       <r>    -2.7882     0.0000     0.0000 </r>
       <r>    -2.6956     0.0000     0.0000 </r>
       <r>    -2.6030     0.0000     0.0000 </r>
       <r>    -2.5104     0.0000     0.0000 </r>
       <r>    -2.4178     0.0000     0.0000 </r>
       <r>    -2.3251     0.0000     0.0000 </r>
       <r>    -2.2325     0.0000     0.0000 </r>
       <r>    -2.1399     0.0000     0.0000 </r>
       <r>    -2.0473     0.0000     0.0000 </r>
       <r>    -1.9546    -0.0033    -0.0003 </r>
       <r>    -1.8620     0.0903     0.0081 </r>
       <r>    -1.7694     0.0132     0.0093 </r>
       <r>    -1.6768    -0.0002     0.0093 </r>
       <r>    -1.5841     0.0000     0.0093 </r>
       <r>    -1.4915     0.0000     0.0093 </r>
       <r>    -1.3989     0.0000     0.0093 </r>
       <r>    -1.3063    -0.0001     0.0092 </r>
       <r>    -1.2136    -0.0010     0.0092 </r>
       <r>    -1.1210     0.3083     0.0377 </r>
       <r>    -1.0284    -0.0073     0.0370 </r>
       <r>    -0.9358    -0.0001     0.0370 </r>
       <r>    -0.8431     0.0000     0.0370 </r>
       <r>    -0.7505     0.0000     0.0370 </r>
       <r>    -0.6579    -0.0003     0.0370 </r>
       <r>    -0.5653     0.0137     0.0383 </r>
       <r>    -0.4726     0.2970     0.0658 </r>
       <r>    -0.3800    -0.0104     0.0648 </r>
       <r>    -0.2874     0.0000     0.0648 </r>
       <r>    -0.1948     0.0000     0.0648 </r>
       <r>    -0.1022    -0.0035     0.0645 </r>
       <r>    -0.0095     0.0936     0.0732 </r>
       <r>     0.0831     0.1169     0.0840 </r>
       <r>     0.1757     0.1987     0.1024 </r>
       <r>     0.2683    -0.0058     0.1019 </r>
       <r>     0.3610     0.0000     0.1019 </r>
       <r>     0.4536     0.0000     0.1019 </r>
       <r>     0.5462    -0.0202     0.1000 </r>
       <r>     0.6388     0.5469     0.1506 </r>
       <r>     0.7315     0.0735     0.1574 </r>
       <r>     0.8241     0.0518     0.1622 </r>
       <r>     0.9167     0.2570     0.1860 </r>
       <r>     1.0093    -0.0092     0.1852 </r>
       <r>     1.1020     0.0000     0.1852 </r>
       <r>     1.1946    -0.0042     0.1848 </r>
       <r>     1.2872     0.1371     0.1975 </r>
       <r>     1.3798     0.3986     0.2344 </r>
       <r>     1.4725     0.1628     0.2495 </r>
       <r>     1.5651     0.3316     0.2802 </r>
       <r>     1.6577     0.2814     0.3063 </r>
       <r>     1.7503     0.2917     0.3333 </r>
       <r>     1.8430     0.2326     0.3548 </r>
       <r>     1.9356     0.9776     0.4454 </r>
       <r>     2.0282     0.5377     0.4952 </r>
       <r>     2.1208     0.0529     0.5001 </r>
       <r>     2.2134    -0.0239     0.4979 </r>
       <r>     2.3061     0.6799     0.5608 </r>
       <r>     2.3987     0.3913     0.5971 </r>
       <r>     2.4913     0.4616     0.6398 </r>
       <r>     2.5839     0.2455     0.6626 </r>
       <r>     2.6766     0.8869     0.7447 </r>
       <r>     2.7692     0.2222     0.7653 </r>
       <r>     2.8618     0.6905     0.8293 </r>
       <r>     2.9544     0.0447     0.8334 </r>
       <r>     3.0471    -0.0168     0.8319 </r>
       <r>     3.1397     0.5425     0.8821 </r>
       <r>     3.2323     0.6700     0.9442 </r>
       <r>     3.3249     0.6414     1.0036 </r>
       <r>     3.4176     1.0313     1.0991 </r>
       <r>     3.5102     0.1215     1.1104 </r>
       <r>     3.6028     0.3764     1.1452 </r>
       <r>     3.6954     0.3774     1.1802 </r>
       <r>     3.7881     0.2715     1.2053 </r>
       <r>     3.8807     0.1827     1.2223 </r>
       <r>     3.9733     0.2354     1.2441 </r>
       <r>     4.0659     0.6705     1.3062 </r>
       <r>     4.1586     0.5828     1.3601 </r>
       <r>     4.2512     1.2364     1.4747 </r>
       <r>     4.3438     0.3849     1.5103 </r>
       <r>     4.4364     0.3734     1.5449 </r>
       <r>     4.5290     0.1176     1.5558 </r>
       <r>     4.6217    -0.0217     1.5538 </r>
       <r>     4.7143     0.7137     1.6199 </r>
       <r>     4.8069     0.6134     1.6767 </r>
       <r>     4.8995     0.5957     1.7319 </r>
       <r>     4.9922     0.9659     1.8213 </r>
       <r>     5.0848     0.1352     1.8339 </r>
       <r>     5.1774     0.9831     1.9249 </r>
       <r>     5.2700     0.5262     1.9737 </r>
       <r>     5.3627     0.0579     1.9790 </r>
       <r>     5.4553     0.6300     2.0374 </r>
       <r>     5.5479     0.7154     2.1036 </r>
       <r>     5.6405     0.8523     2.1826 </r>
       <r>     5.7332     0.7558     2.2526 </r>
       <r>     5.8258     0.7364     2.3208 </r>
       <r>     5.9184     0.8551     2.4000 </r>
       <r>     6.0110     1.2453     2.5153 </r>
       <r>     6.1037     0.2395     2.5375 </r>
       <r>     6.1963    -0.0169     2.5360 </r>
       <r>     6.2889     0.4029     2.5733 </r>
       <r>     6.3815     0.7030     2.6384 </r>
       <r>     6.4741     0.4545     2.6805 </r>
       <r>     6.5668     1.2219     2.7937 </r>
       <r>     6.6594     0.0363     2.7970 </r>
       <r>     6.7520     0.6316     2.8555 </r>
       <r>     6.8446     0.1615     2.8705 </r>
       <r>     6.9373     0.0997     2.8797 </r>
       <r>     7.0299     1.2853     2.9988 </r>
       <r>     7.1225     1.8971     3.1745 </r>
       <r>     7.2151     0.3618     3.2080 </r>
       <r>     7.3078     0.1579     3.2226 </r>
       <r>     7.4004    -0.0044     3.2222 </r>
       <r>     7.4930    -0.0186     3.2205 </r>
       <r>     7.5856     0.5476     3.2712 </r>
       <r>     7.6783     0.3951     3.3078 </r>
       <r>     7.7709     0.2603     3.3319 </r>
       <r>     7.8635     0.8976     3.4150 </r>
       <r>     7.9561     0.2928     3.4422 </r>
       <r>     8.0488     0.6446     3.5019 </r>
       <r>     8.1414    -0.0203     3.5000 </r>
       <r>     8.2340     0.0000     3.5000 </r>
       <r>     8.3266    -0.0180     3.4983 </r>
       <r>     8.4193     0.5482     3.5491 </r>
       <r>     8.5119     1.2273     3.6628 </r>
       <r>     8.6045     0.8476     3.7413 </r>
       <r>     8.6971     0.8012     3.8155 </r>
       <r>     8.7897     1.0571     3.9134 </r>
       <r>     8.8824     0.0209     3.9154 </r>
       <r>     8.9750     0.4563     3.9576 </r>
       <r>     9.0676     0.1604     3.9725 </r>
       <r>     9.1602    -0.0029     3.9722 </r>
       <r>     9.2529     0.0000     3.9722 </r>
       <r>     9.3455    -0.0102     3.9713 </r>
       <r>     9.4381     0.2518     3.9946 </r>
       <r>     9.5307     0.6918     4.0587 </r>
       <r>     9.6234     0.1656     4.0740 </r>
       <r>     9.7160     0.3459     4.1061 </r>
       <r>     9.8086     0.1379     4.1188 </r>
       <r>     9.9012     0.8419     4.1968 </r>
       <r>     9.9939     0.9905     4.2885 </r>
       <r>    10.0865     0.3846     4.3242 </r>
       <r>    10.1791     0.5151     4.3719 </r>
       <r>    10.2717    -0.0125     4.3707 </r>
       <r>    10.3644     0.4418     4.4116 </r>
       <r>    10.4570     0.4608     4.4543 </r>
       <r>    10.5496     0.2886     4.4811 </r>
       <r>    10.6422     0.0048     4.4815 </r>
       <r>    10.7349    -0.0002     4.4815 </r>
       <r>    10.8275     0.0000     4.4815 </r>
       <r>    10.9201    -0.0105     4.4805 </r>
       <r>    11.0127     0.2628     4.5049 </r>
       <r>    11.1053     0.6353     4.5637 </r>
       <r>    11.1980     0.4391     4.6044 </r>
       <r>    11.2906     1.0707     4.7035 </r>
       <r>    11.3832     0.9422     4.7908 </r>
       <r>    11.4758     1.1812     4.9002 </r>
       <r>    11.5685     0.2872     4.9268 </r>
       <r>    11.6611     0.0805     4.9343 </r>
       <r>    11.7537     0.7362     5.0025 </r>
       <r>    11.8463    -0.0257     5.0001 </r>
       <r>    11.9390     0.4597     5.0426 </r>
       <r>    12.0316     0.2358     5.0645 </r>
       <r>    12.1242     0.4979     5.1106 </r>
       <r>    12.2168     0.3584     5.1438 </r>
       <r>    12.3095     0.7454     5.2128 </r>
       <r>    12.4021     1.4301     5.3453 </r>
       <r>    12.4947     0.4896     5.3906 </r>
       <r>    12.5873    -0.0214     5.3887 </r>
       <r>    12.6800     0.3089     5.4173 </r>
       <r>    12.7726    -0.0064     5.4167 </r>
       <r>    12.8652    -0.0031     5.4164 </r>
       <r>    12.9578     0.1646     5.4316 </r>
       <r>    13.0505     0.4529     5.4736 </r>
       <r>    13.1431    -0.0211     5.4716 </r>
       <r>    13.2357     0.3048     5.4999 </r>
       <r>    13.3283     0.2037     5.5187 </r>
       <r>    13.4209     0.8880     5.6010 </r>
       <r>    13.5136     0.6752     5.6635 </r>
       <r>    13.6062     0.2833     5.6898 </r>
       <r>    13.6988     0.0507     5.6945 </r>
       <r>    13.7914     0.0341     5.6976 </r>
       <r>    13.8841     0.6094     5.7541 </r>
       <r>    13.9767     0.2667     5.7788 </r>
       <r>    14.0693    -0.0255     5.7764 </r>
       <r>    14.1619     0.4687     5.8198 </r>
       <r>    14.2546     0.7694     5.8911 </r>
       <r>    14.3472    -0.0236     5.8889 </r>
       <r>    14.4398    -0.0001     5.8889 </r>
       <r>    14.5324     0.0000     5.8889 </r>
       <r>    14.6251    -0.0088     5.8881 </r>
       <r>    14.7177     0.3377     5.9194 </r>
       <r>    14.8103     0.2772     5.9450 </r>
       <r>    14.9029    -0.0063     5.9444 </r>
       <r>    14.9956     0.0000     5.9444 </r>
       <r>    15.0882     0.0000     5.9444 </r>
       <r>    15.1808     0.0000     5.9444 </r>
       <r>    15.2734     0.0000     5.9444 </r>
       <r>    15.3661    -0.0062     5.9439 </r>
       <r>    15.4587     0.2584     5.9678 </r>
       <r>    15.5513     0.7869     6.0407 </r>
       <r>    15.6439     0.1636     6.0558 </r>
       <r>    15.7365    -0.0226     6.0538 </r>
       <r>    15.8292     0.6060     6.1099 </r>
       <r>    15.9218     0.0104     6.1108 </r>
       <r>    16.0144     0.1407     6.1239 </r>
       <r>    16.1070     0.2146     6.1438 </r>
       <r>    16.1997     1.0378     6.2399 </r>
       <r>    16.2923     0.1116     6.2502 </r>
       <r>    16.3849     0.0031     6.2505 </r>
       <r>    16.4775     0.3039     6.2787 </r>
       <r>    16.5702    -0.0095     6.2778 </r>
       <r>    16.6628    -0.0023     6.2776 </r>
       <r>    16.7554     0.1075     6.2875 </r>
       <r>    16.8480     0.3121     6.3164 </r>
       <r>    16.9407     0.5958     6.3716 </r>
       <r>    17.0333    -0.0270     6.3691 </r>
       <r>    17.1259     0.6110     6.4257 </r>
       <r>    17.2185     0.2746     6.4512 </r>
       <r>    17.3112     0.3360     6.4823 </r>
       <r>    17.4038    -0.0276     6.4797 </r>
       <r>    17.4964     0.5219     6.5281 </r>
       <r>    17.5890     0.0979     6.5371 </r>
       <r>    17.6816     0.0244     6.5394 </r>
       <r>    17.7743     0.3770     6.5743 </r>
       <r>    17.8669     0.2030     6.5931 </r>
       <r>    17.9595     0.0432     6.5971 </r>
       <r>    18.0521     0.2588     6.6211 </r>
       <r>    18.1448     0.0822     6.6287 </r>
       <r>    18.2374     0.5290     6.6777 </r>
       <r>    18.3300    -0.0241     6.6755 </r>
       <r>    18.4226     0.2060     6.6946 </r>
       <r>    18.5153     0.4115     6.7327 </r>
       <r>    18.6079    -0.0194     6.7309 </r>
       <r>    18.7005     0.6146     6.7878 </r>
       <r>    18.7931     0.0739     6.7947 </r>
       <r>    18.8858     0.6180     6.8519 </r>
       <r>    18.9784     0.5059     6.8988 </r>
       <r>    19.0710     0.0950     6.9076 </r>
       <r>    19.1636     0.0132     6.9088 </r>
       <r>    19.2563     0.2444     6.9314 </r>
       <r>    19.3489     0.2475     6.9544 </r>
       <r>    19.4415    -0.0260     6.9519 </r>
       <r>    19.5341     0.6080     7.0083 </r>
       <r>    19.6268     0.0071     7.0089 </r>
       <r>    19.7194    -0.1873     6.9916 </r>
       <r>    19.8120    10.1417     7.9309 </r>
       <r>    19.9046     0.8633     8.0109 </r>
       <r>    19.9972    -0.0311     8.0080 </r>
       <r>    20.0899     0.6019     8.0638 </r>
       <r>    20.1825     0.8745     8.1448 </r>
       <r>    20.2751    -0.0060     8.1442 </r>
       <r>    20.3677     1.3038     8.2650 </r>
       <r>    20.4604     0.4548     8.3071 </r>
       <r>    20.5530     0.5889     8.3616 </r>
       <r>    20.6456     0.7069     8.4271 </r>
       <r>    20.7382     0.2948     8.4544 </r>
       <r>    20.8309    -0.0077     8.4537 </r>
       <r>    20.9235    -0.0085     8.4529 </r>
       <r>    21.0161     0.2443     8.4756 </r>
       <r>    21.1087     0.0651     8.4816 </r>
       <r>    21.2014    -0.0033     8.4813 </r>
       <r>    21.2940     0.1032     8.4908 </r>
       <r>    21.3866     0.3829     8.5263 </r>
       <r>    21.4792     0.4332     8.5664 </r>
       <r>    21.5719     0.6047     8.6224 </r>
       <r>    21.6645     0.2868     8.6490 </r>
       <r>    21.7571    -0.0091     8.6482 </r>
       <r>    21.8497    -0.0002     8.6481 </r>
       <r>    21.9424    -0.0019     8.6480 </r>
       <r>    22.0350     0.2972     8.6755 </r>
       <r>    22.1276     0.3816     8.7108 </r>
       <r>    22.2202     0.4991     8.7571 </r>
       <r>    22.3128     0.4950     8.8029 </r>
       <r>    22.4055     0.1735     8.8190 </r>
       <r>    22.4981     0.0566     8.8242 </r>
       <r>    22.5907    -0.0082     8.8235 </r>
       <r>    22.6833     0.2982     8.8511 </r>
       <r>    22.7760     0.4194     8.8899 </r>
       <r>    22.8686    -0.0217     8.8879 </r>
       <r>    22.9612     0.2779     8.9137 </r>
       <r>    23.0538     0.0322     8.9167 </r>
       <r>    23.1465     0.0403     8.9204 </r>
       <r>    23.2391     0.2691     8.9453 </r>
       <r>    23.3317     0.0205     8.9472 </r>
       <r>    23.4243     0.5911     9.0020 </r>
       <r>    23.5170    -0.0210     9.0000 </r>
       <r>    23.6096     0.0000     9.0000 </r>
       <r>    23.7022     0.0000     9.0000 </r>
       <r>    23.7948     0.0000     9.0000 </r>
       <r>    23.8875     0.0000     9.0000 </r>
       <r>    23.9801     0.0000     9.0000 </r>
       <r>    24.0727     0.0000     9.0000 </r>
       <r>    24.1653     0.0000     9.0000 </r>
       <r>    24.2580     0.0000     9.0000 </r>
       <r>    24.3506     0.0000     9.0000 </r>
       <r>    24.4432     0.0000     9.0000 </r>
       <r>    24.5358     0.0000     9.0000 </r>
       <r>    24.6284     0.0000     9.0000 </r>
      </set>
      <set comment="spin 2">
       <r>    -3.1587     0.0000     0.0000 </r>
       <r>    -3.0661     0.0000     0.0000 </r>
       <r>    -2.9735     0.0000     0.0000 </r>
       <r>    -2.8809     0.0000     0.0000 </r>
       <r>    -2.7882     0.0000     0.0000 </r>
       <r>    -2.6956     0.0000     0.0000 </r>
       <r>    -2.6030     0.0000     0.0000 </r>
       <r>    -2.5104     0.0000     0.0000 </r>
       <r>    -2.4178     0.0000     0.0000 </r>
       <r>    -2.3251     0.0000     0.0000 </r>
       <r>    -2.2325     0.0000     0.0000 </r>
       <r>    -2.1399     0.0000     0.0000 </r>
       <r>    -2.0473     0.0000     0.0000 </r>
       <r>    -1.9546    -0.0035    -0.0003 </r>
       <r>    -1.8620     0.0985     0.0088 </r>
       <r>    -1.7694     0.0051     0.0093 </r>
       <r>    -1.6768    -0.0001     0.0093 </r>
       <r>    -1.5841     0.0000     0.0093 </r>
       <r>    -1.4915     0.0000     0.0093 </r>
       <r>    -1.3989     0.0000     0.0093 </r>
       <r>    -1.3063    -0.0003     0.0092 </r>
       <r>    -1.2136     0.0137     0.0105 </r>
       <r>    -1.1210     0.2969     0.0380 </r>
       <r>    -1.0284    -0.0104     0.0370 </r>
       <r>    -0.9358     0.0000     0.0370 </r>
       <r>    -0.8431     0.0000     0.0370 </r>
       <r>    -0.7505     0.0000     0.0370 </r>
       <r>    -0.6579    -0.0006     0.0370 </r>
       <r>    -0.5653     0.0371     0.0404 </r>
       <r>    -0.4726     0.2736     0.0658 </r>
       <r>    -0.3800    -0.0101     0.0648 </r>
       <r>    -0.2874     0.0000     0.0648 </r>
       <r>    -0.1948     0.0000     0.0648 </r>
       <r>    -0.1022    -0.0031     0.0645 </r>
       <r>    -0.0095     0.0978     0.0736 </r>
       <r>     0.0831     0.1541     0.0879 </r>
       <r>     0.1757     0.1549     0.1022 </r>
       <r>     0.2683    -0.0038     0.1019 </r>
       <r>     0.3610     0.0000     0.1019 </r>
       <r>     0.4536     0.0000     0.1018 </r>
       <r>     0.5462    -0.0209     0.0999 </r>
       <r>     0.6388     0.5933     0.1549 </r>
       <r>     0.7315     0.0264     0.1573 </r>
       <r>     0.8241     0.0891     0.1656 </r>
       <r>     0.9167     0.2188     0.1858 </r>
       <r>     1.0093    -0.0069     0.1852 </r>
       <r>     1.1020     0.0000     0.1852 </r>
       <r>     1.1946    -0.0051     0.1847 </r>
       <r>     1.2872     0.1799     0.2014 </r>
       <r>     1.3798     0.3923     0.2377 </r>
       <r>     1.4725     0.1296     0.2497 </r>
       <r>     1.5651     0.3728     0.2842 </r>
       <r>     1.6577     0.2432     0.3068 </r>
       <r>     1.7503     0.2868     0.3333 </r>
       <r>     1.8430     0.3196     0.3629 </r>
       <r>     1.9356     0.8922     0.4456 </r>
       <r>     2.0282     0.5747     0.4988 </r>
       <r>     2.1208     0.0132     0.5000 </r>
       <r>     2.2134    -0.0273     0.4975 </r>
       <r>     2.3061     0.7607     0.5680 </r>
       <r>     2.3987     0.3681     0.6021 </r>
       <r>     2.4913     0.4010     0.6392 </r>
       <r>     2.5839     0.3585     0.6724 </r>
       <r>     2.6766     0.7967     0.7462 </r>
       <r>     2.7692     0.2470     0.7691 </r>
       <r>     2.8618     0.6850     0.8325 </r>
       <r>     2.9544     0.0091     0.8334 </r>
       <r>     3.0471    -0.0197     0.8315 </r>
       <r>     3.1397     0.6432     0.8911 </r>
       <r>     3.2323     0.5745     0.9443 </r>
       <r>     3.3249     0.7169     1.0107 </r>
       <r>     3.4176     1.0048     1.1038 </r>
       <r>     3.5102     0.0654     1.1098 </r>
       <r>     3.6028     0.4553     1.1520 </r>
       <r>     3.6954     0.3383     1.1834 </r>
       <r>     3.7881     0.2767     1.2090 </r>
       <r>     3.8807     0.1388     1.2218 </r>
       <r>     3.9733     0.3212     1.2516 </r>
       <r>     4.0659     0.5798     1.3053 </r>
       <r>     4.1586     0.7988     1.3793 </r>
       <r>     4.2512     1.0172     1.4735 </r>
       <r>     4.3438     0.4429     1.5145 </r>
       <r>     4.4364     0.3516     1.5471 </r>
       <r>     4.5290     0.0932     1.5557 </r>
       <r>     4.6217    -0.0208     1.5538 </r>
       <r>     4.7143     0.8278     1.6305 </r>
       <r>     4.8069     0.5571     1.6821 </r>
       <r>     4.8995     0.5771     1.7355 </r>
       <r>     4.9922     0.9879     1.8270 </r>
       <r>     5.0848     0.0971     1.8360 </r>
       <r>     5.1774     1.0437     1.9327 </r>
       <r>     5.2700     0.4373     1.9732 </r>
       <r>     5.3627     0.1158     1.9839 </r>
       <r>     5.4553     0.6014     2.0396 </r>
       <r>     5.5479     0.7841     2.1122 </r>
       <r>     5.6405     0.7881     2.1852 </r>
       <r>     5.7332     0.7577     2.2554 </r>
       <r>     5.8258     0.8214     2.3315 </r>
       <r>     5.9184     0.7550     2.4014 </r>
       <r>     6.0110     1.3236     2.5240 </r>
       <r>     6.1037     0.1434     2.5373 </r>
       <r>     6.1963    -0.0107     2.5363 </r>
       <r>     6.2889     0.4514     2.5781 </r>
       <r>     6.3815     0.6764     2.6408 </r>
       <r>     6.4741     0.5257     2.6895 </r>
       <r>     6.5668     1.1402     2.7951 </r>
       <r>     6.6594     0.0347     2.7983 </r>
       <r>     6.7520     0.6662     2.8600 </r>
       <r>     6.8446     0.1106     2.8703 </r>
       <r>     6.9373     0.1471     2.8839 </r>
       <r>     7.0299     1.4562     3.0188 </r>
       <r>     7.1225     1.6983     3.1761 </r>
       <r>     7.2151     0.3777     3.2111 </r>
       <r>     7.3078     0.1236     3.2225 </r>
       <r>     7.4004    -0.0030     3.2222 </r>
       <r>     7.4930    -0.0175     3.2206 </r>
       <r>     7.5856     0.5702     3.2734 </r>
       <r>     7.6783     0.4303     3.3133 </r>
       <r>     7.7709     0.2109     3.3328 </r>
       <r>     7.8635     0.9078     3.4169 </r>
       <r>     7.9561     0.3316     3.4476 </r>
       <r>     8.0488     0.5836     3.5016 </r>
       <r>     8.1414    -0.0177     3.5000 </r>
       <r>     8.2340    -0.0001     3.5000 </r>
       <r>     8.3266    -0.0178     3.4983 </r>
       <r>     8.4193     0.6315     3.5568 </r>
       <r>     8.5119     1.1830     3.6664 </r>
       <r>     8.6045     0.8650     3.7465 </r>
       <r>     8.6971     0.7733     3.8182 </r>
       <r>     8.7897     1.0531     3.9157 </r>
       <r>     8.8824    -0.0073     3.9150 </r>
       <r>     8.9750     0.5087     3.9622 </r>
       <r>     9.0676     0.1105     3.9724 </r>
       <r>     9.1602    -0.0019     3.9722 </r>
       <r>     9.2529     0.0000     3.9722 </r>
       <r>     9.3455    -0.0107     3.9712 </r>
       <r>     9.4381     0.2653     3.9958 </r>
       <r>     9.5307     0.7074     4.0613 </r>
       <r>     9.6234     0.1438     4.0746 </r>
       <r>     9.7160     0.3551     4.1075 </r>
       <r>     9.8086     0.1150     4.1182 </r>
       <r>     9.9012     0.9965     4.2105 </r>
       <r>     9.9939     0.8353     4.2878 </r>
       <r>    10.0865     0.4387     4.3285 </r>
       <r>    10.1791     0.4660     4.3716 </r>
       <r>    10.2717    -0.0006     4.3716 </r>
       <r>    10.3644     0.4741     4.4155 </r>
       <r>    10.4570     0.4188     4.4543 </r>
       <r>    10.5496     0.2933     4.4815 </r>
       <r>    10.6422     0.0003     4.4815 </r>
       <r>    10.7349    -0.0001     4.4815 </r>
       <r>    10.8275     0.0000     4.4815 </r>
       <r>    10.9201    -0.0108     4.4805 </r>
       <r>    11.0127     0.2798     4.5064 </r>
       <r>    11.1053     0.6235     4.5642 </r>
       <r>    11.1980     0.5156     4.6119 </r>
       <r>    11.2906     1.0361     4.7079 </r>
       <r>    11.3832     0.9311     4.7941 </r>
       <r>    11.4758     1.1712     4.9026 </r>
       <r>    11.5685     0.2602     4.9267 </r>
       <r>    11.6611     0.1227     4.9381 </r>
       <r>    11.7537     0.6932     5.0023 </r>
       <r>    11.8463    -0.0147     5.0009 </r>
       <r>    11.9390     0.4717     5.0446 </r>
       <r>    12.0316     0.2320     5.0661 </r>
       <r>    12.1242     0.4950     5.1119 </r>
       <r>    12.2168     0.3655     5.1458 </r>
       <r>    12.3095     0.7976     5.2197 </r>
       <r>    12.4021     1.4004     5.3494 </r>
       <r>    12.4947     0.4427     5.3904 </r>
       <r>    12.5873    -0.0123     5.3892 </r>
       <r>    12.6800     0.3053     5.4175 </r>
       <r>    12.7726    -0.0091     5.4167 </r>
       <r>    12.8652    -0.0041     5.4163 </r>
       <r>    12.9578     0.2037     5.4352 </r>
       <r>    13.0505     0.4124     5.4734 </r>
       <r>    13.1431    -0.0128     5.4722 </r>
       <r>    13.2357     0.3020     5.5001 </r>
       <r>    13.3283     0.2656     5.5247 </r>
       <r>    13.4209     0.8593     5.6043 </r>
       <r>    13.5136     0.6502     5.6646 </r>
       <r>    13.6062     0.2915     5.6916 </r>
       <r>    13.6988     0.0304     5.6944 </r>
       <r>    13.7914     0.0730     5.7011 </r>
       <r>    13.8841     0.5952     5.7563 </r>
       <r>    13.9767     0.2417     5.7787 </r>
       <r>    14.0693    -0.0278     5.7761 </r>
       <r>    14.1619     0.5463     5.8267 </r>
       <r>    14.2546     0.6948     5.8910 </r>
       <r>    14.3472    -0.0232     5.8889 </r>
       <r>    14.4398     0.0000     5.8889 </r>
       <r>    14.5324     0.0000     5.8889 </r>
       <r>    14.6251    -0.0119     5.8878 </r>
       <r>    14.7177     0.4026     5.9251 </r>
       <r>    14.8103     0.2133     5.9448 </r>
       <r>    14.9029    -0.0043     5.9444 </r>
       <r>    14.9956     0.0000     5.9444 </r>
       <r>    15.0882     0.0000     5.9444 </r>
       <r>    15.1808     0.0000     5.9444 </r>
       <r>    15.2734     0.0000     5.9444 </r>
       <r>    15.3661    -0.0088     5.9436 </r>
       <r>    15.4587     0.3202     5.9733 </r>
       <r>    15.5513     0.7768     6.0452 </r>
       <r>    15.6439     0.1132     6.0557 </r>
       <r>    15.7365    -0.0136     6.0545 </r>
       <r>    15.8292     0.6183     6.1117 </r>
       <r>    15.9218    -0.0113     6.1107 </r>
       <r>    16.0144     0.1747     6.1269 </r>
       <r>    16.1070     0.2142     6.1467 </r>
       <r>    16.1997     1.0510     6.2441 </r>
       <r>    16.2923     0.0655     6.2501 </r>
       <r>    16.3849     0.0160     6.2516 </r>
       <r>    16.4775     0.2933     6.2788 </r>
       <r>    16.5702    -0.0106     6.2778 </r>
       <r>    16.6628    -0.0037     6.2774 </r>
       <r>    16.7554     0.1479     6.2911 </r>
       <r>    16.8480     0.3222     6.3210 </r>
       <r>    16.9407     0.5471     6.3716 </r>
       <r>    17.0333    -0.0152     6.3702 </r>
       <r>    17.1259     0.6074     6.4265 </r>
       <r>    17.2185     0.3232     6.4564 </r>
       <r>    17.3112     0.2767     6.4821 </r>
       <r>    17.4038    -0.0274     6.4795 </r>
       <r>    17.4964     0.5694     6.5323 </r>
       <r>    17.5890     0.0516     6.5370 </r>
       <r>    17.6816     0.0439     6.5411 </r>
       <r>    17.7743     0.3835     6.5766 </r>
       <r>    17.8669     0.1762     6.5930 </r>
       <r>    17.9595     0.0689     6.5993 </r>
       <r>    18.0521     0.2324     6.6209 </r>
       <r>    18.1448     0.1342     6.6333 </r>
       <r>    18.2374     0.4764     6.6774 </r>
       <r>    18.3300    -0.0235     6.6752 </r>
       <r>    18.4226     0.2738     6.7006 </r>
       <r>    18.5153     0.3432     6.7324 </r>
       <r>    18.6079     0.0028     6.7327 </r>
       <r>    18.7005     0.6025     6.7885 </r>
       <r>    18.7931     0.0956     6.7973 </r>
       <r>    18.8858     0.6045     6.8533 </r>
       <r>    18.9784     0.5292     6.9023 </r>
       <r>    19.0710     0.0555     6.9075 </r>
       <r>    19.1636     0.0240     6.9097 </r>
       <r>    19.2563     0.2809     6.9357 </r>
       <r>    19.3489     0.1991     6.9541 </r>
       <r>    19.4415    -0.0166     6.9526 </r>
       <r>    19.5341     0.6183     7.0099 </r>
       <r>    19.6268    -0.0163     7.0084 </r>
       <r>    19.7194     0.1035     7.0180 </r>
       <r>    19.8120    10.6814     8.0073 </r>
       <r>    19.9046     0.0266     8.0098 </r>
       <r>    19.9972    -0.0060     8.0092 </r>
       <r>    20.0899     0.6153     8.0662 </r>
       <r>    20.1825     0.8777     8.1475 </r>
       <r>    20.2751    -0.0319     8.1445 </r>
       <r>    20.3677     1.4059     8.2748 </r>
       <r>    20.4604     0.3608     8.3082 </r>
       <r>    20.5530     0.6951     8.3726 </r>
       <r>    20.6456     0.6069     8.4288 </r>
       <r>    20.7382     0.2797     8.4547 </r>
       <r>    20.8309    -0.0105     8.4537 </r>
       <r>    20.9235    -0.0100     8.4528 </r>
       <r>    21.0161     0.2698     8.4778 </r>
       <r>    21.1087     0.0407     8.4815 </r>
       <r>    21.2014    -0.0043     8.4811 </r>
       <r>    21.2940     0.1425     8.4943 </r>
       <r>    21.3866     0.3696     8.5286 </r>
       <r>    21.4792     0.4995     8.5748 </r>
       <r>    21.5719     0.5226     8.6232 </r>
       <r>    21.6645     0.2794     8.6491 </r>
       <r>    21.7571    -0.0119     8.6480 </r>
       <r>    21.8497     0.0755     8.6550 </r>
       <r>    21.9424     0.2479     8.6780 </r>
       <r>    22.0350     0.2729     8.7033 </r>
       <r>    22.1276     0.4459     8.7446 </r>
       <r>    22.2202     0.3465     8.7767 </r>
       <r>    22.3128     0.3211     8.8064 </r>
       <r>    22.4055     0.1464     8.8200 </r>
       <r>    22.4981     0.0455     8.8242 </r>
       <r>    22.5907    -0.0153     8.8228 </r>
       <r>    22.6833     0.4742     8.8667 </r>
       <r>    22.7760     0.2446     8.8893 </r>
       <r>    22.8686    -0.0153     8.8879 </r>
       <r>    22.9612     0.2968     8.9154 </r>
       <r>    23.0538     0.0124     8.9166 </r>
       <r>    23.1465     0.0805     8.9240 </r>
       <r>    23.2391     0.2266     8.9450 </r>
       <r>    23.3317     0.0758     8.9520 </r>
       <r>    23.4243     0.5377     9.0018 </r>
       <r>    23.5170    -0.0198     9.0000 </r>
       <r>    23.6096     0.0000     9.0000 </r>
       <r>    23.7022     0.0000     9.0000 </r>
       <r>    23.7948     0.0000     9.0000 </r>
       <r>    23.8875     0.0000     9.0000 </r>
       <r>    23.9801     0.0000     9.0000 </r>
       <r>    24.0727     0.0000     9.0000 </r>
       <r>    24.1653     0.0000     9.0000 </r>
       <r>    24.2580     0.0000     9.0000 </r>
       <r>    24.3506     0.0000     9.0000 </r>
       <r>    24.4432     0.0000     9.0000 </r>
       <r>    24.5358     0.0000     9.0000 </r>
       <r>    24.6284     0.0000     9.0000 </r>
      </set>
     </set>
    </array>
   </total>
   <partial>
    <array>
     <dimension dim="1">gridpoints</dimension>
     <dimension dim="2">spin</dimension>
     <dimension dim="3">ion</dimension>
     <field>energy</field>
     <field>  s</field>
     <field> py</field>
     <field> pz</field>
     <field> px</field>
     <field>dxy</field>
     <field>dyz</field>
     <field>dz2</field>
     <field>dxz</field>
     <field>dx2</field>
     <set>
      <set comment="ion 1">
       <set comment="spin 1">
        <r>    -3.1587     0.0000     0.0000     0.0000     0.0000     0.0000     0.0000     0.0000     0.0000     0.0000 </r>
        <r>    -3.0661     0.0000     0.0000     0.0000     0.0000     0.0000     0.0000     0.0000     0.0000     0.0000 </r>
        <r>    -2.9735     0.0000     0.0000     0.0000     0.0000     0.0000     0.0000     0.0000     0.0000     0.0000 </r>
        <r>    -2.8809     0.0000     0.0000     0.0000     0.0000     0.0000     0.0000     0.0000     0.0000     0.0000 </r>
        <r>    -2.7882     0.0000     0.0000     0.0000     0.0000     0.0000     0.0000     0.0000     0.0000     0.0000 </r>
        <r>    -2.6956     0.0000     0.0000     0.0000     0.0000     0.0000     0.0000     0.0000     0.0000     0.0000 </r>
        <r>    -2.6030     0.0000     0.0000     0.0000     0.0000     0.0000     0.0000     0.0000     0.0000     0.0000 </r>
        <r>    -2.5104     0.0000     0.0000     0.0000     0.0000     0.0000     0.0000     0.0000     0.0000     0.0000 </r>
        <r>    -2.4178     0.0000     0.0000     0.0000     0.0000     0.0000     0.0000     0.0000     0.0000     0.0000 </r>
        <r>    -2.3251     0.0000     0.0000     0.0000     0.0000     0.0000     0.0000     0.0000     0.0000     0.0000 </r>
        <r>    -2.2325     0.0000     0.0000     0.0000     0.0000     0.0000     0.0000     0.0000     0.0000     0.0000 </r>
        <r>    -2.1399     0.0000     0.0000     0.0000     0.0000     0.0000     0.0000     0.0000     0.0000     0.0000 </r>
        <r>    -2.0473     0.0000     0.0000     0.0000     0.0000     0.0000     0.0000     0.0000     0.0000     0.0000 </r>
        <r>    -1.9546    -0.0028     0.0000     0.0000     0.0000     0.0000     0.0000     0.0000     0.0000     0.0000 </r>
        <r>    -1.8620     0.0766     0.0007     0.0007     0.0007     0.0000     0.0000     0.0000     0.0000     0.0000 </r>
        <r>    -1.7694     0.0112     0.0001     0.0001     0.0001     0.0000     0.0000     0.0000     0.0000     0.0000 </r>
        <r>    -1.6768    -0.0002     0.0000     0.0000     0.0000     0.0000     0.0000     0.0000     0.0000     0.0000 </r>
        <r>    -1.5841     0.0000     0.0000     0.0000     0.0000     0.0000     0.0000     0.0000     0.0000     0.0000 </r>
        <r>    -1.4915     0.0000     0.0000     0.0000     0.0000     0.0000     0.0000     0.0000     0.0000     0.0000 </r>
        <r>    -1.3989     0.0000     0.0000     0.0000     0.0000     0.0000     0.0000     0.0000     0.0000     0.0000 </r>
        <r>    -1.3063    -0.0001     0.0000     0.0000     0.0000     0.0000     0.0000     0.0000     0.0000     0.0000 </r>
        <r>    -1.2136    -0.0008     0.0000     0.0000    -0.0001     0.0000     0.0000     0.0000     0.0000     0.0000 </r>
        <r>    -1.1210     0.2467     0.0020     0.0020     0.0192     0.0007     0.0001     0.0003     0.0007     0.0008 </r>
        <r>    -1.0284    -0.0058     0.0000     0.0000    -0.0005     0.0000     0.0000     0.0000     0.0000     0.0000 </r>
        <r>    -0.9358    -0.0001     0.0000     0.0000     0.0000     0.0000     0.0000     0.0000     0.0000     0.0000 </r>
        <r>    -0.8431     0.0000     0.0000     0.0000     0.0000     0.0000     0.0000     0.0000     0.0000     0.0000 </r>
        <r>    -0.7505     0.0000     0.0000     0.0000     0.0000     0.0000     0.0000     0.0000     0.0000     0.0000 </r>
        <r>    -0.6579    -0.0002     0.0000     0.0000     0.0000     0.0000     0.0000     0.0000     0.0000     0.0000 </r>
        <r>    -0.5653     0.0103     0.0007     0.0007     0.0001     0.0001     0.0003     0.0000     0.0001     0.0000 </r>
        <r>    -0.4726     0.2235     0.0163     0.0163     0.0014     0.0012     0.0061     0.0002     0.0012     0.0005 </r>
        <r>    -0.3800    -0.0079    -0.0006    -0.0006    -0.0001     0.0000    -0.0002     0.0000     0.0000     0.0000 </r>
        <r>    -0.2874     0.0000     0.0000     0.0000     0.0000     0.0000     0.0000     0.0000     0.0000     0.0000 </r>
        <r>    -0.1948     0.0000     0.0000     0.0000     0.0000     0.0000     0.0000     0.0000     0.0000     0.0000 </r>
        <r>    -0.1022    -0.0025    -0.0001    -0.0001    -0.0001    -0.0001    -0.0001     0.0000    -0.0001     0.0000 </r>
        <r>    -0.0095     0.0653     0.0039     0.0036     0.0039     0.0031     0.0031    -0.0001     0.0031     0.0000 </r>
        <r>     0.0831     0.0809     0.0009     0.0168     0.0009     0.0004     0.0008     0.0043     0.0008     0.0000 </r>
        <r>     0.1757     0.1374     0.0010     0.0300     0.0010     0.0002     0.0011     0.0079     0.0011     0.0000 </r>
        <r>     0.2683    -0.0040     0.0000    -0.0009     0.0000     0.0000     0.0000    -0.0002     0.0000     0.0000 </r>
        <r>     0.3610     0.0000     0.0000     0.0000     0.0000     0.0000     0.0000     0.0000     0.0000     0.0000 </r>
        <r>     0.4536     0.0000     0.0000     0.0000     0.0000     0.0000     0.0000     0.0000     0.0000     0.0000 </r>
        <r>     0.5462    -0.0131    -0.0009    -0.0001    -0.0027    -0.0010    -0.0002    -0.0002    -0.0002    -0.0003 </r>
        <r>     0.6388     0.3547     0.0235     0.0014     0.0737     0.0267     0.0052     0.0049     0.0050     0.0071 </r>
        <r>     0.7315     0.0477     0.0032     0.0002     0.0099     0.0036     0.0007     0.0007     0.0006     0.0010 </r>
        <r>     0.8241     0.0302     0.0010     0.0011     0.0050     0.0038     0.0036     0.0001     0.0038     0.0004 </r>
        <r>     0.9167     0.1502     0.0053     0.0053     0.0248     0.0185     0.0173     0.0006     0.0185     0.0019 </r>
        <r>     1.0093    -0.0054    -0.0002    -0.0002    -0.0009    -0.0007    -0.0006     0.0000    -0.0007    -0.0001 </r>
        <r>     1.1020     0.0000     0.0000     0.0000     0.0000     0.0000     0.0000     0.0000     0.0000     0.0000 </r>
        <r>     1.1946    -0.0018    -0.0001    -0.0001     0.0000    -0.0007    -0.0008     0.0000    -0.0007     0.0000 </r>
        <r>     1.2872     0.0594     0.0031     0.0026     0.0008     0.0231     0.0246    -0.0006     0.0231     0.0001 </r>
        <r>     1.3798     0.1897     0.0128     0.0355     0.0011     0.0349     0.0430     0.0290     0.0351     0.0004 </r>
        <r>     1.4725     0.0771    -0.0007     0.0326     0.0007    -0.0009    -0.0020     0.0423    -0.0006    -0.0001 </r>
[...]
        <r>  0.0005 </r>
       </set>
       <set comment="band 3">
        <r>  0.0018 </r>
       </set>
       <set comment="band 4">
        <r>  0.0000 </r>
       </set>
       <set comment="band 5">
        <r>  0.0000 </r>
       </set>
       <set comment="band 6">
        <r>  0.0938 </r>
       </set>
       <set comment="band 7">
        <r>  0.4064 </r>
       </set>
       <set comment="band 8">
        <r> 43.9944 </r>
       </set>
       <set comment="band 9">
        <r>  0.0008 </r>
       </set>
      </set>
     </set>
     <set comment="spin2">
      <set comment="kpoint 1">
       <set comment="band 1">
        <r>  0.8488 </r>
       </set>
       <set comment="band 2">
        <r>  0.0000 </r>
       </set>
       <set comment="band 3">
        <r>  0.0000 </r>
       </set>
       <set comment="band 4">
        <r>  0.0000 </r>
       </set>
       <set comment="band 5">
        <r>  0.0000 </r>
       </set>
       <set comment="band 6">
        <r>  0.0000 </r>
       </set>
       <set comment="band 7">
        <r>  0.0002 </r>
       </set>
       <set comment="band 8">
        <r> 43.8234 </r>
       </set>
       <set comment="band 9">
        <r>  0.0602 </r>
       </set>
      </set>
      <set comment="kpoint 2">
       <set comment="band 1">
        <r>  0.7534 </r>
       </set>
       <set comment="band 2">
        <r>  0.0016 </r>
       </set>
       <set comment="band 3">
        <r>  0.0000 </r>
       </set>
       <set comment="band 4">
        <r>  0.0000 </r>
       </set>
       <set comment="band 5">
        <r>  0.0000 </r>
       </set>
       <set comment="band 6">
        <r>  0.0043 </r>
       </set>
       <set comment="band 7">
        <r> 42.9411 </r>
       </set>
       <set comment="band 8">
        <r>  0.9435 </r>
       </set>
       <set comment="band 9">
        <r>  0.0411 </r>
       </set>
      </set>
      <set comment="kpoint 3">
       <set comment="band 1">
        <r>  0.4791 </r>
       </set>
       <set comment="band 2">
        <r>  0.0400 </r>
       </set>
       <set comment="band 3">
        <r>  0.0046 </r>
       </set>
       <set comment="band 4">
        <r>  0.0000 </r>
       </set>
       <set comment="band 5">
        <r>  0.0000 </r>
       </set>
       <set comment="band 6">
        <r>  0.0117 </r>
       </set>
       <set comment="band 7">
        <r>  0.1649 </r>
       </set>
       <set comment="band 8">
        <r> 43.4803 </r>
       </set>
       <set comment="band 9">
        <r>  0.6523 </r>
       </set>
      </set>
      <set comment="kpoint 4">
       <set comment="band 1">
        <r>  0.3511 </r>
       </set>
       <set comment="band 2">
        <r>  0.0003 </r>
       </set>
       <set comment="band 3">
        <r>  0.0000 </r>
       </set>
       <set comment="band 4">
        <r>  0.0061 </r>
       </set>
       <set comment="band 5">
        <r>  0.0000 </r>
       </set>
       <set comment="band 6">
        <r>  0.0000 </r>
       </set>
       <set comment="band 7">
        <r>  0.4522 </r>
       </set>
       <set comment="band 8">
        <r>  0.0071 </r>
       </set>
       <set comment="band 9">
        <r> 44.0351 </r>
       </set>
      </set>
      <set comment="kpoint 5">
       <set comment="band 1">
        <r>  0.5852 </r>
       </set>
       <set comment="band 2">
        <r>  0.0252 </r>
       </set>
       <set comment="band 3">
        <r>  0.0036 </r>
       </set>
       <set comment="band 4">
        <r>  0.0000 </r>
       </set>
       <set comment="band 5">
        <r>  0.0084 </r>
       </set>
       <set comment="band 6">
        <r>  0.0000 </r>
       </set>
       <set comment="band 7">
        <r>  0.0894 </r>
       </set>
       <set comment="band 8">
        <r> 43.7865 </r>
       </set>
       <set comment="band 9">
        <r>  0.3012 </r>
       </set>
      </set>
      <set comment="kpoint 6">
       <set comment="band 1">
        <r>  0.8011 </r>
       </set>
       <set comment="band 2">
        <r>  0.0002 </r>
       </set>
       <set comment="band 3">
        <r>  0.0000 </r>
       </set>
       <set comment="band 4">
        <r>  0.0000 </r>
       </set>
       <set comment="band 5">
        <r>  0.0035 </r>
       </set>
       <set comment="band 6">
        <r>  0.0000 </r>
       </set>
       <set comment="band 7">
        <r> 43.7443 </r>
       </set>
       <set comment="band 8">
        <r>  0.0218 </r>
       </set>
       <set comment="band 9">
        <r>  0.1257 </r>
       </set>
      </set>
      <set comment="kpoint 7">
       <set comment="band 1">
        <r>  0.6920 </r>
       </set>
       <set comment="band 2">
        <r>  0.0004 </r>
       </set>
       <set comment="band 3">
        <r>  0.0164 </r>
       </set>
       <set comment="band 4">
        <r>  0.0000 </r>
       </set>
       <set comment="band 5">
        <r>  0.0111 </r>
       </set>
       <set comment="band 6">
        <r>  0.0000 </r>
       </set>
       <set comment="band 7">
        <r> 43.7012 </r>
       </set>
       <set comment="band 8">
        <r>  0.1698 </r>
       </set>
       <set comment="band 9">
        <r>  0.0114 </r>
       </set>
      </set>
      <set comment="kpoint 8">
       <set comment="band 1">
        <r>  0.4561 </r>
       </set>
       <set comment="band 2">
        <r>  0.0036 </r>
       </set>
       <set comment="band 3">
        <r>  0.0536 </r>
       </set>
       <set comment="band 4">
        <r>  0.0042 </r>
       </set>
       <set comment="band 5">
        <r>  0.0080 </r>
       </set>
       <set comment="band 6">
        <r>  0.0232 </r>
       </set>
       <set comment="band 7">
        <r>  3.1882 </r>
       </set>
       <set comment="band 8">
        <r> 40.8966 </r>
       </set>
       <set comment="band 9">
        <r>  0.0823 </r>
       </set>
      </set>
      <set comment="kpoint 9">
       <set comment="band 1">
        <r>  0.2354 </r>
       </set>
       <set comment="band 2">
        <r>  0.0014 </r>
       </set>
       <set comment="band 3">
        <r>  0.0158 </r>
       </set>
       <set comment="band 4">
        <r>  0.0011 </r>
       </set>
       <set comment="band 5">
        <r>  0.0351 </r>
       </set>
       <set comment="band 6">
        <r>  0.0028 </r>
       </set>
       <set comment="band 7">
        <r>  0.4872 </r>
       </set>
       <set comment="band 8">
        <r> 43.9407 </r>
       </set>
       <set comment="band 9">
        <r>  0.0187 </r>
       </set>
      </set>
      <set comment="kpoint 10">
       <set comment="band 1">
        <r>  0.3927 </r>
       </set>
       <set comment="band 2">
        <r>  0.0046 </r>
       </set>
       <set comment="band 3">
        <r>  0.0198 </r>
       </set>
       <set comment="band 4">
        <r>  0.0011 </r>
       </set>
       <set comment="band 5">
        <r>  0.0001 </r>
       </set>
       <set comment="band 6">
        <r>  0.1081 </r>
       </set>
       <set comment="band 7">
        <r>  0.2097 </r>
       </set>
       <set comment="band 8">
        <r> 44.0254 </r>
       </set>
       <set comment="band 9">
        <r>  0.0078 </r>
       </set>
      </set>
      <set comment="kpoint 11">
       <set comment="band 1">
        <r>  0.6492 </r>
       </set>
       <set comment="band 2">
        <r>  0.0034 </r>
       </set>
       <set comment="band 3">
        <r>  0.0045 </r>
       </set>
       <set comment="band 4">
        <r>  0.0013 </r>
       </set>
       <set comment="band 5">
        <r>  0.0062 </r>
       </set>
       <set comment="band 6">
        <r>  0.0102 </r>
       </set>
       <set comment="band 7">
        <r> 41.1130 </r>
       </set>
       <set comment="band 8">
        <r>  2.8038 </r>
       </set>
       <set comment="band 9">
        <r>  0.0825 </r>
       </set>
      </set>
      <set comment="kpoint 12">
       <set comment="band 1">
        <r>  0.2234 </r>
       </set>
       <set comment="band 2">
        <r>  0.0001 </r>
       </set>
       <set comment="band 3">
        <r>  0.1601 </r>
       </set>
       <set comment="band 4">
        <r>  0.0000 </r>
       </set>
       <set comment="band 5">
        <r>  0.0120 </r>
       </set>
       <set comment="band 6">
        <r>  0.0000 </r>
       </set>
       <set comment="band 7">
        <r>  0.2385 </r>
       </set>
       <set comment="band 8">
        <r> 43.5110 </r>
       </set>
       <set comment="band 9">
        <r>  0.0000 </r>
       </set>
      </set>
      <set comment="kpoint 13">
       <set comment="band 1">
        <r>  0.0945 </r>
       </set>
       <set comment="band 2">
        <r>  0.0001 </r>
       </set>
       <set comment="band 3">
        <r>  0.0353 </r>
       </set>
       <set comment="band 4">
        <r>  0.0322 </r>
       </set>
       <set comment="band 5">
        <r>  0.0104 </r>
       </set>
       <set comment="band 6">
        <r>  0.0186 </r>
       </set>
       <set comment="band 7">
        <r>  0.3882 </r>
       </set>
       <set comment="band 8">
        <r>  0.0927 </r>
       </set>
       <set comment="band 9">
        <r> 43.6705 </r>
       </set>
      </set>
      <set comment="kpoint 14">
       <set comment="band 1">
        <r>  0.1024 </r>
       </set>
       <set comment="band 2">
        <r>  0.0455 </r>
       </set>
       <set comment="band 3">
        <r>  0.0016 </r>
       </set>
       <set comment="band 4">
        <r>  0.0249 </r>
       </set>
       <set comment="band 5">
        <r>  0.0223 </r>
       </set>
       <set comment="band 6">
        <r>  0.4199 </r>
       </set>
       <set comment="band 7">
        <r>  0.1011 </r>
       </set>
       <set comment="band 8">
        <r> 42.3818 </r>
       </set>
       <set comment="band 9">
        <r>  1.6827 </r>
       </set>
      </set>
      <set comment="kpoint 15">
       <set comment="band 1">
        <r>  0.3566 </r>
       </set>
       <set comment="band 2">
        <r>  0.0037 </r>
       </set>
       <set comment="band 3">
        <r>  0.0310 </r>
       </set>
       <set comment="band 4">
        <r>  0.0005 </r>
       </set>
       <set comment="band 5">
        <r>  0.0000 </r>
       </set>
       <set comment="band 6">
        <r>  0.0313 </r>
       </set>
       <set comment="band 7">
        <r>  0.3491 </r>
       </set>
       <set comment="band 8">
        <r> 43.8648 </r>
       </set>
       <set comment="band 9">
        <r>  0.1693 </r>
       </set>
      </set>
      <set comment="kpoint 16">
       <set comment="band 1">
        <r>  0.1256 </r>
       </set>
       <set comment="band 2">
        <r>  0.0000 </r>
       </set>
       <set comment="band 3">
        <r>  0.0382 </r>
       </set>
       <set comment="band 4">
        <r>  0.0000 </r>
       </set>
       <set comment="band 5">
        <r>  0.0000 </r>
       </set>
       <set comment="band 6">
        <r>  0.0018 </r>
       </set>
       <set comment="band 7">
        <r>  0.2372 </r>
       </set>
       <set comment="band 8">
        <r>  0.0000 </r>
       </set>
       <set comment="band 9">
        <r> 33.2379 </r>
       </set>
      </set>
      <set comment="kpoint 17">
       <set comment="band 1">
        <r>  0.1968 </r>
       </set>
       <set comment="band 2">
        <r>  0.0002 </r>
       </set>
       <set comment="band 3">
        <r>  0.1298 </r>
       </set>
       <set comment="band 4">
        <r>  0.0004 </r>
       </set>
       <set comment="band 5">
        <r>  0.0000 </r>
       </set>
       <set comment="band 6">
        <r>  0.0539 </r>
       </set>
       <set comment="band 7">
        <r>  0.2635 </r>
       </set>
       <set comment="band 8">
        <r> 43.8274 </r>
       </set>
       <set comment="band 9">
        <r>  0.1123 </r>
       </set>
      </set>
      <set comment="kpoint 18">
       <set comment="band 1">
        <r>  0.4781 </r>
       </set>
       <set comment="band 2">
        <r>  0.0003 </r>
       </set>
       <set comment="band 3">
        <r>  0.0971 </r>
       </set>
       <set comment="band 4">
        <r>  0.0000 </r>
       </set>
       <set comment="band 5">
        <r>  0.0126 </r>
       </set>
       <set comment="band 6">
        <r>  0.0000 </r>
       </set>
       <set comment="band 7">
        <r> 43.4982 </r>
       </set>
       <set comment="band 8">
        <r>  0.3740 </r>
       </set>
       <set comment="band 9">
        <r>  0.0000 </r>
       </set>
      </set>
      <set comment="kpoint 19">
       <set comment="band 1">
        <r>  0.6982 </r>
       </set>
       <set comment="band 2">
        <r>  0.0126 </r>
       </set>
       <set comment="band 3">
        <r>  0.0000 </r>
       </set>
       <set comment="band 4">
        <r>  0.0000 </r>
       </set>
       <set comment="band 5">
        <r>  0.0000 </r>
       </set>
       <set comment="band 6">
        <r>  0.0000 </r>
       </set>
       <set comment="band 7">
        <r>  0.0661 </r>
       </set>
       <set comment="band 8">
        <r> 43.8167 </r>
       </set>
       <set comment="band 9">
        <r>  0.1251 </r>
       </set>
      </set>
      <set comment="kpoint 20">
       <set comment="band 1">
        <r>  0.5519 </r>
       </set>
       <set comment="band 2">
        <r>  0.0095 </r>
       </set>
       <set comment="band 3">
        <r>  0.0013 </r>
       </set>
       <set comment="band 4">
        <r>  0.0000 </r>
       </set>
       <set comment="band 5">
        <r>  0.0000 </r>
       </set>
       <set comment="band 6">
        <r>  0.0362 </r>
       </set>
       <set comment="band 7">
        <r>  0.6883 </r>
       </set>
       <set comment="band 8">
        <r> 43.3566 </r>
       </set>
       <set comment="band 9">
        <r>  0.1654 </r>
       </set>
      </set>
      <set comment="kpoint 21">
       <set comment="band 1">
        <r>  0.2711 </r>
       </set>
       <set comment="band 2">
        <r>  0.0022 </r>
       </set>
       <set comment="band 3">
        <r>  0.0061 </r>
       </set>
       <set comment="band 4">
        <r>  0.0000 </r>
       </set>
       <set comment="band 5">
        <r>  0.0000 </r>
       </set>
       <set comment="band 6">
        <r>  0.3169 </r>
       </set>
       <set comment="band 7">
        <r>  0.1628 </r>
       </set>
       <set comment="band 8">
        <r> 43.9696 </r>
       </set>
       <set comment="band 9">
        <r>  0.0541 </r>
       </set>
      </set>
      <set comment="kpoint 22">
       <set comment="band 1">
        <r>  0.2076 </r>
       </set>
       <set comment="band 2">
        <r>  0.0000 </r>
       </set>
       <set comment="band 3">
        <r>  0.0890 </r>
       </set>
       <set comment="band 4">
        <r>  0.0000 </r>
       </set>
       <set comment="band 5">
        <r>  0.0000 </r>
       </set>
       <set comment="band 6">
        <r>  0.0004 </r>
       </set>
       <set comment="band 7">
        <r>  0.4282 </r>
       </set>
       <set comment="band 8">
        <r> 43.9150 </r>
       </set>
       <set comment="band 9">
        <r>  0.0921 </r>
       </set>
      </set>
      <set comment="kpoint 23">
       <set comment="band 1">
        <r>  0.4126 </r>
       </set>
       <set comment="band 2">
        <r>  0.0145 </r>
       </set>
       <set comment="band 3">
        <r>  0.0456 </r>
       </set>
       <set comment="band 4">
        <r>  0.0000 </r>
       </set>
       <set comment="band 5">
        <r>  0.0176 </r>
       </set>
       <set comment="band 6">
        <r>  0.0000 </r>
       </set>
       <set comment="band 7">
        <r>  0.2174 </r>
       </set>
       <set comment="band 8">
        <r> 43.9436 </r>
       </set>
       <set comment="band 9">
        <r>  0.1351 </r>
       </set>
      </set>
      <set comment="kpoint 24">
       <set comment="band 1">
        <r>  0.1452 </r>
       </set>
       <set comment="band 2">
        <r>  0.0293 </r>
       </set>
       <set comment="band 3">
        <r>  0.0687 </r>
       </set>
       <set comment="band 4">
        <r>  0.0090 </r>
       </set>
       <set comment="band 5">
        <r>  0.0128 </r>
       </set>
       <set comment="band 6">
        <r>  0.2503 </r>
       </set>
       <set comment="band 7">
        <r>  0.2131 </r>
       </set>
       <set comment="band 8">
        <r> 43.6977 </r>
       </set>
       <set comment="band 9">
        <r>  0.3148 </r>
       </set>
      </set>
      <set comment="kpoint 25">
       <set comment="band 1">
        <r>  0.0257 </r>
       </set>
       <set comment="band 2">
        <r>  0.0176 </r>
       </set>
       <set comment="band 3">
        <r>  0.0294 </r>
       </set>
       <set comment="band 4">
        <r>  0.1232 </r>
       </set>
       <set comment="band 5">
        <r>  0.0177 </r>
       </set>
       <set comment="band 6">
        <r>  0.4264 </r>
       </set>
       <set comment="band 7">
        <r>  0.0197 </r>
       </set>
       <set comment="band 8">
        <r>  0.1051 </r>
       </set>
       <set comment="band 9">
        <r> 44.0213 </r>
       </set>
      </set>
      <set comment="kpoint 26">
       <set comment="band 1">
        <r>  0.0958 </r>
       </set>
       <set comment="band 2">
        <r>  0.0049 </r>
       </set>
       <set comment="band 3">
        <r>  0.0228 </r>
       </set>
       <set comment="band 4">
        <r>  0.0000 </r>
       </set>
       <set comment="band 5">
        <r>  0.0000 </r>
       </set>
       <set comment="band 6">
        <r>  0.4491 </r>
       </set>
       <set comment="band 7">
        <r>  0.0797 </r>
       </set>
       <set comment="band 8">
        <r> 42.8963 </r>
       </set>
       <set comment="band 9">
        <r>  1.2418 </r>
       </set>
      </set>
      <set comment="kpoint 27">
       <set comment="band 1">
        <r>  0.4105 </r>
       </set>
       <set comment="band 2">
        <r>  0.0360 </r>
       </set>
       <set comment="band 3">
        <r>  0.0000 </r>
       </set>
       <set comment="band 4">
        <r>  0.0000 </r>
       </set>
       <set comment="band 5">
        <r>  0.0000 </r>
       </set>
       <set comment="band 6">
        <r>  0.0000 </r>
       </set>
       <set comment="band 7">
        <r>  0.2674 </r>
       </set>
       <set comment="band 8">
        <r>  0.2452 </r>
       </set>
       <set comment="band 9">
        <r> 43.9068 </r>
       </set>
      </set>
      <set comment="kpoint 28">
       <set comment="band 1">
        <r>  0.2977 </r>
       </set>
       <set comment="band 2">
        <r>  0.0005 </r>
       </set>
       <set comment="band 3">
        <r>  0.0018 </r>
       </set>
       <set comment="band 4">
        <r>  0.0000 </r>
       </set>
       <set comment="band 5">
        <r>  0.0000 </r>
       </set>
       <set comment="band 6">
        <r>  0.0942 </r>
       </set>
       <set comment="band 7">
        <r>  0.4077 </r>
       </set>
       <set comment="band 8">
        <r> 43.9930 </r>
       </set>
       <set comment="band 9">
        <r>  0.0007 </r>
       </set>
      </set>
     </set>
    </set>
   </array>
  </projected>
 </calculation>
 <structure name="finalpos" >
  <crystal>
   <varray name="basis" >
    <v>       0.00000000       2.08500000       2.08500000 </v>
    <v>       2.08500000       0.00000000       2.08500000 </v>
    <v>       2.08500000       2.08500000       0.00000000 </v>
   </varray>
   <i name="volume">     18.12792825 </i>
   <varray name="rec_basis" >
    <v>      -0.23980815       0.23980815       0.23980815 </v>
    <v>       0.23980815      -0.23980815       0.23980815 </v>
    <v>       0.23980815       0.23980815      -0.23980815 </v>
   </varray>
  </crystal>
  <varray name="positions" >
   <v>       0.00000000       0.00000000       0.00000000 </v>
  </varray>
 </structure>
</modeling>
