    2    2   50    1
  0.4851000E+03  0.9800000E-09  0.9900000E-09  0.1000000E-08  0.5000000E-15
  1.000000000000000E-004
  CAR 
 unknown system                          
   12    1   10
 
  0.0000000E+00  0.0000000E+00  0.0000000E+00  0.1000000E+01
   1      -32.863912
   2      -20.502211
   3      -13.255417
   4      -12.731110
   5      -12.722354
   6       -5.930542
   7       -5.929932
   8       -0.403954
   9        0.887156
  10        1.052317
