       N       E                     dE             d eps       ncg     rms          rms(c)
DAV:   1     0.417056160145E+02    0.41706E+02   -0.26508E+03    36   0.394E+02
DAV:   2     0.277473223144E+01   -0.38931E+02   -0.38871E+02    30   0.124E+02
DAV:   3    -0.731568483248E+01   -0.10090E+02   -0.99909E+01    40   0.237E+01
DAV:   4    -0.901938730175E+01   -0.17037E+01   -0.17062E+01    20   0.111E+01
DAV:   5    -0.913482657239E+01   -0.11544E+00   -0.92591E-01    24   0.298E+00    0.627E+00
DAV:   6    -0.871000281493E+01    0.42482E+00   -0.86193E-01    24   0.740E+00    0.523E+00
DAV:   7    -0.877165496981E+01   -0.61652E-01   -0.25576E+00    22   0.291E+00    0.785E+00
DAV:   8    -0.837225415946E+01    0.39940E+00   -0.14145E-01    20   0.435E+00    0.201E+00
DAV:   9    -0.863639541132E+01   -0.26414E+00   -0.29899E-02    20   0.160E+00    0.896E-01
DAV:  10    -0.872422866470E+01   -0.87833E-01   -0.11357E-02    20   0.707E-01    0.150E+00
DAV:  11    -0.869735124944E+01    0.26877E-01   -0.16784E-01    24   0.562E-01    0.377E+00
DAV:  12    -0.861241140263E+01    0.84940E-01   -0.41726E-01    20   0.147E+00    0.422E+00
DAV:  13    -0.862999893812E+01   -0.17588E-01   -0.50583E-01    20   0.187E+00    0.465E+00
DAV:  14    -0.859058045165E+01    0.39418E-01   -0.50515E-01    20   0.198E+00    0.431E+00
DAV:  15    -0.862613702251E+01   -0.35557E-01   -0.44916E-01    20   0.194E+00    0.421E+00
DAV:  16    -0.861310220885E+01    0.13035E-01   -0.37340E-01    20   0.183E+00    0.365E+00
DAV:  17    -0.864545034873E+01   -0.32348E-01   -0.29761E-01    20   0.169E+00    0.340E+00
DAV:  18    -0.864451162478E+01    0.93872E-03   -0.23587E-01    20   0.152E+00    0.290E+00
DAV:  19    -0.866478189775E+01   -0.20270E-01   -0.18825E-01    20   0.139E+00    0.272E+00
DAV:  20    -0.866344077139E+01    0.13411E-02   -0.15709E-01    20   0.127E+00    0.240E+00
DAV:  21    -0.867790634554E+01   -0.14466E-01   -0.13388E-01    20   0.117E+00    0.233E+00
DAV:  22    -0.867373233989E+01    0.41740E-02   -0.11530E-01    20   0.110E+00    0.206E+00
DAV:  23    -0.868797449872E+01   -0.14242E-01   -0.98380E-02    20   0.102E+00    0.200E+00
DAV:  24    -0.868388169239E+01    0.40928E-02   -0.83349E-02    20   0.956E-01    0.174E+00
DAV:  25    -0.869709222421E+01   -0.13211E-01   -0.67667E-02    20   0.878E-01    0.164E+00
DAV:  26    -0.869522221077E+01    0.18700E-02   -0.54857E-02    20   0.797E-01    0.140E+00
DAV:  27    -0.870609263876E+01   -0.10870E-01   -0.41742E-02    20   0.716E-01    0.127E+00
DAV:  28    -0.870683190839E+01   -0.73927E-03   -0.32008E-02    20   0.623E-01    0.106E+00
DAV:  29    -0.871382584293E+01   -0.69939E-02   -0.22681E-02    20   0.541E-01    0.920E-01
DAV:  30    -0.871568645569E+01   -0.18606E-02   -0.17972E-02    20   0.456E-01    0.812E-01
DAV:  31    -0.871789977333E+01   -0.22133E-02   -0.12899E-02    20   0.411E-01    0.681E-01
DAV:  32    -0.872066090273E+01   -0.27611E-02   -0.10283E-02    20   0.364E-01    0.623E-01
DAV:  33    -0.872089763828E+01   -0.23674E-03   -0.72142E-03    20   0.331E-01    0.498E-01
DAV:  34    -0.872331631911E+01   -0.24187E-02   -0.55958E-03    20   0.295E-01    0.463E-01
DAV:  35    -0.872303966650E+01    0.27665E-03   -0.36644E-03    20   0.262E-01    0.352E-01
DAV:  36    -0.872518337568E+01   -0.21437E-02   -0.27308E-03    20   0.224E-01    0.327E-01
DAV:  37    -0.872466698430E+01    0.51639E-03   -0.15216E-03    20   0.192E-01    0.230E-01
DAV:  38    -0.872683260833E+01   -0.21656E-02   -0.11044E-03    20   0.153E-01    0.220E-01
DAV:  39    -0.872618172325E+01    0.65089E-03   -0.37490E-04    20   0.116E-01    0.132E-01
DAV:  40    -0.872762861534E+01   -0.14469E-02   -0.28235E-04    20   0.957E-02    0.148E-01
DAV:  41    -0.872692588557E+01    0.70273E-03   -0.55975E-05    20   0.837E-02    0.713E-02
DAV:  42    -0.872796728970E+01   -0.10414E-02   -0.34973E-05    20   0.668E-02    0.973E-02
DAV:  43    -0.872732758117E+01    0.63971E-03   -0.27025E-05    20   0.566E-02    0.359E-02
DAV:  44    -0.872800145144E+01   -0.67387E-03   -0.15618E-05    20   0.435E-02    0.636E-02
DAV:  45    -0.872756352949E+01    0.43792E-03   -0.10815E-05    20   0.344E-02    0.204E-02
DAV:  46    -0.872795727068E+01   -0.39374E-03   -0.68035E-06    20   0.277E-02    0.415E-02
DAV:  47    -0.872774355833E+01    0.21371E-03   -0.39125E-06    20   0.201E-02    0.145E-02
DAV:  48    -0.872794433964E+01   -0.20078E-03   -0.31972E-06    20   0.181E-02    0.261E-02
DAV:  49    -0.872785656071E+01    0.87779E-04   -0.99040E-07    20   0.101E-02
   1 F= -.87278566E+01 E0= -.87184548E+01  d E =-.872786E+01
       N       E                     dE             d eps       ncg     rms          rms(c)
DAV:   1    -0.872086702436E+01    0.70773E-02   -0.13281E+00    24   0.111E+01    0.317E-01
DAV:   2    -0.871988065974E+01    0.98636E-03   -0.14620E-02    20   0.102E+00    0.605E-01
DAV:   3    -0.871170674290E+01    0.81739E-02   -0.14170E-02    20   0.264E-01    0.971E-01
DAV:   4    -0.870480354793E+01    0.69032E-02   -0.24907E-02    20   0.569E-01    0.980E-01
DAV:   5    -0.870699356586E+01   -0.21900E-02   -0.21179E-02    20   0.510E-01    0.894E-01
DAV:   6    -0.870899516947E+01   -0.20016E-02   -0.19137E-02    20   0.446E-01    0.890E-01
DAV:   7    -0.870788364593E+01    0.11115E-02   -0.15100E-02    20   0.430E-01    0.701E-01
DAV:   8    -0.871355920985E+01   -0.56756E-02   -0.10465E-02    20   0.378E-01    0.634E-01
DAV:   9    -0.871296345943E+01    0.59575E-03   -0.74457E-03    20   0.331E-01    0.472E-01
DAV:  10    -0.871648036420E+01   -0.35169E-02   -0.45281E-03    20   0.284E-01    0.410E-01
DAV:  11    -0.871617340621E+01    0.30696E-03   -0.29748E-03    20   0.238E-01    0.284E-01
DAV:  12    -0.871878519076E+01   -0.26118E-02   -0.15031E-03    20   0.183E-01    0.241E-01
DAV:  13    -0.871852250955E+01    0.26268E-03   -0.95227E-04    20   0.132E-01    0.159E-01
DAV:  14    -0.871986095864E+01   -0.13384E-02   -0.37836E-04    20   0.104E-01    0.136E-01
DAV:  15    -0.871972625035E+01    0.13471E-03   -0.25898E-04    20   0.830E-02    0.829E-02
DAV:  16    -0.872028612272E+01   -0.55987E-03   -0.40274E-05    20   0.694E-02    0.694E-02
DAV:  17    -0.872019571410E+01    0.90409E-04   -0.28755E-05    20   0.568E-02
   2 F= -.87201957E+01 E0= -.87107948E+01  d E =0.766085E-02
       N       E                     dE             d eps       ncg     rms          rms(c)
DAV:   1    -0.872879698441E+01   -0.85109E-02   -0.89914E-01    24   0.916E+00    0.271E-01
DAV:   2    -0.872798646762E+01    0.81052E-03   -0.81719E-03    20   0.820E-01    0.616E-01
DAV:   3    -0.871891238234E+01    0.90741E-02   -0.14162E-02    20   0.247E-01    0.882E-01
DAV:   4    -0.871620106184E+01    0.27113E-02   -0.21510E-02    20   0.500E-01    0.950E-01
DAV:   5    -0.871450720848E+01    0.16939E-02   -0.18371E-02    20   0.472E-01    0.820E-01
DAV:   6    -0.871919872321E+01   -0.46915E-02   -0.16459E-02    20   0.424E-01    0.841E-01
DAV:   7    -0.871618690856E+01    0.30118E-02   -0.11944E-02    20   0.403E-01    0.627E-01
DAV:   8    -0.872280472774E+01   -0.66178E-02   -0.85887E-03    20   0.359E-01    0.577E-01
DAV:   9    -0.872156237055E+01    0.12424E-02   -0.51864E-03    20   0.306E-01    0.406E-01
DAV:  10    -0.872525168580E+01   -0.36893E-02   -0.34759E-03    20   0.260E-01    0.360E-01
DAV:  11    -0.872463983059E+01    0.61186E-03   -0.16191E-03    20   0.209E-01    0.231E-01
DAV:  12    -0.872740737235E+01   -0.27675E-02   -0.10261E-03    20   0.157E-01    0.204E-01
DAV:  13    -0.872685404286E+01    0.55333E-03   -0.26225E-04    20   0.108E-01    0.119E-01
DAV:  14    -0.872811207711E+01   -0.12580E-02   -0.17815E-04    20   0.891E-02    0.110E-01
DAV:  15    -0.872776974491E+01    0.34233E-03   -0.44275E-05    20   0.722E-02    0.554E-02
DAV:  16    -0.872838625682E+01   -0.61651E-03   -0.27152E-05    20   0.566E-02    0.580E-02
DAV:  17    -0.872813536847E+01    0.25089E-03   -0.18046E-05    20   0.445E-02    0.229E-02
DAV:  18    -0.872845078313E+01   -0.31541E-03   -0.11055E-05    20   0.337E-02    0.290E-02
DAV:  19    -0.872830925004E+01    0.14153E-03   -0.49880E-06    20   0.226E-02    0.952E-03
DAV:  20    -0.872843791876E+01   -0.12867E-03   -0.35313E-06    20   0.187E-02    0.135E-02
DAV:  21    -0.872839893029E+01    0.38988E-04   -0.56733E-07    20   0.762E-03
   3 F= -.87283989E+01 E0= -.87189968E+01  d E =-.820322E-02
