 vasp.5.2.12 11Nov11 complex                                                    
  
 executed on             LinuxIFC date 2012.10.09  20:19:16
 running on    1 nodes
 distr:  one band on    1 nodes,    1 groups


--------------------------------------------------------------------------------------------------------


 INCAR:
 POTCAR:   PAW_PBE O 08Apr2002                    
 POTCAR:   PAW_PBE O 08Apr2002                    
   VRHFIN =O: s2p4                                                              
   LEXCH  = PE                                                                  
   EATOM  =   432.3788 eV,   31.7789 Ry                                         
                                                                                
   TITEL  = PAW_PBE O 08Apr2002                                                 
   LULTRA =        F    use ultrasoft PP ?                                      
   IUNSCR =        0    unscreen: 0-lin 1-nonlin 2-no                           
   RPACOR =     .000    partial core radius                                     
   POMASS =   16.000; ZVAL   =    6.000    mass and valenz                      
   RCORE  =    1.520    outmost cutoff radius                                   
   RWIGS  =    1.550; RWIGS  =     .820    wigner-seitz radius (au A)           
   ENMAX  =  400.000; ENMIN  =  300.000 eV                                      
   ICORE  =        2    local potential                                         
   LCOR   =        T    correct aug charges                                     
   LPAW   =        T    paw PP                                                  
   EAUG   =  605.392                                                            
   DEXC   =     .000                                                            
   RMAX   =    2.264    core radius for proj-oper                               
   RAUG   =    1.300    factor for augmentation sphere                          
   RDEP   =    1.550    radius for radial grids                                 
   QCUT   =   -5.520; QGAM   =   11.041    optimization parameters              
                                                                                
   Description                                                                  
     l     E      TYP  RCUT    TYP  RCUT                                        
     0   .000     23  1.200                                                     
     0  -.700     23  1.200                                                     
     1   .000     23  1.520                                                     
     1   .600     23  1.520                                                     
     2   .000      7  1.500                                                     
  local pseudopotential read in
  atomic valenz-charges read in
  non local Contribution for L=           0  read in
    real space projection operators read in
  non local Contribution for L=           0  read in
    real space projection operators read in
  non local Contribution for L=           1  read in
    real space projection operators read in
  non local Contribution for L=           1  read in
    real space projection operators read in
    PAW grid and wavefunctions read in
 
   number of l-projection  operators is LMAX  =           4
   number of lm-projection operators is LMMAX =           8
 
 PAW_PBE O 08Apr2002                    :
 energy of atom  1       EATOM= -432.3788
 kinetic energy error for atom=    3.3160 (will be added to EATOM!!)
 
 
 POSCAR:  O                                      
  positions in cartesian coordinates
  No initial velocities read in
 exchange correlation table for  LEXCH =        8
   RHO(1)=    0.500       N(1)  =     2000
   RHO(2)=  100.500       N(2)  =     4000
 


--------------------------------------------------------------------------------------------------------


 ion  position               nearest neighbor table
   1  0.000  0.000  0.000-   2 1.23
   2  0.126  0.000  0.000-   1 1.23
 
  LATTYP: Found a simple orthorhombic cell.
 ALAT       =     9.8000000000
 B/A-ratio  =     1.0102040816
 C/A-ratio  =     1.0204081633
  
  Lattice vectors:
  
 A1 = (   9.8000000000,   0.0000000000,   0.0000000000)
 A2 = (   0.0000000000,   9.9000000000,   0.0000000000)
 A3 = (   0.0000000000,   0.0000000000,  10.0000000000)
 Subroutine PRICEL returns:
 Original cell was already a primitive cell.
 

Analysis of symmetry for initial positions (statically):

 Routine SETGRP: Setting up the symmetry group for a 
 simple orthorhombic supercell.


 Subroutine GETGRP returns: Found  8 space group operations
 (whereof  4 operations were pure point group operations)
 out of a pool of  8 trial point group operations.


The static configuration has the point symmetry C_2v.
 The point group associated with its full space group is D_2h.

Analysis of symmetry for dynamics (positions and initial velocities):

 Subroutine DYNSYM returns: Found  8 space group operations
 (whereof  4 operations were pure point group operations)
 out of a pool of  8 trial space group operations
 (whereof  4 operations were pure point group operations)
 and found also     1 'primitive' translations


The dynamic configuration has the point symmetry C_2v.
 The point group associated with its full space group is D_2h.
 
 
 KPOINTS: KPOINTS created by Atomic Simulation Env

Automatic generation of k-mesh.
 
 Subroutine IBZKPT returns following result:
 ===========================================
 
 Found      1 irreducible k-points:
 
 Following reciprocal coordinates:
            Coordinates               Weight
  0.000000  0.000000  0.000000      1.000000
 
 Following cartesian coordinates:
            Coordinates               Weight
  0.000000  0.000000  0.000000      1.000000
 


--------------------------------------------------------------------------------------------------------




 Dimension of arrays:
   k-points           NKPTS =      1   k-points in BZ     NKDIM =      1   number of bands    NBANDS=     10
   number of dos      NEDOS =    301   number of ions     NIONS =      2
   non local maximal  LDIM  =      4   non local SUM 2l+1 LMDIM =      8
   total plane-waves  NPLWV = 157464
   max r-space proj   IRMAX =      1   max aug-charges    IRDMAX=   2305
   dimension x,y,z NGX =    54 NGY =   54 NGZ =   54
   dimension x,y,z NGXF=   108 NGYF=  108 NGZF=  108
   support grid    NGXF=   108 NGYF=  108 NGZF=  108
   ions per type =               2
 NGX,Y,Z   is equivalent  to a cutoff of   9.16,  9.07,  8.98 a.u.
 NGXF,Y,Z  is equivalent  to a cutoff of  18.32, 18.14, 17.95 a.u.


 I would recommend the setting:
   dimension x,y,z NGX =    51 NGY =   51 NGZ =   52
 SYSTEM =  unknown system                          
 POSCAR =   O                                      

 Startparameter for this run:
   NWRITE =      2    write-flag & timer
   PREC   = accura    normal or accurate (medium, high low for compatibility)
   ISTART =      0    job   : 0-new  1-cont  2-samecut
   ICHARG =      2    charge: 1-file 2-atom 10-const
   ISPIN  =      1    spin polarized calculation?
   LNONCOLLINEAR =      F non collinear calculations
   LSORBIT =      F    spin-orbit coupling
   INIWAV =      1    electr: 0-lowe 1-rand  2-diag
   LASPH  =      F    aspherical Exc in radial PAW
   METAGGA=      F    non-selfconsistent MetaGGA calc.

 Electronic Relaxation 1
   ENCUT  =  250.0 eV  18.37 Ry    4.29 a.u.  12.63 12.76 12.89*2*pi/ulx,y,z
   ENINI  =  250.0     initial cutoff
   ENAUG  =  605.4 eV  augmentation charge cutoff
   NELM   =     60;   NELMIN=  2; NELMDL= -5     # of ELM steps 
   EDIFF  = 0.1E-03   stopping-criterion for ELM
   LREAL  =      F    real-space projection
   NLSPLINE    = F    spline interpolate recip. space projectors
   LCOMPAT=      F    compatible to vasp.4.4
   GGA_COMPAT  = T    GGA compatible to vasp.4.4-vasp.4.6
   LMAXPAW     = -100 max onsite density
   LMAXMIX     =    2 max onsite mixed and CHGCAR
   VOSKOWN=      0    Vosko Wilk Nusair interpolation
   ROPT   =    0.00000
 Ionic relaxation
   EDIFFG = -.5E-01   stopping-criterion for IOM
   NSW    =     50    number of steps for IOM
   NBLOCK =      1;   KBLOCK =     50    inner block; outer block 
   IBRION =      1    ionic relax: 0-MD 1-quasi-New 2-CG
   NFREE  =      0    steps in history (QN), initial steepest desc. (CG)
   ISIF   =      2    stress and relaxation
   IWAVPR =     11    prediction:  0-non 1-charg 2-wave 3-comb
   ISYM   =      2    0-nonsym 1-usesym 2-fastsym
   LCORR  =      T    Harris-Foulkes like correction to forces

   POTIM  = 0.5000    time-step for ionic-motion
   TEIN   =    0.0    initial temperature
   TEBEG  =    0.0;   TEEND  =   0.0 temperature during run
   SMASS  =  -3.00    Nose mass-parameter (am)
   estimated Nose-frequenzy (Omega)   =  0.10E-29 period in steps =****** mass=  -0.219E-26a.u.
   SCALEE = 1.0000    scale energy and forces
   NPACO  =    256;   APACO  = 16.0  distance and # of slots for P.C.
   PSTRESS=    0.0 pullay stress

  Mass of Ions in am
   POMASS =  16.00
  Ionic Valenz
   ZVAL   =   6.00
  Atomic Wigner-Seitz radii
   RWIGS  =  -1.00
  virtual crystal weights 
   VCA    =   1.00
   NELECT =      12.0000    total number of electrons
   NUPDOWN=      -1.0000    fix difference up-down

 DOS related values:
   EMIN   =  10.00;   EMAX   =-10.00  energy-range for DOS
   EFERMI =   0.00
   ISMEAR =     1;   SIGMA  =   0.05  broadening in eV -4-tet -1-fermi 0-gaus

 Electronic relaxation 2 (details)
   IALGO  =     38    algorithm
   LDIAG  =      T    sub-space diagonalisation (order eigenvalues)
   LSUBROT=      T    optimize rotation matrix (better conditioning)
   TURBO    =      0    0=normal 1=particle mesh
   IRESTART =      0    0=no restart 2=restart with 2 vectors
   NREBOOT  =      0    no. of reboots
   NMIN     =      0    reboot dimension
   EREF     =   0.00    reference energy to select bands
   IMIX   =      4    mixing-type and parameters
     AMIX     =   0.40;   BMIX     =  1.00
     AMIX_MAG =   1.60;   BMIX_MAG =  1.00
     AMIN     =   0.10
     WC   =   100.;   INIMIX=   1;  MIXPRE=   1

 Intra band minimization:
   WEIMIN = 0.0010     energy-eigenvalue tresh-hold
   EBREAK =  0.25E-05  absolut break condition
   DEPER  =   0.30     relativ break condition  

   TIME   =   0.40     timestep for ELM

  volume/ion in A,a.u.               =     485.10      3273.62
  Fermi-wavevector in a.u.,A,eV,Ry     =   0.378601  0.715452  1.950239  0.143339
  Thomas-Fermi vector in A             =   1.312033
 
 Write flags
   LWAVE  =      T    write WAVECAR
   LCHARG =      T    write CHGCAR
   LVTOT  =      F    write LOCPOT, total local potential
   LVHAR  =      F    write LOCPOT, Hartree potential only
   LELF   =      F    write electronic localiz. function (ELF)
   LORBIT =      0    0 simple, 1 ext, 2 COOP (PROOUT)


 Dipole corrections
   LMONO  =      F    monopole corrections only (constant potential shift)
   LDIPOL =      F    correct potential (dipole corrections)
   IDIPOL =      0    1-x, 2-y, 3-z, 4-all directions 
   EPSILON=  1.0000000 bulk dielectric constant

 Exchange correlation treatment:
   GGA     =    --    GGA type
   LEXCH   =     8    internal setting for exchange type
   VOSKOWN=      0    Vosko Wilk Nusair interpolation
   LHFCALC =     F    Hartree Fock is set to
   LHFONE  =     F    Hartree Fock one center treatment
   AEXX    =    0.0000 exact exchange contribution

 Linear response parameters
   LEPSILON=     F    determine dielectric tensor
   LRPA    =     F    only Hartree local field effects (RPA)
   LNABLA  =     F    use nabla operator in PAW spheres
   LVEL    =     F    velocity operator in full k-point grid
   LINTERFAST=   F  fast interpolation
   KINTER  =     0    interpolate to denser k-point grid
   CSHIFT  =0.1000    complex shift for real part using Kramers Kronig
   OMEGAMAX=  -1.0    maximum frequency
   RTIME   =    0.100 relaxation time in fs

 Orbital magnetization related:
   ORBITALMAG=     F  switch on orbital magnetization
   LCHIMAG   =     F  perturbation theory with respect to B field
   DQ        =  0.001000  dq finite difference perturbation B field



--------------------------------------------------------------------------------------------------------


 quasi-Newton-method for relaxation of ions
 charge density and potential will be updated during run
 non-spin polarized calculation
 Variant of blocked Davidson
 Davidson routine will perform the subspace rotation
 perform sub-space diagonalisation
    after iterative eigenvector-optimisation
 modified Broyden-mixing scheme, WC =      100.0
 initial mixing is a Kerker type mixing with AMIX =  0.4000 and BMIX =      1.0000
 Hartree-type preconditioning will be used
 using additional bands            4
 reciprocal scheme for non local part
 calculate Harris-corrections to forces 
   (improved forces if not selfconsistent)
 use gradient corrections 
 use of overlap-Matrix (Vanderbilt PP)
 Methfessel and Paxton  Order N= 1 SIGMA  =   0.05


--------------------------------------------------------------------------------------------------------


  energy-cutoff  :      250.00
  volume of cell :      970.20
      direct lattice vectors                 reciprocal lattice vectors
     9.800000000  0.000000000  0.000000000     0.102040816  0.000000000  0.000000000
     0.000000000  9.900000000  0.000000000     0.000000000  0.101010101  0.000000000
     0.000000000  0.000000000 10.000000000     0.000000000  0.000000000  0.100000000

  length of vectors
     9.800000000  9.900000000 10.000000000     0.102040816  0.101010101  0.100000000


 
 k-points in units of 2pi/SCALE and weight: KPOINTS created by Atomic Simulation Env
   0.00000000  0.00000000  0.00000000       1.000
 
 k-points in reciprocal lattice and weights: KPOINTS created by Atomic Simulation Env
   0.00000000  0.00000000  0.00000000       1.000
 
 position of ions in fractional coordinates (direct lattice) 
   0.00000000  0.00000000  0.00000000
   0.12551020  0.00000000  0.00000000
 
 position of ions in cartesian coordinates  (Angst):
   0.00000000  0.00000000  0.00000000
   1.23000000  0.00000000  0.00000000
 


--------------------------------------------------------------------------------------------------------


 k-point  1 :  0.00000.00000.0000  plane waves:    8685

 maximum and minimum number of plane-waves per node :      8685     8685

 maximum number of plane-waves:      8685
 maximum index in each direction: 
   IXMAX=   12   IYMAX=   12   IZMAX=   12
   IXMIN=  -12   IYMIN=  -12   IZMIN=  -12

 NGX is ok and might be reduce to  50
 NGY is ok and might be reduce to  50
 NGZ is ok and might be reduce to  50

 serial   3D FFT for wavefunctions
 parallel 3D FFT for charge:
    minimum data exchange during FFTs selected (reduces bandwidth)


 total amount of memory used by VASP on root node   143456. kBytes
========================================================================

   base      :      30000. kBytes
   nonl-proj :        833. kBytes
   fftplans  :      43668. kBytes
   grid      :      67557. kBytes
   one-center:          6. kBytes
   wavefun   :       1392. kBytes
 
 Broyden mixing: mesh for mixing (old mesh)
   NGX = 25   NGY = 25   NGZ = 25
  (NGX  =108   NGY  =108   NGZ  =108)
  gives a total of  15625 points

 initial charge density was supplied:
 charge density of overlapping atoms calculated
 number of electron      12.0000000 magnetization 
 keeping initial charge density in first step


--------------------------------------------------------------------------------------------------------


 Maximum index for augmentation-charges         2055 (set IRDMAX)


--------------------------------------------------------------------------------------------------------


 First call to EWALD:  gamma=   0.179
 Maximum number of real-space cells 3x 3x 3
 Maximum number of reciprocal cells 3x 3x 3

    FEWALD:  cpu time    0.00: real time    0.00


----------------------------------------- Iteration    1(   1)  ---------------------------------------


    POTLOK:  cpu time    1.93: real time    1.93
    SETDIJ:  cpu time    0.00: real time    0.01
     EDDAV:  cpu time    1.20: real time    1.20
       DOS:  cpu time    0.00: real time    0.00
    --------------------------------------------
      LOOP:  cpu time    3.13: real time    3.13

 eigenvalue-minimisations  :    36
 total energy-change (2. order) : 0.4170562E+02  (-0.2650812E+03)
 number of electron      12.0000000 magnetization 
 augmentation part       12.0000000 magnetization 

 Free energy of the ion-electron system (eV)
  ---------------------------------------------------
  alpha Z        PSCENC =         0.57280012
  Ewald energy   TEWEN  =       126.15054829
  -1/2 Hartree   DENC   =      -854.30024460
  -exchange  EXHF       =         0.00000000
  -V(xc)+E(xc)   XCENC  =        54.46669080
  PAW double counting   =       491.99680524     -495.69617649
  entropy T*S    EENTRO =         0.00289895
  eigenvalues    EBANDS =      -139.61336592
  atomic energy  EATOM  =       858.12565962
  ---------------------------------------------------
  free energy    TOTEN  =        41.70561601 eV

  energy without entropy =       41.70271706  energy(sigma->0) =       41.70464970


--------------------------------------------------------------------------------------------------------




----------------------------------------- Iteration    1(   2)  ---------------------------------------


     EDDAV:  cpu time    1.02: real time    1.03
       DOS:  cpu time    0.00: real time    0.00
    --------------------------------------------
      LOOP:  cpu time    1.03: real time    1.03

 eigenvalue-minimisations  :    30
 total energy-change (2. order) :-0.3893088E+02  (-0.3887125E+02)
 number of electron      12.0000000 magnetization 
 augmentation part       12.0000000 magnetization 

 Free energy of the ion-electron system (eV)
  ---------------------------------------------------
  alpha Z        PSCENC =         0.57280012
  Ewald energy   TEWEN  =       126.15054829
  -1/2 Hartree   DENC   =      -854.30024460
  -exchange  EXHF       =         0.00000000
  -V(xc)+E(xc)   XCENC  =        54.46669080
  PAW double counting   =       491.99680524     -495.69617649
  entropy T*S    EENTRO =         0.00289895
  eigenvalues    EBANDS =      -178.54424970
  atomic energy  EATOM  =       858.12565962
  ---------------------------------------------------
  free energy    TOTEN  =         2.77473223 eV

  energy without entropy =        2.77183328  energy(sigma->0) =        2.77376591


--------------------------------------------------------------------------------------------------------




----------------------------------------- Iteration    1(   3)  ---------------------------------------


     EDDAV:  cpu time    1.28: real time    1.28
       DOS:  cpu time    0.00: real time    0.00
    --------------------------------------------
      LOOP:  cpu time    1.28: real time    1.29

 eigenvalue-minimisations  :    40
 total energy-change (2. order) :-0.1009042E+02  (-0.9990875E+01)
 number of electron      12.0000000 magnetization 
 augmentation part       12.0000000 magnetization 

 Free energy of the ion-electron system (eV)
  ---------------------------------------------------
  alpha Z        PSCENC =         0.57280012
  Ewald energy   TEWEN  =       126.15054829
  -1/2 Hartree   DENC   =      -854.30024460
  -exchange  EXHF       =         0.00000000
  -V(xc)+E(xc)   XCENC  =        54.46669080
  PAW double counting   =       491.99680524     -495.69617649
  entropy T*S    EENTRO =         0.00289895
  eigenvalues    EBANDS =      -188.63466676
  atomic energy  EATOM  =       858.12565962
  ---------------------------------------------------
  free energy    TOTEN  =        -7.31568483 eV

  energy without entropy =       -7.31858379  energy(sigma->0) =       -7.31665115


--------------------------------------------------------------------------------------------------------




----------------------------------------- Iteration    1(   4)  ---------------------------------------


     EDDAV:  cpu time    0.76: real time    0.76
       DOS:  cpu time    0.00: real time    0.00
    --------------------------------------------
      LOOP:  cpu time    0.76: real time    0.78

 eigenvalue-minimisations  :    20
 total energy-change (2. order) :-0.1703702E+01  (-0.1706158E+01)
 number of electron      12.0000000 magnetization 
 augmentation part       12.0000000 magnetization 

 Free energy of the ion-electron system (eV)
  ---------------------------------------------------
  alpha Z        PSCENC =         0.57280012
  Ewald energy   TEWEN  =       126.15054829
  -1/2 Hartree   DENC   =      -854.30024460
  -exchange  EXHF       =         0.00000000
  -V(xc)+E(xc)   XCENC  =        54.46669080
  PAW double counting   =       491.99680524     -495.69617649
  entropy T*S    EENTRO =         0.00143773
  eigenvalues    EBANDS =      -190.33690801
  atomic energy  EATOM  =       858.12565962
  ---------------------------------------------------
  free energy    TOTEN  =        -9.01938730 eV

  energy without entropy =       -9.02082503  energy(sigma->0) =       -9.01986655


--------------------------------------------------------------------------------------------------------




----------------------------------------- Iteration    1(   5)  ---------------------------------------


     EDDAV:  cpu time    0.87: real time    0.87
       DOS:  cpu time    0.00: real time    0.00
    CHARGE:  cpu time    0.28: real time    0.28
    MIXING:  cpu time    0.07: real time    0.07
    --------------------------------------------
      LOOP:  cpu time    1.21: real time    1.22

 eigenvalue-minimisations  :    24
 total energy-change (2. order) :-0.1154393E+00  (-0.9259074E-01)
 number of electron      11.9999953 magnetization 
 augmentation part        0.9655587 magnetization 

 Broyden mixing:
  rms(total) = 0.62699E+00    rms(broyden)= 0.59963E+00
  rms(prec ) = 0.66984E+00
  weight for this iteration     100.00

 Free energy of the ion-electron system (eV)
  ---------------------------------------------------
  alpha Z        PSCENC =         0.57280012
  Ewald energy   TEWEN  =       126.15054829
  -1/2 Hartree   DENC   =      -854.30024460
  -exchange  EXHF       =         0.00000000
  -V(xc)+E(xc)   XCENC  =        54.46669080
  PAW double counting   =       491.99680524     -495.69617649
  entropy T*S    EENTRO =        -0.02767975
  eigenvalues    EBANDS =      -190.42322980
  atomic energy  EATOM  =       858.12565962
  ---------------------------------------------------
  free energy    TOTEN  =        -9.13482657 eV

  energy without entropy =       -9.10714682  energy(sigma->0) =       -9.12559999


--------------------------------------------------------------------------------------------------------




----------------------------------------- Iteration    1(   6)  ---------------------------------------


    POTLOK:  cpu time    1.69: real time    1.70
    SETDIJ:  cpu time    0.00: real time    0.01
     EDDAV:  cpu time    0.87: real time    0.87
       DOS:  cpu time    0.00: real time    0.00
    CHARGE:  cpu time    0.27: real time    0.27
    MIXING:  cpu time    0.06: real time    0.06
    --------------------------------------------
      LOOP:  cpu time    2.90: real time    2.92

 eigenvalue-minimisations  :    24
 total energy-change (2. order) : 0.4248238E+00  (-0.8619281E-01)
 number of electron      11.9999946 magnetization 
 augmentation part        0.9788562 magnetization 

 Broyden mixing:
  rms(total) = 0.52262E+00    rms(broyden)= 0.48702E+00
  rms(prec ) = 0.54232E+00
  weight for this iteration     100.00

 eigenvalues of (default mixing * dielectric matrix)
  average eigenvalue GAMMA=   0.7191
  0.7191

 Free energy of the ion-electron system (eV)
  ---------------------------------------------------
  alpha Z        PSCENC =         0.57280012
  Ewald energy   TEWEN  =       126.15054829
  -1/2 Hartree   DENC   =      -847.96946287
  -exchange  EXHF       =         0.00000000
  -V(xc)+E(xc)   XCENC  =        54.28726448
  PAW double counting   =       531.79767752     -534.95949723
  entropy T*S    EENTRO =        -0.01625860
  eigenvalues    EBANDS =      -196.69873414
  atomic energy  EATOM  =       858.12565962
  ---------------------------------------------------
  free energy    TOTEN  =        -8.71000281 eV

  energy without entropy =       -8.69374422  energy(sigma->0) =       -8.70458328


--------------------------------------------------------------------------------------------------------




----------------------------------------- Iteration    1(   7)  ---------------------------------------


    POTLOK:  cpu time    2.09: real time    2.14
    SETDIJ:  cpu time    0.01: real time    0.01
     EDDAV:  cpu time    0.82: real time    0.82
       DOS:  cpu time    0.00: real time    0.00
    CHARGE:  cpu time    0.27: real time    0.27
    MIXING:  cpu time    0.06: real time    0.06
    --------------------------------------------
      LOOP:  cpu time    3.25: real time    3.31

 eigenvalue-minimisations  :    22
 total energy-change (2. order) :-0.6165215E-01  (-0.2557564E+00)
 number of electron      11.9999958 magnetization 
 augmentation part        0.9828173 magnetization 

 Broyden mixing:
  rms(total) = 0.78535E+00    rms(broyden)= 0.68450E+00
  rms(prec ) = 0.76868E+00
  weight for this iteration     100.00
  WARNING: grid for Broyden might be to small

 eigenvalues of (default mixing * dielectric matrix)
  average eigenvalue GAMMA=   1.1164
  1.9870  0.2458

 Free energy of the ion-electron system (eV)
  ---------------------------------------------------
  alpha Z        PSCENC =         0.57280012
  Ewald energy   TEWEN  =       126.15054829
  -1/2 Hartree   DENC   =      -847.42592159
  -exchange  EXHF       =         0.00000000
  -V(xc)+E(xc)   XCENC  =        54.33454298
  PAW double counting   =       552.85420891     -555.79746540
  entropy T*S    EENTRO =         0.00291811
  eigenvalues    EBANDS =      -197.58894601
  atomic energy  EATOM  =       858.12565962
  ---------------------------------------------------
  free energy    TOTEN  =        -8.77165497 eV

  energy without entropy =       -8.77457308  energy(sigma->0) =       -8.77262767


--------------------------------------------------------------------------------------------------------




----------------------------------------- Iteration    1(   8)  ---------------------------------------


    POTLOK:  cpu time    1.74: real time    1.74
    SETDIJ:  cpu time    0.01: real time    0.01
     EDDAV:  cpu time    0.77: real time    0.77
       DOS:  cpu time    0.00: real time    0.00
    CHARGE:  cpu time    0.27: real time    0.27
    MIXING:  cpu time    0.06: real time    0.06
    --------------------------------------------
      LOOP:  cpu time    2.84: real time    2.86

 eigenvalue-minimisations  :    20
 total energy-change (2. order) : 0.3994008E+00  (-0.1414531E-01)
 number of electron      11.9999952 magnetization 
 augmentation part        0.9839802 magnetization 

 Broyden mixing:
  rms(total) = 0.20122E+00    rms(broyden)= 0.15420E+00
  rms(prec ) = 0.17439E+00
  weight for this iteration     100.00
  WARNING: grid for Broyden might be to small

 eigenvalues of (default mixing * dielectric matrix)
  average eigenvalue GAMMA=   1.3696
  2.4249  1.4231  0.2608

 Free energy of the ion-electron system (eV)
  ---------------------------------------------------
  alpha Z        PSCENC =         0.57280012
  Ewald energy   TEWEN  =       126.15054829
  -1/2 Hartree   DENC   =      -847.00987968
  -exchange  EXHF       =         0.00000000
  -V(xc)+E(xc)   XCENC  =        54.51456269
  PAW double counting   =       591.48937113     -594.05541587
  entropy T*S    EENTRO =        -0.02691460
  eigenvalues    EBANDS =      -198.13298587
  atomic energy  EATOM  =       858.12565962
  ---------------------------------------------------
  free energy    TOTEN  =        -8.37225416 eV

  energy without entropy =       -8.34533956  energy(sigma->0) =       -8.36328263


--------------------------------------------------------------------------------------------------------




----------------------------------------- Iteration    1(   9)  ---------------------------------------


    POTLOK:  cpu time    1.81: real time    1.81
    SETDIJ:  cpu time    0.01: real time    0.05
     EDDAV:  cpu time    0.77: real time    0.77
       DOS:  cpu time    0.00: real time    0.00
    CHARGE:  cpu time    0.27: real time    0.27
    MIXING:  cpu time    0.06: real time    0.06
    --------------------------------------------
      LOOP:  cpu time    2.92: real time    2.97

 eigenvalue-minimisations  :    20
 total energy-change (2. order) :-0.2641413E+00  (-0.2989884E-02)
 number of electron      11.9999950 magnetization 
 augmentation part        0.9819250 magnetization 

 Broyden mixing:
  rms(total) = 0.89625E-01    rms(broyden)= 0.18014E-01
  rms(prec ) = 0.20766E-01
  weight for this iteration     100.00
  WARNING: grid for Broyden might be to small

 eigenvalues of (default mixing * dielectric matrix)
  average eigenvalue GAMMA=   1.5171
  2.5111  0.2610  1.9895  1.3067

 Free energy of the ion-electron system (eV)
  ---------------------------------------------------
  alpha Z        PSCENC =         0.57280012
  Ewald energy   TEWEN  =       126.15054829
  -1/2 Hartree   DENC   =      -849.28598232
  -exchange  EXHF       =         0.00000000
  -V(xc)+E(xc)   XCENC  =        54.47963361
  PAW double counting   =       610.92441800     -613.33332632
  entropy T*S    EENTRO =        -0.02818750
  eigenvalues    EBANDS =      -196.24195891
  atomic energy  EATOM  =       858.12565962
  ---------------------------------------------------
  free energy    TOTEN  =        -8.63639541 eV

  energy without entropy =       -8.60820791  energy(sigma->0) =       -8.62699958


--------------------------------------------------------------------------------------------------------




----------------------------------------- Iteration    1(  10)  ---------------------------------------


    POTLOK:  cpu time    1.85: real time    1.85
    SETDIJ:  cpu time    0.01: real time    0.01
     EDDAV:  cpu time    0.77: real time    0.77
       DOS:  cpu time    0.00: real time    0.00
    CHARGE:  cpu time    0.27: real time    0.27
    MIXING:  cpu time    0.06: real time    0.06
    --------------------------------------------
      LOOP:  cpu time    2.96: real time    2.97

 eigenvalue-minimisations  :    20
 total energy-change (2. order) :-0.8783325E-01  (-0.1135699E-02)
 number of electron      11.9999952 magnetization 
 augmentation part        0.9814973 magnetization 

 Broyden mixing:
  rms(total) = 0.14986E+00    rms(broyden)= 0.14010E+00
  rms(prec ) = 0.15788E+00
  weight for this iteration     100.00

 eigenvalues of (default mixing * dielectric matrix)
  average eigenvalue GAMMA=   1.5087
  2.5516  2.2518  0.2616  1.5608  0.9179

 Free energy of the ion-electron system (eV)
  ---------------------------------------------------
  alpha Z        PSCENC =         0.57280012
  Ewald energy   TEWEN  =       126.15054829
  -1/2 Hartree   DENC   =      -849.69269590
  -exchange  EXHF       =         0.00000000
  -V(xc)+E(xc)   XCENC  =        54.42915111
  PAW double counting   =       611.79241268     -614.19095261
  entropy T*S    EENTRO =        -0.02644910
  eigenvalues    EBANDS =      -195.88470287
  atomic energy  EATOM  =       858.12565962
  ---------------------------------------------------
  free energy    TOTEN  =        -8.72422866 eV

  energy without entropy =       -8.69777957  energy(sigma->0) =       -8.71541230


--------------------------------------------------------------------------------------------------------




----------------------------------------- Iteration    1(  11)  ---------------------------------------


    POTLOK:  cpu time    1.87: real time    1.87
    SETDIJ:  cpu time    0.00: real time    0.01
     EDDAV:  cpu time    0.87: real time    0.87
       DOS:  cpu time    0.00: real time    0.00
    CHARGE:  cpu time    0.27: real time    0.27
    MIXING:  cpu time    0.06: real time    0.06
    --------------------------------------------
      LOOP:  cpu time    3.07: real time    3.09

 eigenvalue-minimisations  :    24
 total energy-change (2. order) : 0.2687742E-01  (-0.1678357E-01)
 number of electron      11.9999946 magnetization 
 augmentation part        0.9817406 magnetization 

 Broyden mixing:
  rms(total) = 0.37744E+00    rms(broyden)= 0.32400E+00
  rms(prec ) = 0.36506E+00
  weight for this iteration     100.00
  WARNING: grid for Broyden might be to small

 eigenvalues of (default mixing * dielectric matrix)
  average eigenvalue GAMMA=   1.2966
  2.5104  1.9984  1.6561  1.0237  0.2626  0.3283

 Free energy of the ion-electron system (eV)
  ---------------------------------------------------
  alpha Z        PSCENC =         0.57280012
  Ewald energy   TEWEN  =       126.15054829
  -1/2 Hartree   DENC   =      -849.63340981
  -exchange  EXHF       =         0.00000000
  -V(xc)+E(xc)   XCENC  =        54.44940994
  PAW double counting   =       611.35852696     -613.75484888
  entropy T*S    EENTRO =        -0.01930815
  eigenvalues    EBANDS =      -195.94672936
  atomic energy  EATOM  =       858.12565962
  ---------------------------------------------------
  free energy    TOTEN  =        -8.69735125 eV

  energy without entropy =       -8.67804310  energy(sigma->0) =       -8.69091520


--------------------------------------------------------------------------------------------------------




----------------------------------------- Iteration    1(  12)  ---------------------------------------


    POTLOK:  cpu time    1.86: real time    1.86
    SETDIJ:  cpu time    0.01: real time    0.01
     EDDAV:  cpu time    0.76: real time    0.77
       DOS:  cpu time    0.00: real time    0.00
    CHARGE:  cpu time    0.27: real time    0.27
    MIXING:  cpu time    0.06: real time    0.07
    --------------------------------------------
      LOOP:  cpu time    2.97: real time    2.99

 eigenvalue-minimisations  :    20
 total energy-change (2. order) : 0.8493985E-01  (-0.4172618E-01)
 number of electron      11.9999955 magnetization 
 augmentation part        0.9819846 magnetization 

 Broyden mixing:
  rms(total) = 0.42193E+00    rms(broyden)= 0.33567E+00
  rms(prec ) = 0.37813E+00
  weight for this iteration     100.00
  WARNING: grid for Broyden might be to small

 eigenvalues of (default mixing * dielectric matrix)
  average eigenvalue GAMMA=   1.2291
  2.4976  1.7230  1.7230  1.2406  0.8175  0.2626  0.3390

 Free energy of the ion-electron system (eV)
  ---------------------------------------------------
  alpha Z        PSCENC =         0.57280012
  Ewald energy   TEWEN  =       126.15054829
  -1/2 Hartree   DENC   =      -849.69859802
  -exchange  EXHF       =         0.00000000
  -V(xc)+E(xc)   XCENC  =        54.52216237
  PAW double counting   =       611.47146496     -613.86796566
  entropy T*S    EENTRO =        -0.01761873
  eigenvalues    EBANDS =      -195.87086435
  atomic energy  EATOM  =       858.12565962
  ---------------------------------------------------
  free energy    TOTEN  =        -8.61241140 eV

  energy without entropy =       -8.59479267  energy(sigma->0) =       -8.60653849


--------------------------------------------------------------------------------------------------------




----------------------------------------- Iteration    1(  13)  ---------------------------------------


    POTLOK:  cpu time    1.87: real time    1.87
    SETDIJ:  cpu time    0.00: real time    0.01
     EDDAV:  cpu time    0.77: real time    0.77
       DOS:  cpu time    0.00: real time    0.00
    CHARGE:  cpu time    0.27: real time    0.27
    MIXING:  cpu time    0.07: real time    0.07
    --------------------------------------------
      LOOP:  cpu time    2.98: real time    2.99

 eigenvalue-minimisations  :    20
 total energy-change (2. order) :-0.1758754E-01  (-0.5058319E-01)
 number of electron      11.9999946 magnetization 
 augmentation part        0.9815814 magnetization 

 Broyden mixing:
  rms(total) = 0.46534E+00    rms(broyden)= 0.37971E+00
  rms(prec ) = 0.42774E+00
  weight for this iteration     100.00
  WARNING: grid for Broyden might be to small

 eigenvalues of (default mixing * dielectric matrix)
  average eigenvalue GAMMA=   1.2945
  2.5184  2.2386  1.5638  1.2839  1.2839  0.9136  0.2637  0.2899

 Free energy of the ion-electron system (eV)
  ---------------------------------------------------
  alpha Z        PSCENC =         0.57280012
  Ewald energy   TEWEN  =       126.15054829
  -1/2 Hartree   DENC   =      -849.73058876
  -exchange  EXHF       =         0.00000000
  -V(xc)+E(xc)   XCENC  =        54.51463489
  PAW double counting   =       611.42137493     -613.81843125
  entropy T*S    EENTRO =        -0.01559908
  eigenvalues    EBANDS =      -195.85039771
  atomic energy  EATOM  =       858.12565962
  ---------------------------------------------------
  free energy    TOTEN  =        -8.62999894 eV

  energy without entropy =       -8.61439986  energy(sigma->0) =       -8.62479925


--------------------------------------------------------------------------------------------------------




----------------------------------------- Iteration    1(  14)  ---------------------------------------


    POTLOK:  cpu time    1.88: real time    1.88
    SETDIJ:  cpu time    0.00: real time    0.01
     EDDAV:  cpu time    0.77: real time    0.77
       DOS:  cpu time    0.00: real time    0.00
    CHARGE:  cpu time    0.27: real time    0.27
    MIXING:  cpu time    0.07: real time    0.07
    --------------------------------------------
      LOOP:  cpu time    2.99: real time    3.03

 eigenvalue-minimisations  :    20
 total energy-change (2. order) : 0.3941849E-01  (-0.5051542E-01)
 number of electron      11.9999955 magnetization 
 augmentation part        0.9819188 magnetization 

 Broyden mixing:
  rms(total) = 0.43102E+00    rms(broyden)= 0.33771E+00
  rms(prec ) = 0.38043E+00
  weight for this iteration     100.00
  WARNING: grid for Broyden might be to small

 eigenvalues of (default mixing * dielectric matrix)
  average eigenvalue GAMMA=   1.3535
  2.6501  2.5864  1.6954  1.5346  1.5346  0.9544  0.6827  0.2648  0.2783

 Free energy of the ion-electron system (eV)
  ---------------------------------------------------
  alpha Z        PSCENC =         0.57280012
  Ewald energy   TEWEN  =       126.15054829
  -1/2 Hartree   DENC   =      -849.74462964
  -exchange  EXHF       =         0.00000000
  -V(xc)+E(xc)   XCENC  =        54.53956070
  PAW double counting   =       611.39920452     -613.79629767
  entropy T*S    EENTRO =        -0.01739681
  eigenvalues    EBANDS =      -195.82002959
  atomic energy  EATOM  =       858.12565962
  ---------------------------------------------------
  free energy    TOTEN  =        -8.59058045 eV

  energy without entropy =       -8.57318364  energy(sigma->0) =       -8.58478152


--------------------------------------------------------------------------------------------------------




----------------------------------------- Iteration    1(  15)  ---------------------------------------


    POTLOK:  cpu time    1.89: real time    1.89
    SETDIJ:  cpu time    0.01: real time    0.01
     EDDAV:  cpu time    0.77: real time    0.77
       DOS:  cpu time    0.00: real time    0.00
    CHARGE:  cpu time    0.27: real time    0.27
    MIXING:  cpu time    0.07: real time    0.07
    --------------------------------------------
      LOOP:  cpu time    3.00: real time    3.01

 eigenvalue-minimisations  :    20
 total energy-change (2. order) :-0.3555657E-01  (-0.4491585E-01)
 number of electron      11.9999946 magnetization 
 augmentation part        0.9815616 magnetization 

 Broyden mixing:
  rms(total) = 0.42059E+00    rms(broyden)= 0.33814E+00
  rms(prec ) = 0.38091E+00
  weight for this iteration     100.00
  WARNING: grid for Broyden might be to small

 eigenvalues of (default mixing * dielectric matrix)
  average eigenvalue GAMMA=   1.3869
  3.2647  2.5418  1.8842  1.5728  1.2673  1.2673  0.9692  0.5606  0.2653  0.2753

 Free energy of the ion-electron system (eV)
  ---------------------------------------------------
  alpha Z        PSCENC =         0.57280012
  Ewald energy   TEWEN  =       126.15054829
  -1/2 Hartree   DENC   =      -849.75754355
  -exchange  EXHF       =         0.00000000
  -V(xc)+E(xc)   XCENC  =        54.51569137
  PAW double counting   =       611.37064361     -613.76784345
  entropy T*S    EENTRO =        -0.01827019
  eigenvalues    EBANDS =      -195.81782286
  atomic energy  EATOM  =       858.12565962
  ---------------------------------------------------
  free energy    TOTEN  =        -8.62613702 eV

  energy without entropy =       -8.60786684  energy(sigma->0) =       -8.62004696


--------------------------------------------------------------------------------------------------------




----------------------------------------- Iteration    1(  16)  ---------------------------------------


    POTLOK:  cpu time    1.89: real time    1.89
    SETDIJ:  cpu time    0.01: real time    0.01
     EDDAV:  cpu time    0.77: real time    0.77
       DOS:  cpu time    0.00: real time    0.00
    CHARGE:  cpu time    0.27: real time    0.27
    MIXING:  cpu time    0.07: real time    0.07
    --------------------------------------------
      LOOP:  cpu time    3.00: real time    3.03

 eigenvalue-minimisations  :    20
 total energy-change (2. order) : 0.1303481E-01  (-0.3734006E-01)
 number of electron      11.9999954 magnetization 
 augmentation part        0.9818315 magnetization 

 Broyden mixing:
  rms(total) = 0.36452E+00    rms(broyden)= 0.28330E+00
  rms(prec ) = 0.31913E+00
  weight for this iteration     100.00
  WARNING: grid for Broyden might be to small

 eigenvalues of (default mixing * dielectric matrix)
  average eigenvalue GAMMA=   1.2756
  3.3249  2.5503  1.9380  1.5194  1.2555  1.2555  0.9602  0.5503  0.2652  0.2756
  0.1368

 Free energy of the ion-electron system (eV)
  ---------------------------------------------------
  alpha Z        PSCENC =         0.57280012
  Ewald energy   TEWEN  =       126.15054829
  -1/2 Hartree   DENC   =      -849.76292671
  -exchange  EXHF       =         0.00000000
  -V(xc)+E(xc)   XCENC  =        54.52121667
  PAW double counting   =       611.35916864     -613.75633493
  entropy T*S    EENTRO =        -0.02061114
  eigenvalues    EBANDS =      -195.80262275
  atomic energy  EATOM  =       858.12565962
  ---------------------------------------------------
  free energy    TOTEN  =        -8.61310221 eV

  energy without entropy =       -8.59249107  energy(sigma->0) =       -8.60623183


--------------------------------------------------------------------------------------------------------




----------------------------------------- Iteration    1(  17)  ---------------------------------------


    POTLOK:  cpu time    1.90: real time    1.90
    SETDIJ:  cpu time    0.01: real time    0.01
     EDDAV:  cpu time    0.77: real time    0.77
       DOS:  cpu time    0.00: real time    0.00
    CHARGE:  cpu time    0.27: real time    0.27
    MIXING:  cpu time    0.07: real time    0.07
    --------------------------------------------
      LOOP:  cpu time    3.01: real time    3.02

 eigenvalue-minimisations  :    20
 total energy-change (2. order) :-0.3234814E-01  (-0.2976101E-01)
 number of electron      11.9999947 magnetization 
 augmentation part        0.9815836 magnetization 

 Broyden mixing:
  rms(total) = 0.33964E+00    rms(broyden)= 0.27146E+00
  rms(prec ) = 0.30581E+00
  weight for this iteration     100.00
  WARNING: grid for Broyden might be to small

 eigenvalues of (default mixing * dielectric matrix)
  average eigenvalue GAMMA=   1.2379
  3.2577  2.5295  1.9617  1.5319  1.0497  1.0497  0.9667  0.7272  0.7272  0.5136
  0.2655  0.2742

 Free energy of the ion-electron system (eV)
  ---------------------------------------------------
  alpha Z        PSCENC =         0.57280012
  Ewald energy   TEWEN  =       126.15054829
  -1/2 Hartree   DENC   =      -849.76328447
  -exchange  EXHF       =         0.00000000
  -V(xc)+E(xc)   XCENC  =        54.49530795
  PAW double counting   =       611.33012751     -613.72733067
  entropy T*S    EENTRO =        -0.02189272
  eigenvalues    EBANDS =      -195.80738599
  atomic energy  EATOM  =       858.12565962
  ---------------------------------------------------
  free energy    TOTEN  =        -8.64545035 eV

  energy without entropy =       -8.62355763  energy(sigma->0) =       -8.63815278


--------------------------------------------------------------------------------------------------------




----------------------------------------- Iteration    1(  18)  ---------------------------------------


    POTLOK:  cpu time    1.90: real time    1.90
    SETDIJ:  cpu time    0.00: real time    0.01
     EDDAV:  cpu time    0.76: real time    0.77
       DOS:  cpu time    0.00: real time    0.00
    CHARGE:  cpu time    0.27: real time    0.27
    MIXING:  cpu time    0.07: real time    0.07
    --------------------------------------------
      LOOP:  cpu time    3.01: real time    3.03

 eigenvalue-minimisations  :    20
 total energy-change (2. order) : 0.9387239E-03  (-0.2358692E-01)
 number of electron      11.9999953 magnetization 
 augmentation part        0.9817725 magnetization 

 Broyden mixing:
  rms(total) = 0.29004E+00    rms(broyden)= 0.22504E+00
  rms(prec ) = 0.25351E+00
  weight for this iteration     100.00
  WARNING: grid for Broyden might be to small

 eigenvalues of (default mixing * dielectric matrix)
  average eigenvalue GAMMA=   1.2841
  3.1993  2.5013  1.6721  1.6721  2.0345  1.5595  0.9745  0.8203  0.8203  0.4503
  0.4503  0.2656  0.2739

 Free energy of the ion-electron system (eV)
  ---------------------------------------------------
  alpha Z        PSCENC =         0.57280012
  Ewald energy   TEWEN  =       126.15054829
  -1/2 Hartree   DENC   =      -849.77299702
  -exchange  EXHF       =         0.00000000
  -V(xc)+E(xc)   XCENC  =        54.49565359
  PAW double counting   =       611.34547628     -613.74253702
  entropy T*S    EENTRO =        -0.02339960
  eigenvalues    EBANDS =      -195.79571588
  atomic energy  EATOM  =       858.12565962
  ---------------------------------------------------
  free energy    TOTEN  =        -8.64451162 eV

  energy without entropy =       -8.62111203  energy(sigma->0) =       -8.63671176


--------------------------------------------------------------------------------------------------------




----------------------------------------- Iteration    1(  19)  ---------------------------------------


    POTLOK:  cpu time    1.90: real time    1.90
    SETDIJ:  cpu time    0.01: real time    0.01
     EDDAV:  cpu time    0.76: real time    0.77
       DOS:  cpu time    0.00: real time    0.00
    CHARGE:  cpu time    0.27: real time    0.27
    MIXING:  cpu time    0.07: real time    0.07
    --------------------------------------------
      LOOP:  cpu time    3.02: real time    3.06

 eigenvalue-minimisations  :    20
 total energy-change (2. order) :-0.2027027E-01  (-0.1882502E-01)
 number of electron      11.9999948 magnetization 
 augmentation part        0.9816254 magnetization 

 Broyden mixing:
  rms(total) = 0.27239E+00    rms(broyden)= 0.21793E+00
  rms(prec ) = 0.24552E+00
  weight for this iteration     100.00
  WARNING: grid for Broyden might be to small

 eigenvalues of (default mixing * dielectric matrix)
  average eigenvalue GAMMA=   1.3143
  3.2021  2.0883  2.0883  2.4918  1.9805  1.6133  0.9487  0.9487  1.0006  0.6396
  0.5112  0.2656  0.2736  0.3484

 Free energy of the ion-electron system (eV)
  ---------------------------------------------------
  alpha Z        PSCENC =         0.57280012
  Ewald energy   TEWEN  =       126.15054829
  -1/2 Hartree   DENC   =      -849.76956566
  -exchange  EXHF       =         0.00000000
  -V(xc)+E(xc)   XCENC  =        54.47540558
  PAW double counting   =       611.31366858     -613.71077122
  entropy T*S    EENTRO =        -0.02418785
  eigenvalues    EBANDS =      -195.79833936
  atomic energy  EATOM  =       858.12565962
  ---------------------------------------------------
  free energy    TOTEN  =        -8.66478190 eV

  energy without entropy =       -8.64059405  energy(sigma->0) =       -8.65671928


--------------------------------------------------------------------------------------------------------




----------------------------------------- Iteration    1(  20)  ---------------------------------------


    POTLOK:  cpu time    1.90: real time    1.91
    SETDIJ:  cpu time    0.01: real time    0.01
     EDDAV:  cpu time    0.77: real time    0.77
       DOS:  cpu time    0.00: real time    0.00
    CHARGE:  cpu time    0.27: real time    0.27
    MIXING:  cpu time    0.07: real time    0.07
    --------------------------------------------
      LOOP:  cpu time    3.02: real time    3.04

 eigenvalue-minimisations  :    20
 total energy-change (2. order) : 0.1341126E-02  (-0.1570896E-01)
 number of electron      11.9999953 magnetization 
 augmentation part        0.9817977 magnetization 

 Broyden mixing:
  rms(total) = 0.24040E+00    rms(broyden)= 0.18747E+00
  rms(prec ) = 0.21120E+00
  weight for this iteration     100.00
  WARNING: grid for Broyden might be to small

 eigenvalues of (default mixing * dielectric matrix)
  average eigenvalue GAMMA=   1.2438
  3.1936  2.1420  2.1420  2.4962  1.9907  1.6105  0.9763  0.9763  0.9963  0.6373
  0.0885  0.5015  0.2657  0.2736  0.3674

 Free energy of the ion-electron system (eV)
  ---------------------------------------------------
  alpha Z        PSCENC =         0.57280012
  Ewald energy   TEWEN  =       126.15054829
  -1/2 Hartree   DENC   =      -849.78580578
  -exchange  EXHF       =         0.00000000
  -V(xc)+E(xc)   XCENC  =        54.47740221
  PAW double counting   =       611.35114486     -613.74807268
  entropy T*S    EENTRO =        -0.02483993
  eigenvalues    EBANDS =      -195.78227747
  atomic energy  EATOM  =       858.12565962
  ---------------------------------------------------
  free energy    TOTEN  =        -8.66344077 eV

  energy without entropy =       -8.63860084  energy(sigma->0) =       -8.65516079


--------------------------------------------------------------------------------------------------------




----------------------------------------- Iteration    1(  21)  ---------------------------------------


    POTLOK:  cpu time    1.91: real time    1.91
    SETDIJ:  cpu time    0.01: real time    0.01
     EDDAV:  cpu time    0.77: real time    0.77
       DOS:  cpu time    0.00: real time    0.00
    CHARGE:  cpu time    0.27: real time    0.27
    MIXING:  cpu time    0.08: real time    0.08
    --------------------------------------------
      LOOP:  cpu time    3.03: real time    3.05

 eigenvalue-minimisations  :    20
 total energy-change (2. order) :-0.1446557E-01  (-0.1338759E-01)
 number of electron      11.9999948 magnetization 
 augmentation part        0.9816307 magnetization 

 Broyden mixing:
  rms(total) = 0.23301E+00    rms(broyden)= 0.18693E+00
  rms(prec ) = 0.21059E+00
  weight for this iteration     100.00
  WARNING: grid for Broyden might be to small

 eigenvalues of (default mixing * dielectric matrix)
  average eigenvalue GAMMA=   1.4019
  5.0379  2.1862  2.1862  2.5898  2.3513  1.4754  0.9388  0.9388  0.6861  0.6861
  0.9663  0.8671  0.5581  0.2656  0.2738  0.4220

 Free energy of the ion-electron system (eV)
  ---------------------------------------------------
  alpha Z        PSCENC =         0.57280012
  Ewald energy   TEWEN  =       126.15054829
  -1/2 Hartree   DENC   =      -849.79119139
  -exchange  EXHF       =         0.00000000
  -V(xc)+E(xc)   XCENC  =        54.46486785
  PAW double counting   =       611.33974901     -613.73670157
  entropy T*S    EENTRO =        -0.02528757
  eigenvalues    EBANDS =      -195.77835071
  atomic energy  EATOM  =       858.12565962
  ---------------------------------------------------
  free energy    TOTEN  =        -8.67790635 eV

  energy without entropy =       -8.65261878  energy(sigma->0) =       -8.66947716


--------------------------------------------------------------------------------------------------------




----------------------------------------- Iteration    1(  22)  ---------------------------------------


    POTLOK:  cpu time    1.91: real time    1.91
    SETDIJ:  cpu time    0.00: real time    0.01
     EDDAV:  cpu time    0.77: real time    0.77
       DOS:  cpu time    0.00: real time    0.00
    CHARGE:  cpu time    0.27: real time    0.27
    MIXING:  cpu time    0.08: real time    0.08
    --------------------------------------------
      LOOP:  cpu time    3.03: real time    3.04

 eigenvalue-minimisations  :    20
 total energy-change (2. order) : 0.4174006E-02  (-0.1153035E-01)
 number of electron      11.9999953 magnetization 
 augmentation part        0.9817913 magnetization 

 Broyden mixing:
  rms(total) = 0.20617E+00    rms(broyden)= 0.16055E+00
  rms(prec ) = 0.18089E+00
  weight for this iteration     100.00
  WARNING: grid for Broyden might be to small

 eigenvalues of (default mixing * dielectric matrix)
  average eigenvalue GAMMA=   1.4927
  6.8976  2.8604  2.4773  1.8982  1.8982  1.3210  1.3210  1.3997  0.9568  0.7674
  0.7674  0.6232  0.6232  0.6187  0.2656  0.2737  0.4060

 Free energy of the ion-electron system (eV)
  ---------------------------------------------------
  alpha Z        PSCENC =         0.57280012
  Ewald energy   TEWEN  =       126.15054829
  -1/2 Hartree   DENC   =      -849.79768803
  -exchange  EXHF       =         0.00000000
  -V(xc)+E(xc)   XCENC  =        54.46769374
  PAW double counting   =       611.34789290     -613.74483465
  entropy T*S    EENTRO =        -0.02570870
  eigenvalues    EBANDS =      -195.77009563
  atomic energy  EATOM  =       858.12565962
  ---------------------------------------------------
  free energy    TOTEN  =        -8.67373234 eV

  energy without entropy =       -8.64802364  energy(sigma->0) =       -8.66516277


--------------------------------------------------------------------------------------------------------




----------------------------------------- Iteration    1(  23)  ---------------------------------------


    POTLOK:  cpu time    1.91: real time    1.91
    SETDIJ:  cpu time    0.01: real time    0.01
     EDDAV:  cpu time    0.77: real time    0.77
       DOS:  cpu time    0.00: real time    0.00
    CHARGE:  cpu time    0.27: real time    0.27
    MIXING:  cpu time    0.08: real time    0.08
    --------------------------------------------
      LOOP:  cpu time    3.04: real time    3.05

 eigenvalue-minimisations  :    20
 total energy-change (2. order) :-0.1424216E-01  (-0.9837976E-02)
 number of electron      11.9999948 magnetization 
 augmentation part        0.9816197 magnetization 

 Broyden mixing:
  rms(total) = 0.20006E+00    rms(broyden)= 0.16053E+00
  rms(prec ) = 0.18085E+00
  weight for this iteration     100.00
  WARNING: grid for Broyden might be to small

 eigenvalues of (default mixing * dielectric matrix)
  average eigenvalue GAMMA=   1.4875
  7.0411  2.9830  2.5130  2.0308  2.0308  1.4036  1.4036  1.5062  0.9554  0.8026
  0.8026  0.6186  0.6186  0.6461  0.2656  0.2738  0.4645  0.4154

 Free energy of the ion-electron system (eV)
  ---------------------------------------------------
  alpha Z        PSCENC =         0.57280012
  Ewald energy   TEWEN  =       126.15054829
  -1/2 Hartree   DENC   =      -849.80367831
  -exchange  EXHF       =         0.00000000
  -V(xc)+E(xc)   XCENC  =        54.45731051
  PAW double counting   =       611.34536963     -613.74228811
  entropy T*S    EENTRO =        -0.02608426
  eigenvalues    EBANDS =      -195.76761199
  atomic energy  EATOM  =       858.12565962
  ---------------------------------------------------
  free energy    TOTEN  =        -8.68797450 eV

  energy without entropy =       -8.66189024  energy(sigma->0) =       -8.67927974


--------------------------------------------------------------------------------------------------------




----------------------------------------- Iteration    1(  24)  ---------------------------------------


    POTLOK:  cpu time    1.91: real time    1.92
    SETDIJ:  cpu time    0.01: real time    0.01
     EDDAV:  cpu time    0.77: real time    0.77
       DOS:  cpu time    0.00: real time    0.00
    CHARGE:  cpu time    0.27: real time    0.27
    MIXING:  cpu time    0.08: real time    0.08
    --------------------------------------------
      LOOP:  cpu time    3.04: real time    3.05

 eigenvalue-minimisations  :    20
 total energy-change (2. order) : 0.4092806E-02  (-0.8334853E-02)
 number of electron      11.9999952 magnetization 
 augmentation part        0.9817609 magnetization 

 Broyden mixing:
  rms(total) = 0.17399E+00    rms(broyden)= 0.13494E+00
  rms(prec ) = 0.15204E+00
  weight for this iteration     100.00
  WARNING: grid for Broyden might be to small

 eigenvalues of (default mixing * dielectric matrix)
  average eigenvalue GAMMA=   1.4446
  7.0681  2.9644  2.5258  2.0723  2.0723  1.4999  1.4999  1.5393  0.9563  0.7741
  0.7741  0.7039  0.7039  0.5081  0.5081  0.4224  0.2657  0.2737  0.3151

 Free energy of the ion-electron system (eV)
  ---------------------------------------------------
  alpha Z        PSCENC =         0.57280012
  Ewald energy   TEWEN  =       126.15054829
  -1/2 Hartree   DENC   =      -849.80300916
  -exchange  EXHF       =         0.00000000
  -V(xc)+E(xc)   XCENC  =        54.45943245
  PAW double counting   =       611.33622851     -613.73318295
  entropy T*S    EENTRO =        -0.02641935
  eigenvalues    EBANDS =      -195.76593923
  atomic energy  EATOM  =       858.12565962
  ---------------------------------------------------
  free energy    TOTEN  =        -8.68388169 eV

  energy without entropy =       -8.65746235  energy(sigma->0) =       -8.67507524


--------------------------------------------------------------------------------------------------------




----------------------------------------- Iteration    1(  25)  ---------------------------------------


    POTLOK:  cpu time    1.92: real time    1.92
    SETDIJ:  cpu time    0.01: real time    0.01
     EDDAV:  cpu time    0.77: real time    0.77
       DOS:  cpu time    0.00: real time    0.00
    CHARGE:  cpu time    0.27: real time    0.27
    MIXING:  cpu time    0.08: real time    0.08
    --------------------------------------------
      LOOP:  cpu time    3.05: real time    3.06

 eigenvalue-minimisations  :    20
 total energy-change (2. order) :-0.1321053E-01  (-0.6766728E-02)
 number of electron      11.9999949 magnetization 
 augmentation part        0.9816074 magnetization 

 Broyden mixing:
  rms(total) = 0.16410E+00    rms(broyden)= 0.13121E+00
  rms(prec ) = 0.14782E+00
  weight for this iteration     100.00
  WARNING: grid for Broyden might be to small

 eigenvalues of (default mixing * dielectric matrix)
  average eigenvalue GAMMA=   1.4263
  6.9696  2.9583  2.5474  2.1344  2.1344  1.6203  1.6203  1.5671  0.9578  0.7423
  0.7423  0.7070  0.7070  0.5680  0.5680  0.2656  0.2738  0.5161  0.5161  0.4094

 Free energy of the ion-electron system (eV)
  ---------------------------------------------------
  alpha Z        PSCENC =         0.57280012
  Ewald energy   TEWEN  =       126.15054829
  -1/2 Hartree   DENC   =      -849.80662691
  -exchange  EXHF       =         0.00000000
  -V(xc)+E(xc)   XCENC  =        54.45003891
  PAW double counting   =       611.33532635     -613.73222860
  entropy T*S    EENTRO =        -0.02681642
  eigenvalues    EBANDS =      -195.76579359
  atomic energy  EATOM  =       858.12565962
  ---------------------------------------------------
  free energy    TOTEN  =        -8.69709222 eV

  energy without entropy =       -8.67027580  energy(sigma->0) =       -8.68815342


--------------------------------------------------------------------------------------------------------




----------------------------------------- Iteration    1(  26)  ---------------------------------------


    POTLOK:  cpu time    1.92: real time    1.92
    SETDIJ:  cpu time    0.01: real time    0.01
     EDDAV:  cpu time    0.77: real time    0.77
       DOS:  cpu time    0.00: real time    0.00
    CHARGE:  cpu time    0.27: real time    0.27
    MIXING:  cpu time    0.08: real time    0.08
    --------------------------------------------
      LOOP:  cpu time    3.05: real time    3.07

 eigenvalue-minimisations  :    20
 total energy-change (2. order) : 0.1870013E-02  (-0.5485655E-02)
 number of electron      11.9999952 magnetization 
 augmentation part        0.9817218 magnetization 

 Broyden mixing:
  rms(total) = 0.13977E+00    rms(broyden)= 0.10810E+00
  rms(prec ) = 0.12179E+00
  weight for this iteration     100.00
  WARNING: grid for Broyden might be to small

 eigenvalues of (default mixing * dielectric matrix)
  average eigenvalue GAMMA=   1.3788
  6.8894  2.9553  2.5598  2.1708  2.1708  1.6613  1.6613  1.5769  0.9593  0.7414
  0.7414  0.6014  0.6014  0.7042  0.7042  0.5252  0.5252  0.4096  0.2651  0.2740
  0.2571

 Free energy of the ion-electron system (eV)
  ---------------------------------------------------
  alpha Z        PSCENC =         0.57280012
  Ewald energy   TEWEN  =       126.15054829
  -1/2 Hartree   DENC   =      -849.80343333
  -exchange  EXHF       =         0.00000000
  -V(xc)+E(xc)   XCENC  =        54.45045418
  PAW double counting   =       611.32343094     -613.72034154
  entropy T*S    EENTRO =        -0.02703865
  eigenvalues    EBANDS =      -195.76730185
  atomic energy  EATOM  =       858.12565962
  ---------------------------------------------------
  free energy    TOTEN  =        -8.69522221 eV

  energy without entropy =       -8.66818357  energy(sigma->0) =       -8.68620933


--------------------------------------------------------------------------------------------------------




----------------------------------------- Iteration    1(  27)  ---------------------------------------


    POTLOK:  cpu time    1.92: real time    1.92
    SETDIJ:  cpu time    0.01: real time    0.01
     EDDAV:  cpu time    0.77: real time    0.77
       DOS:  cpu time    0.00: real time    0.00
    CHARGE:  cpu time    0.27: real time    0.27
    MIXING:  cpu time    0.09: real time    0.09
    --------------------------------------------
      LOOP:  cpu time    3.05: real time    3.07

 eigenvalue-minimisations  :    20
 total energy-change (2. order) :-0.1087043E-01  (-0.4174239E-02)
 number of electron      11.9999949 magnetization 
 augmentation part        0.9815884 magnetization 

 Broyden mixing:
  rms(total) = 0.12681E+00    rms(broyden)= 0.10082E+00
  rms(prec ) = 0.11358E+00
  weight for this iteration     100.00
  WARNING: grid for Broyden might be to small

 eigenvalues of (default mixing * dielectric matrix)
  average eigenvalue GAMMA=   1.3811
  6.7976  3.0111  2.5431  2.1889  2.1889  1.7842  1.7842  1.5861  0.8119  0.8119
  0.9584  0.7615  0.7615  0.7301  0.7301  0.5170  0.5170  0.2655  0.2738  0.4744
  0.4744  0.4129

 Free energy of the ion-electron system (eV)
  ---------------------------------------------------
  alpha Z        PSCENC =         0.57280012
  Ewald energy   TEWEN  =       126.15054829
  -1/2 Hartree   DENC   =      -849.80477610
  -exchange  EXHF       =         0.00000000
  -V(xc)+E(xc)   XCENC  =        54.44288680
  PAW double counting   =       611.32180528     -613.71865259
  entropy T*S    EENTRO =        -0.02741089
  eigenvalues    EBANDS =      -195.76895318
  atomic energy  EATOM  =       858.12565962
  ---------------------------------------------------
  free energy    TOTEN  =        -8.70609264 eV

  energy without entropy =       -8.67868175  energy(sigma->0) =       -8.69695568


--------------------------------------------------------------------------------------------------------




----------------------------------------- Iteration    1(  28)  ---------------------------------------


    POTLOK:  cpu time    1.92: real time    1.93
    SETDIJ:  cpu time    0.01: real time    0.01
     EDDAV:  cpu time    0.77: real time    0.77
       DOS:  cpu time    0.00: real time    0.00
    CHARGE:  cpu time    0.27: real time    0.27
    MIXING:  cpu time    0.09: real time    0.09
    --------------------------------------------
      LOOP:  cpu time    3.06: real time    3.07

 eigenvalue-minimisations  :    20
 total energy-change (2. order) :-0.7392696E-03  (-0.3200803E-02)
 number of electron      11.9999952 magnetization 
 augmentation part        0.9816635 magnetization 

 Broyden mixing:
  rms(total) = 0.10550E+00    rms(broyden)= 0.81410E-01
  rms(prec ) = 0.91716E-01
  weight for this iteration     100.00
  WARNING: grid for Broyden might be to small

 eigenvalues of (default mixing * dielectric matrix)
  average eigenvalue GAMMA=   1.3322
  6.8371  3.0126  2.5421  2.1855  2.1855  1.7879  1.7879  1.5843  0.8504  0.8504
  0.1693  0.9583  0.7392  0.7392  0.7386  0.7386  0.5221  0.5221  0.2655  0.2739
  0.4673  0.4673  0.4142

 Free energy of the ion-electron system (eV)
  ---------------------------------------------------
  alpha Z        PSCENC =         0.57280012
  Ewald energy   TEWEN  =       126.15054829
  -1/2 Hartree   DENC   =      -849.79950411
  -exchange  EXHF       =         0.00000000
  -V(xc)+E(xc)   XCENC  =        54.44183229
  PAW double counting   =       611.30767847     -613.70451319
  entropy T*S    EENTRO =        -0.02752453
  eigenvalues    EBANDS =      -195.77380887
  atomic energy  EATOM  =       858.12565962
  ---------------------------------------------------
  free energy    TOTEN  =        -8.70683191 eV

  energy without entropy =       -8.67930738  energy(sigma->0) =       -8.69765706


--------------------------------------------------------------------------------------------------------




----------------------------------------- Iteration    1(  29)  ---------------------------------------


    POTLOK:  cpu time    1.93: real time    1.93
    SETDIJ:  cpu time    0.01: real time    0.01
     EDDAV:  cpu time    0.77: real time    0.77
       DOS:  cpu time    0.00: real time    0.00
    CHARGE:  cpu time    0.27: real time    0.27
    MIXING:  cpu time    0.09: real time    0.09
    --------------------------------------------
      LOOP:  cpu time    3.06: real time    3.10

 eigenvalue-minimisations  :    20
 total energy-change (2. order) :-0.6993935E-02  (-0.2268067E-02)
 number of electron      11.9999950 magnetization 
 augmentation part        0.9815612 magnetization 

 Broyden mixing:
  rms(total) = 0.91954E-01    rms(broyden)= 0.72609E-01
  rms(prec ) = 0.81804E-01
  weight for this iteration     100.00
  WARNING: grid for Broyden might be to small

 eigenvalues of (default mixing * dielectric matrix)
  average eigenvalue GAMMA=   1.3375
  6.7443  2.8454  2.5591  2.2049  2.2049  1.5927  1.5927  1.5984  1.1093  1.1093
  0.9599  0.8709  0.8709  0.7504  0.7504  0.6263  0.7613  0.5580  0.5580  0.2655
  0.2739  0.4366  0.4366  0.4203

 Free energy of the ion-electron system (eV)
  ---------------------------------------------------
  alpha Z        PSCENC =         0.57280012
  Ewald energy   TEWEN  =       126.15054829
  -1/2 Hartree   DENC   =      -849.79665507
  -exchange  EXHF       =         0.00000000
  -V(xc)+E(xc)   XCENC  =        54.43632827
  PAW double counting   =       611.29973735     -613.69650635
  entropy T*S    EENTRO =        -0.02781315
  eigenvalues    EBANDS =      -195.77792492
  atomic energy  EATOM  =       858.12565962
  ---------------------------------------------------
  free energy    TOTEN  =        -8.71382584 eV

  energy without entropy =       -8.68601269  energy(sigma->0) =       -8.70455479


--------------------------------------------------------------------------------------------------------




----------------------------------------- Iteration    1(  30)  ---------------------------------------


    POTLOK:  cpu time    1.93: real time    1.93
    SETDIJ:  cpu time    0.01: real time    0.01
     EDDAV:  cpu time    0.77: real time    0.77
       DOS:  cpu time    0.00: real time    0.00
    CHARGE:  cpu time    0.27: real time    0.27
    MIXING:  cpu time    0.09: real time    0.09
    --------------------------------------------
      LOOP:  cpu time    3.07: real time    3.08

 eigenvalue-minimisations  :    20
 total energy-change (2. order) :-0.1860613E-02  (-0.1797178E-02)
 number of electron      11.9999951 magnetization 
 augmentation part        0.9816101 magnetization 

 Broyden mixing:
  rms(total) = 0.81233E-01    rms(broyden)= 0.63665E-01
  rms(prec ) = 0.71731E-01
  weight for this iteration     100.00
  WARNING: grid for Broyden might be to small

 eigenvalues of (default mixing * dielectric matrix)
  average eigenvalue GAMMA=   1.3326
  6.7180  2.8761  2.5407  2.2325  2.2325  1.7280  1.7280  1.2157  1.2157  1.6118
  0.9315  0.9315  0.9593  0.7319  0.7319  0.7496  0.7496  0.5906  0.5906  0.2654
  0.2740  0.4819  0.4052  0.4115  0.4115

 Free energy of the ion-electron system (eV)
  ---------------------------------------------------
  alpha Z        PSCENC =         0.57280012
  Ewald energy   TEWEN  =       126.15054829
  -1/2 Hartree   DENC   =      -849.79091237
  -exchange  EXHF       =         0.00000000
  -V(xc)+E(xc)   XCENC  =        54.43471658
  PAW double counting   =       611.28954114     -613.68625461
  entropy T*S    EENTRO =        -0.02777570
  eigenvalues    EBANDS =      -195.78400953
  atomic energy  EATOM  =       858.12565962
  ---------------------------------------------------
  free energy    TOTEN  =        -8.71568646 eV

  energy without entropy =       -8.68791076  energy(sigma->0) =       -8.70642789


--------------------------------------------------------------------------------------------------------




----------------------------------------- Iteration    1(  31)  ---------------------------------------


    POTLOK:  cpu time    1.94: real time    1.94
    SETDIJ:  cpu time    0.01: real time    0.01
     EDDAV:  cpu time    0.76: real time    0.76
       DOS:  cpu time    0.00: real time    0.00
    CHARGE:  cpu time    0.27: real time    0.27
    MIXING:  cpu time    0.09: real time    0.10
    --------------------------------------------
      LOOP:  cpu time    3.08: real time    3.09

 eigenvalue-minimisations  :    20
 total energy-change (2. order) :-0.2213318E-02  (-0.1289890E-02)
 number of electron      11.9999950 magnetization 
 augmentation part        0.9815465 magnetization 

 Broyden mixing:
  rms(total) = 0.68108E-01    rms(broyden)= 0.52941E-01
  rms(prec ) = 0.59647E-01
  weight for this iteration     100.00
  WARNING: grid for Broyden might be to small

 eigenvalues of (default mixing * dielectric matrix)
  average eigenvalue GAMMA=   1.3848
  5.7179  3.1507  3.1507  3.2571  2.5505  1.9167  1.9167  1.6538  1.2254  1.2254
  1.0636  1.0636  0.9728  0.7357  0.7357  0.7435  0.7435  0.6628  0.6628  0.2654
  0.2739  0.4712  0.4712  0.5192  0.4087  0.4467

 Free energy of the ion-electron system (eV)
  ---------------------------------------------------
  alpha Z        PSCENC =         0.57280012
  Ewald energy   TEWEN  =       126.15054829
  -1/2 Hartree   DENC   =      -849.78674960
  -exchange  EXHF       =         0.00000000
  -V(xc)+E(xc)   XCENC  =        54.43255284
  PAW double counting   =       611.28125662     -613.67788119
  entropy T*S    EENTRO =        -0.02801079
  eigenvalues    EBANDS =      -195.78807569
  atomic energy  EATOM  =       858.12565962
  ---------------------------------------------------
  free energy    TOTEN  =        -8.71789977 eV

  energy without entropy =       -8.68988899  energy(sigma->0) =       -8.70856284


--------------------------------------------------------------------------------------------------------




----------------------------------------- Iteration    1(  32)  ---------------------------------------


    POTLOK:  cpu time    1.94: real time    1.94
    SETDIJ:  cpu time    0.01: real time    0.01
     EDDAV:  cpu time    0.76: real time    0.76
       DOS:  cpu time    0.00: real time    0.00
    CHARGE:  cpu time    0.27: real time    0.27
    MIXING:  cpu time    0.10: real time    0.10
    --------------------------------------------
      LOOP:  cpu time    3.08: real time    3.09

 eigenvalue-minimisations  :    20
 total energy-change (2. order) :-0.2761129E-02  (-0.1028276E-02)
 number of electron      11.9999951 magnetization 
 augmentation part        0.9815794 magnetization 

 Broyden mixing:
  rms(total) = 0.62286E-01    rms(broyden)= 0.49450E-01
  rms(prec ) = 0.55717E-01
  weight for this iteration     100.00
  WARNING: grid for Broyden might be to small

 eigenvalues of (default mixing * dielectric matrix)
  average eigenvalue GAMMA=   1.3488
  5.8124  3.1403  3.1403  3.2290  2.5609  1.8593  1.8593  1.6661  1.3055  1.3055
  1.0696  1.0696  0.9772  0.7365  0.7365  0.7546  0.7546  0.6534  0.6534  0.4453
  0.4453  0.5163  0.2656  0.2738  0.3605  0.4186  0.4086

 Free energy of the ion-electron system (eV)
  ---------------------------------------------------
  alpha Z        PSCENC =         0.57280012
  Ewald energy   TEWEN  =       126.15054829
  -1/2 Hartree   DENC   =      -849.78328659
  -exchange  EXHF       =         0.00000000
  -V(xc)+E(xc)   XCENC  =        54.43033396
  PAW double counting   =       611.27877175     -613.67534176
  entropy T*S    EENTRO =        -0.02793589
  eigenvalues    EBANDS =      -195.79221042
  atomic energy  EATOM  =       858.12565962
  ---------------------------------------------------
  free energy    TOTEN  =        -8.72066090 eV

  energy without entropy =       -8.69272502  energy(sigma->0) =       -8.71134894


--------------------------------------------------------------------------------------------------------




----------------------------------------- Iteration    1(  33)  ---------------------------------------


    POTLOK:  cpu time    1.94: real time    1.94
    SETDIJ:  cpu time    0.01: real time    0.01
     EDDAV:  cpu time    0.76: real time    0.76
       DOS:  cpu time    0.00: real time    0.00
    CHARGE:  cpu time    0.27: real time    0.27
    MIXING:  cpu time    0.10: real time    0.10
    --------------------------------------------
      LOOP:  cpu time    3.08: real time    3.10

 eigenvalue-minimisations  :    20
 total energy-change (2. order) :-0.2367355E-03  (-0.7214230E-03)
 number of electron      11.9999950 magnetization 
 augmentation part        0.9815371 magnetization 

 Broyden mixing:
  rms(total) = 0.49837E-01    rms(broyden)= 0.38055E-01
  rms(prec ) = 0.42877E-01
  weight for this iteration     100.00
  WARNING: grid for Broyden might be to small

 eigenvalues of (default mixing * dielectric matrix)
  average eigenvalue GAMMA=   1.4068
  5.7365  3.6899  3.4932  3.4932  2.5187  1.9244  1.9244  1.5940  1.5940  1.5852
  1.0117  1.0117  0.7736  0.7736  0.9478  0.8944  0.8944  0.6433  0.6433  0.2654
  0.2740  0.5677  0.5677  0.5587  0.5335  0.6250  0.4416  0.4084

 Free energy of the ion-electron system (eV)
  ---------------------------------------------------
  alpha Z        PSCENC =         0.57280012
  Ewald energy   TEWEN  =       126.15054829
  -1/2 Hartree   DENC   =      -849.77985797
  -exchange  EXHF       =         0.00000000
  -V(xc)+E(xc)   XCENC  =        54.42978682
  PAW double counting   =       611.27312732     -613.66961628
  entropy T*S    EENTRO =        -0.02811570
  eigenvalues    EBANDS =      -195.79522985
  atomic energy  EATOM  =       858.12565962
  ---------------------------------------------------
  free energy    TOTEN  =        -8.72089764 eV

  energy without entropy =       -8.69278194  energy(sigma->0) =       -8.71152574


--------------------------------------------------------------------------------------------------------




----------------------------------------- Iteration    1(  34)  ---------------------------------------


    POTLOK:  cpu time    2.47: real time    2.47
    SETDIJ:  cpu time    0.01: real time    0.01
     EDDAV:  cpu time    0.93: real time    0.93
       DOS:  cpu time    0.00: real time    0.00
    CHARGE:  cpu time    0.38: real time    0.38
    MIXING:  cpu time    0.13: real time    0.13
    --------------------------------------------
      LOOP:  cpu time    3.91: real time    3.93

 eigenvalue-minimisations  :    20
 total energy-change (2. order) :-0.2418681E-02  (-0.5595788E-03)
 number of electron      11.9999951 magnetization 
 augmentation part        0.9815650 magnetization 

 Broyden mixing:
  rms(total) = 0.46288E-01    rms(broyden)= 0.37095E-01
  rms(prec ) = 0.41794E-01
  weight for this iteration     100.00
  WARNING: grid for Broyden might be to small

 eigenvalues of (default mixing * dielectric matrix)
  average eigenvalue GAMMA=   1.3832
  5.6580  3.9281  3.6147  3.6147  2.5179  1.9329  1.9329  1.6216  1.6216  1.5847
  1.0283  1.0283  0.8015  0.8015  0.9451  0.8359  0.8359  0.6548  0.6548  0.5688
  0.5688  0.2654  0.2739  0.5325  0.5325  0.5088  0.4197  0.4197  0.4092

 Free energy of the ion-electron system (eV)
  ---------------------------------------------------
  alpha Z        PSCENC =         0.57280012
  Ewald energy   TEWEN  =       126.15054829
  -1/2 Hartree   DENC   =      -849.77754488
  -exchange  EXHF       =         0.00000000
  -V(xc)+E(xc)   XCENC  =        54.42755414
  PAW double counting   =       611.27240678     -613.66886042
  entropy T*S    EENTRO =        -0.02804512
  eigenvalues    EBANDS =      -195.79783485
  atomic energy  EATOM  =       858.12565962
  ---------------------------------------------------
  free energy    TOTEN  =        -8.72331632 eV

  energy without entropy =       -8.69527119  energy(sigma->0) =       -8.71396794


--------------------------------------------------------------------------------------------------------




----------------------------------------- Iteration    1(  35)  ---------------------------------------


    POTLOK:  cpu time    2.45: real time    2.45
    SETDIJ:  cpu time    0.01: real time    0.01
     EDDAV:  cpu time    0.93: real time    0.93
       DOS:  cpu time    0.00: real time    0.00
    CHARGE:  cpu time    0.38: real time    0.38
    MIXING:  cpu time    0.13: real time    0.13
    --------------------------------------------
      LOOP:  cpu time    3.90: real time    3.92

 eigenvalue-minimisations  :    20
 total energy-change (2. order) : 0.2766526E-03  (-0.3664431E-03)
 number of electron      11.9999950 magnetization 
 augmentation part        0.9815348 magnetization 

 Broyden mixing:
  rms(total) = 0.35191E-01    rms(broyden)= 0.26376E-01
  rms(prec ) = 0.29717E-01
  weight for this iteration     100.00
  WARNING: grid for Broyden might be to small

 eigenvalues of (default mixing * dielectric matrix)
  average eigenvalue GAMMA=   1.4046
  6.3045  3.7744  3.7744  3.7097  2.5207  1.7635  1.7635  1.5797  1.5797  1.5567
  1.2375  1.2375  0.9552  0.9552  0.9495  0.7920  0.7920  0.7499  0.7499  0.6037
  0.6157  0.2654  0.2740  0.5555  0.5555  0.5127  0.6642  0.4913  0.4089  0.4464

 Free energy of the ion-electron system (eV)
  ---------------------------------------------------
  alpha Z        PSCENC =         0.57280012
[...]
  average eigenvalue GAMMA=   1.2544
  3.8056  2.4686  2.0108  2.0108  1.1881  1.1881  0.0788  1.0839  0.9736  0.6713
  0.6713  0.5128  0.5128  0.3845

 Free energy of the ion-electron system (eV)
  ---------------------------------------------------
  alpha Z        PSCENC =         0.57280012
  Ewald energy   TEWEN  =       127.40470719
  -1/2 Hartree   DENC   =      -850.84906155
  -exchange  EXHF       =         0.00000000
  -V(xc)+E(xc)   XCENC  =        54.45152166
  PAW double counting   =       612.57133428     -614.97156837
  entropy T*S    EENTRO =        -0.02820892
  eigenvalues    EBANDS =      -196.00495378
  atomic energy  EATOM  =       858.12565962
  ---------------------------------------------------
  free energy    TOTEN  =        -8.72776974 eV

  energy without entropy =       -8.69956083  energy(sigma->0) =       -8.71836677


--------------------------------------------------------------------------------------------------------




----------------------------------------- Iteration    3(  16)  ---------------------------------------


    POTLOK:  cpu time    2.45: real time    2.45
    SETDIJ:  cpu time    0.01: real time    0.01
     EDDAV:  cpu time    0.92: real time    0.92
       DOS:  cpu time    0.00: real time    0.00
    CHARGE:  cpu time    0.38: real time    0.38
    MIXING:  cpu time    0.09: real time    0.09
    --------------------------------------------
      LOOP:  cpu time    3.85: real time    3.87

 eigenvalue-minimisations  :    20
 total energy-change (2. order) :-0.6165119E-03  (-0.2715157E-05)
 number of electron      11.9999950 magnetization 
 augmentation part        0.9838020 magnetization 

 Broyden mixing:
  rms(total) = 0.57970E-02    rms(broyden)= 0.50231E-02
  rms(prec ) = 0.56604E-02
  weight for this iteration     100.00
  WARNING: grid for Broyden might be to small

 eigenvalues of (default mixing * dielectric matrix)
  average eigenvalue GAMMA=   1.2049
  3.6788  2.4028  2.1427  2.1427  1.1994  1.1994  0.0788  1.0636  0.9829  0.7022
  0.7022  0.4855  0.4855  0.3800  0.4263

 Free energy of the ion-electron system (eV)
  ---------------------------------------------------
  alpha Z        PSCENC =         0.57280012
  Ewald energy   TEWEN  =       127.40470719
  -1/2 Hartree   DENC   =      -850.84762762
  -exchange  EXHF       =         0.00000000
  -V(xc)+E(xc)   XCENC  =        54.45096285
  PAW double counting   =       612.57199932     -614.97221908
  entropy T*S    EENTRO =        -0.02819890
  eigenvalues    EBANDS =      -196.00646976
  atomic energy  EATOM  =       858.12565962
  ---------------------------------------------------
  free energy    TOTEN  =        -8.72838626 eV

  energy without entropy =       -8.70018736  energy(sigma->0) =       -8.71898662


--------------------------------------------------------------------------------------------------------




----------------------------------------- Iteration    3(  17)  ---------------------------------------


    POTLOK:  cpu time    2.45: real time    2.45
    SETDIJ:  cpu time    0.01: real time    0.01
     EDDAV:  cpu time    0.92: real time    0.92
       DOS:  cpu time    0.00: real time    0.00
    CHARGE:  cpu time    0.39: real time    0.39
    MIXING:  cpu time    0.09: real time    0.09
    --------------------------------------------
      LOOP:  cpu time    3.85: real time    3.87

 eigenvalue-minimisations  :    20
 total energy-change (2. order) : 0.2508884E-03  (-0.1804626E-05)
 number of electron      11.9999950 magnetization 
 augmentation part        0.9838022 magnetization 

 Broyden mixing:
  rms(total) = 0.22863E-02    rms(broyden)= 0.89484E-03
  rms(prec ) = 0.10102E-02
  weight for this iteration     100.00
  WARNING: grid for Broyden might be to small

 eigenvalues of (default mixing * dielectric matrix)
  average eigenvalue GAMMA=   1.3102
  4.3504  2.4297  2.4297  2.5268  1.7016  0.9865  0.9865  0.0788  1.0282  0.8537
  0.8537  0.6467  0.6467  0.3840  0.5301  0.5301

 Free energy of the ion-electron system (eV)
  ---------------------------------------------------
  alpha Z        PSCENC =         0.57280012
  Ewald energy   TEWEN  =       127.40470719
  -1/2 Hartree   DENC   =      -850.84631556
  -exchange  EXHF       =         0.00000000
  -V(xc)+E(xc)   XCENC  =        54.45108137
  PAW double counting   =       612.57087488     -614.97107510
  entropy T*S    EENTRO =        -0.02820729
  eigenvalues    EBANDS =      -196.00766060
  atomic energy  EATOM  =       858.12565962
  ---------------------------------------------------
  free energy    TOTEN  =        -8.72813537 eV

  energy without entropy =       -8.69992808  energy(sigma->0) =       -8.71873294


--------------------------------------------------------------------------------------------------------




----------------------------------------- Iteration    3(  18)  ---------------------------------------


    POTLOK:  cpu time    2.45: real time    2.46
    SETDIJ:  cpu time    0.01: real time    0.01
     EDDAV:  cpu time    0.93: real time    0.93
       DOS:  cpu time    0.00: real time    0.00
    CHARGE:  cpu time    0.38: real time    0.38
    MIXING:  cpu time    0.09: real time    0.09
    --------------------------------------------
      LOOP:  cpu time    3.86: real time    3.88

 eigenvalue-minimisations  :    20
 total energy-change (2. order) :-0.3154147E-03  (-0.1105528E-05)
 number of electron      11.9999950 magnetization 
 augmentation part        0.9838013 magnetization 

 Broyden mixing:
  rms(total) = 0.28957E-02    rms(broyden)= 0.26378E-02
  rms(prec ) = 0.29726E-02
  weight for this iteration     100.00

 eigenvalues of (default mixing * dielectric matrix)
  average eigenvalue GAMMA=   1.3553
  5.4534  2.7553  2.2417  2.0328  2.0328  1.2546  1.0414  1.0414  0.0788  1.0196
  0.7370  0.7370  0.6015  0.6015  0.3840  0.5372  0.4894

 Free energy of the ion-electron system (eV)
  ---------------------------------------------------
  alpha Z        PSCENC =         0.57280012
  Ewald energy   TEWEN  =       127.40470719
  -1/2 Hartree   DENC   =      -850.84551135
  -exchange  EXHF       =         0.00000000
  -V(xc)+E(xc)   XCENC  =        54.45081409
  PAW double counting   =       612.57123088     -614.97142132
  entropy T*S    EENTRO =        -0.02820299
  eigenvalues    EBANDS =      -196.00852703
  atomic energy  EATOM  =       858.12565962
  ---------------------------------------------------
  free energy    TOTEN  =        -8.72845078 eV

  energy without entropy =       -8.70024779  energy(sigma->0) =       -8.71904979


--------------------------------------------------------------------------------------------------------




----------------------------------------- Iteration    3(  19)  ---------------------------------------


    POTLOK:  cpu time    2.45: real time    2.45
    SETDIJ:  cpu time    0.01: real time    0.01
     EDDAV:  cpu time    0.92: real time    0.92
       DOS:  cpu time    0.00: real time    0.00
    CHARGE:  cpu time    0.38: real time    0.38
    MIXING:  cpu time    0.09: real time    0.09
    --------------------------------------------
      LOOP:  cpu time    3.86: real time    3.87

 eigenvalue-minimisations  :    20
 total energy-change (2. order) : 0.1415331E-03  (-0.4987993E-06)
 number of electron      11.9999950 magnetization 
 augmentation part        0.9838012 magnetization 

 Broyden mixing:
  rms(total) = 0.95225E-03    rms(broyden)= 0.10332E-04
  rms(prec ) = 0.37492E-04
  weight for this iteration     100.00
  WARNING: grid for Broyden might be to small

 eigenvalues of (default mixing * dielectric matrix)
  average eigenvalue GAMMA=   1.3631
  5.8325  2.7393  2.3670  2.0583  2.0583  1.3993  1.0254  1.0254  0.0788  0.9955
  0.7573  0.7573  0.6990  0.6990  0.5793  0.5793  0.3839  0.5014

 Free energy of the ion-electron system (eV)
  ---------------------------------------------------
  alpha Z        PSCENC =         0.57280012
  Ewald energy   TEWEN  =       127.40470719
  -1/2 Hartree   DENC   =      -850.84465599
  -exchange  EXHF       =         0.00000000
  -V(xc)+E(xc)   XCENC  =        54.45087007
  PAW double counting   =       612.57088747     -614.97106814
  entropy T*S    EENTRO =        -0.02820639
  eigenvalues    EBANDS =      -196.00930322
  atomic energy  EATOM  =       858.12565962
  ---------------------------------------------------
  free energy    TOTEN  =        -8.72830925 eV

  energy without entropy =       -8.70010286  energy(sigma->0) =       -8.71890712


--------------------------------------------------------------------------------------------------------




----------------------------------------- Iteration    3(  20)  ---------------------------------------


    POTLOK:  cpu time    2.45: real time    2.45
    SETDIJ:  cpu time    0.00: real time    0.01
     EDDAV:  cpu time    0.92: real time    0.92
       DOS:  cpu time    0.00: real time    0.00
    CHARGE:  cpu time    0.38: real time    0.38
    MIXING:  cpu time    0.10: real time    0.10
    --------------------------------------------
      LOOP:  cpu time    3.85: real time    3.87

 eigenvalue-minimisations  :    20
 total energy-change (2. order) :-0.1286687E-03  (-0.3531262E-06)
 number of electron      11.9999950 magnetization 
 augmentation part        0.9838011 magnetization 

 Broyden mixing:
  rms(total) = 0.13459E-02    rms(broyden)= 0.12843E-02
  rms(prec ) = 0.14475E-02
  weight for this iteration     100.00

 eigenvalues of (default mixing * dielectric matrix)
  average eigenvalue GAMMA=   1.4094
  6.3724  2.8985  2.4479  2.2038  2.2038  1.1168  1.1168  1.0126  1.0126  0.0788
  1.0877  0.9293  0.7455  0.7455  0.6571  0.6571  0.3840  0.6047  0.5043

 Free energy of the ion-electron system (eV)
  ---------------------------------------------------
  alpha Z        PSCENC =         0.57280012
  Ewald energy   TEWEN  =       127.40470719
  -1/2 Hartree   DENC   =      -850.84406207
  -exchange  EXHF       =         0.00000000
  -V(xc)+E(xc)   XCENC  =        54.45075854
  PAW double counting   =       612.57112199     -614.97129681
  entropy T*S    EENTRO =        -0.02820485
  eigenvalues    EBANDS =      -196.00992165
  atomic energy  EATOM  =       858.12565962
  ---------------------------------------------------
  free energy    TOTEN  =        -8.72843792 eV

  energy without entropy =       -8.70023307  energy(sigma->0) =       -8.71903630


--------------------------------------------------------------------------------------------------------




----------------------------------------- Iteration    3(  21)  ---------------------------------------


    POTLOK:  cpu time    2.46: real time    2.46
    SETDIJ:  cpu time    0.01: real time    0.01
     EDDAV:  cpu time    0.92: real time    0.93
       DOS:  cpu time    0.00: real time    0.00
    --------------------------------------------
      LOOP:  cpu time    3.39: real time    3.40

 eigenvalue-minimisations  :    20
 total energy-change (2. order) : 0.3898847E-04  (-0.5673328E-07)
 number of electron      11.9999950 magnetization 
 augmentation part        0.9838011 magnetization 

 Free energy of the ion-electron system (eV)
  ---------------------------------------------------
  alpha Z        PSCENC =         0.57280012
  Ewald energy   TEWEN  =       127.40470719
  -1/2 Hartree   DENC   =      -850.84346402
  -exchange  EXHF       =         0.00000000
  -V(xc)+E(xc)   XCENC  =        54.45076385
  PAW double counting   =       612.57122111     -614.97139204
  entropy T*S    EENTRO =        -0.02820633
  eigenvalues    EBANDS =      -196.01048843
  atomic energy  EATOM  =       858.12565962
  ---------------------------------------------------
  free energy    TOTEN  =        -8.72839893 eV

  energy without entropy =       -8.70019260  energy(sigma->0) =       -8.71899682


--------------------------------------------------------------------------------------------------------




 average (electrostatic) potential at core
  the test charge radii are     0.7215
  (the norm of the test charge is              1.0000)
       1 -85.9955       2 -85.9955
 
 
 
 E-fermi :  -5.9302     XC(G=0):  -0.7722     alpha+bet : -0.1544


 k-point   1 :       0.0000    0.0000    0.0000
  band No.  band energies     occupation 
      1     -32.8639      2.00000
      2     -20.5022      2.00000
      3     -13.2554      2.00000
      4     -12.7311      2.00000
      5     -12.7224      2.00000
      6      -5.9305      1.01032
      7      -5.9299      0.98968
      8      -0.4040      0.00000
      9       0.8872      0.00000
     10       1.0523      0.00000


--------------------------------------------------------------------------------------------------------


 soft charge-density along one line, spin component           1
         0         1         2         3         4         5         6         7         8         9
 total charge-density along one line
 
 pseudopotential strength for first ion, spin component:           1
 14.555  -0.669   0.000   0.000  -0.132   0.000   0.000   0.007
 -0.669   0.151   0.000   0.000   0.016   0.000   0.000  -0.003
  0.000   0.000 -11.650   0.000   0.000   0.612   0.000   0.000
  0.000   0.000   0.000 -11.652   0.000   0.000   0.613   0.000
 -0.132   0.016   0.000   0.000 -11.827   0.000   0.000   0.640
  0.000   0.000   0.612   0.000   0.000   0.023   0.000   0.000
  0.000   0.000   0.000   0.613   0.000   0.000   0.023   0.000
  0.007  -0.003   0.000   0.000   0.640   0.000   0.000   0.015
 total augmentation occupancy for first ion, spin component:           1
  2.024   0.393   0.000   0.000  -0.194   0.000   0.000  -0.003
  0.393   0.130   0.000   0.000   0.180   0.000   0.000   0.092
  0.000   0.000   1.502   0.000   0.000   0.280   0.000   0.000
  0.000   0.000   0.000   1.488   0.000   0.000   0.282   0.000
 -0.194   0.180   0.000   0.000   1.321   0.000   0.000   0.454
  0.000   0.000   0.280   0.000   0.000   0.061   0.000   0.000
  0.000   0.000   0.000   0.282   0.000   0.000   0.062   0.000
 -0.003   0.092   0.000   0.000   0.454   0.000   0.000   0.174


------------------------ aborting loop because EDIFF is reached ----------------------------------------


    CHARGE:  cpu time    0.39: real time    0.39
    FORLOC:  cpu time    0.10: real time    0.10
    FORNL :  cpu time    0.04: real time    0.04
    STRESS:  cpu time    0.26: real time    0.26
    FORHAR:  cpu time    0.70: real time    0.70
    MIXING:  cpu time    0.10: real time    0.10

  FORCE on cell =-STRESS in cart. coord.  units (eV):
  Direction    XX          YY          ZZ          XY          YZ          ZX
  --------------------------------------------------------------------------------------
  Alpha Z     0.57280     0.57280     0.57280
  Ewald     330.07607   -99.83564  -102.83583     0.00000     0.00000     0.00000
  Hartree   417.43854   218.27543   215.12922     0.00000     0.00000     0.00000
  E(xc)     -56.74070   -57.98808   -57.98962     0.00000     0.00000     0.00000
  Local    -900.14401  -316.81607  -310.28033     0.00000     0.00000     0.00000
  n-local   -55.86352   -52.03500   -51.91719     0.00000     0.00000     0.00000
  augment     9.33406    11.86461    11.77849     0.00000     0.00000     0.00000
  Kinetic   234.67490   274.15206   273.38347     0.00000     0.00000     0.00000
  Fock        0.00000     0.00000     0.00000     0.00000     0.00000     0.00000
  -------------------------------------------------------------------------------------
  Total     -20.65187   -21.80989   -22.15899     0.00000     0.00000     0.00000
  in kB     -34.10427   -36.01661   -36.59310     0.00000     0.00000     0.00000
  external pressure =      -35.57 kB  Pullay stress =        0.00 kB


 VOLUME and BASIS-vectors are now :
 -----------------------------------------------------------------------------
  energy-cutoff  :      250.00
  volume of cell :      970.20
      direct lattice vectors                 reciprocal lattice vectors
     9.800000000  0.000000000  0.000000000     0.102040816  0.000000000  0.000000000
     0.000000000  9.900000000  0.000000000     0.000000000  0.101010101  0.000000000
     0.000000000  0.000000000 10.000000000     0.000000000  0.000000000  0.100000000

  length of vectors
     9.800000000  9.900000000 10.000000000     0.102040816  0.101010101  0.100000000


 FORCES acting on ions
    electron-ion (+dipol)            ewald-force                    non-local-force                 convergence-correction
 -----------------------------------------------------------------------------------------------
   0.288E+03 0.762E-14 0.637E-06   -.342E+03 0.447E-16 -.421E-16   0.537E+02 0.000E+00 0.000E+00   -.104E-03 0.114E-12 0.817E-13
   -.288E+03 0.124E-13 -.994E-05   0.342E+03 0.153E-16 -.108E-16   -.537E+02 0.000E+00 0.000E+00   0.104E-03 0.118E-12 -.270E-13
 -----------------------------------------------------------------------------------------------
   -.507E-04 0.200E-13 -.930E-05   0.000E+00 0.600E-16 -.530E-16   -.142E-13 0.000E+00 0.000E+00   0.119E-06 0.232E-12 0.547E-13
 
 
 POSITION                                       TOTAL-FORCE (eV/Angst)
 -----------------------------------------------------------------------------------
      0.00184      0.00000      0.00000         0.018695      0.000000      0.000000
      1.22816      0.00000      0.00000        -0.018695      0.000000      0.000000
 -----------------------------------------------------------------------------------
    total drift:                               -0.000051      0.000000     -0.000009


--------------------------------------------------------------------------------------------------------



  FREE ENERGIE OF THE ION-ELECTRON SYSTEM (eV)
  ---------------------------------------------------
  free  energy   TOTEN  =        -8.728399 eV

  energy  without entropy=       -8.700193  energy(sigma->0) =       -8.718997
 
 d Force = 0.8177241E-02[-0.317E-03, 0.167E-01]  d Energy = 0.8203216E-02-0.260E-04
 d Force = 0.5872759E+01[ 0.579E+01, 0.596E+01]  d Ewald  = 0.5872186E+01 0.573E-03


--------------------------------------------------------------------------------------------------------


    POTLOK:  cpu time    2.46: real time    2.46


--------------------------------------------------------------------------------------------------------


 Quasi-Newton relaxation of ions (Broydens 2nd method)
  g(Force)  = 0.337E-04   g(Stress)= 0.000E+00

 retain information from N=  1 steps
 eigenvalues of (default step * inverse Hessian matrix)
  average eigenvalue of G=   0.1752
 eigenvalue spectrum of G is  0.1752


--------------------------------------------------------------------------------------------------------


  
 reached required accuracy - stopping structural energy minimisation
 writing wavefunctions
     LOOP+:  cpu time   82.57: real time   83.17
    4ORBIT:  cpu time    0.00: real time    0.00

 total amount of memory used by VASP on root node   143456. kBytes
========================================================================

   base      :      30000. kBytes
   nonl-proj :        833. kBytes
   fftplans  :      43668. kBytes
   grid      :      67557. kBytes
   one-center:          6. kBytes
   wavefun   :       1392. kBytes
 
  
  
 General timing and accounting informations for this job:
 ========================================================
  
                  Total CPU time used (sec):      315.103
                            User time (sec):      311.752
                          System time (sec):        3.351
                         Elapsed time (sec):      318.833
  
                   Maximum memory used (kb):           0.
                   Average memory used (kb):           0.
  
                          Minor page faults:      1315706
                          Major page faults:            0
                 Voluntary context switches:         3665
