   4   4   1   0
  0.8797333E+01  0.2461200E-09  0.2461200E-09  0.6707900E-09  0.5000000E-15
  1.000000000000000E-004
  CAR 
 unknown system                          
     20.46327132    -16.69022241  301      4.72287334      1.00000000
    -16.690  0.0000E+00  0.0000E+00  0.0000E+00  0.0000E+00
    -16.566  0.0000E+00  0.0000E+00  0.0000E+00  0.0000E+00
    -16.443  0.0000E+00  0.0000E+00  0.0000E+00  0.0000E+00
    -16.319  0.0000E+00  0.0000E+00  0.0000E+00  0.0000E+00
    -16.195  0.0000E+00  0.0000E+00  0.0000E+00  0.0000E+00
    -16.071  0.0000E+00  0.0000E+00  0.0000E+00  0.0000E+00
    -15.947  0.0000E+00  0.0000E+00  0.0000E+00  0.0000E+00
    -15.823  0.0000E+00  0.0000E+00  0.0000E+00  0.0000E+00
    -15.699  0.0000E+00  0.0000E+00  0.0000E+00  0.0000E+00
    -15.576  0.0000E+00  0.0000E+00  0.0000E+00  0.0000E+00
    -15.452 -0.5581E-36 -0.8105E-41 -0.6912E-37 -0.1004E-41
    -15.328 -0.2115E-19 -0.6173E-23 -0.2619E-20 -0.7645E-24
    -15.204 -0.3224E-08 -0.1929E-10 -0.3993E-09 -0.2388E-11
    -15.080 -0.1611E-02 -0.2303E-03 -0.1995E-03 -0.2852E-04
    -14.956  0.1138E+00  0.5809E-01  0.1390E-01  0.7166E-02
    -14.833  0.1374E+00  0.1606E+00  0.3091E-01  0.2705E-01
    -14.709  0.1588E+00  0.1393E+00  0.5057E-01  0.4430E-01
    -14.585  0.4035E-01  0.9179E-01  0.5557E-01  0.5567E-01
    -14.461 -0.5446E-03 -0.9382E-03  0.5550E-01  0.5555E-01
    -14.337  0.2061E+00  0.9336E-02  0.8103E-01  0.5671E-01
    -14.213  0.1046E+01  0.1073E+01  0.2106E+00  0.1896E+00
    -14.089  0.8534E+00  0.7614E+00  0.3163E+00  0.2839E+00
    -13.966  0.5928E+00  0.8677E+00  0.3897E+00  0.3913E+00
    -13.842 -0.6648E-02 -0.1967E-01  0.3889E+00  0.3889E+00
    -13.718 -0.6981E-08 -0.5592E-06  0.3889E+00  0.3889E+00
    -13.594  0.0000E+00  0.0000E+00  0.3889E+00  0.3889E+00
    -13.470 -0.7206E-34 -0.1842E-38  0.3889E+00  0.3889E+00
    -13.346 -0.1161E-17 -0.5419E-21  0.3889E+00  0.3889E+00
    -13.223 -0.7606E-07 -0.6590E-09  0.3889E+00  0.3889E+00
    -13.099 -0.1489E-01 -0.2995E-02  0.3870E+00  0.3885E+00
    -12.975  0.8206E+00  0.4838E+00  0.4887E+00  0.4484E+00
    -12.851  0.8558E+00  0.1000E+01  0.5947E+00  0.5723E+00
    -12.727  0.1042E+01  0.1094E+01  0.7237E+00  0.7078E+00
    -12.603 -0.1159E-01  0.1162E+00  0.7222E+00  0.7222E+00
    -12.479 -0.3511E-02 -0.4974E-03  0.7218E+00  0.7222E+00
    -12.356  0.5191E+00  0.1809E+00  0.7861E+00  0.7446E+00
    -12.232  0.1018E+01  0.1157E+01  0.9121E+00  0.8879E+00
    -12.108  0.1121E+01  0.1087E+01  0.1051E+01  0.1023E+01
    -11.984  0.3745E-01  0.2676E+00  0.1056E+01  0.1056E+01
    -11.860 -0.4449E-04 -0.7380E-03  0.1056E+01  0.1056E+01
    -11.736 -0.8790E-13 -0.2735E-10  0.1056E+01  0.1056E+01
    -11.613  0.0000E+00  0.0000E+00  0.1056E+01  0.1056E+01
    -11.489  0.0000E+00  0.0000E+00  0.1056E+01  0.1056E+01
    -11.365  0.0000E+00  0.0000E+00  0.1056E+01  0.1056E+01
    -11.241  0.0000E+00  0.0000E+00  0.1056E+01  0.1056E+01
    -11.117  0.0000E+00  0.0000E+00  0.1056E+01  0.1056E+01
    -10.993 -0.1312E-40 -0.1787E-45  0.1056E+01  0.1056E+01
    -10.870 -0.1719E-22 -0.3874E-26  0.1056E+01  0.1056E+01
    -10.746 -0.9607E-10 -0.3589E-12  0.1056E+01  0.1056E+01
    -10.622 -0.2124E-02 -0.1399E-03  0.1055E+01  0.1056E+01
    -10.498  0.6801E+00  0.1211E+00  0.1140E+01  0.1071E+01
    -10.374  0.2474E+01  0.2582E+01  0.1446E+01  0.1390E+01
    -10.250  0.2272E+01  0.2513E+01  0.1727E+01  0.1701E+01
    -10.126 -0.4058E-01  0.1680E+00  0.1722E+01  0.1722E+01
    -10.003 -0.7305E-05 -0.2068E-03  0.1722E+01  0.1722E+01
     -9.879 -0.4902E-10 -0.1109E-11  0.1722E+01  0.1722E+01
     -9.755 -0.8825E-03 -0.8150E-04  0.1722E+01  0.1722E+01
     -9.631  0.2457E+00  0.6173E-01  0.1753E+01  0.1730E+01
     -9.507  0.1105E+01  0.1070E+01  0.1889E+01  0.1862E+01
     -9.383 -0.4390E-02  0.2146E+00  0.1889E+01  0.1889E+01
     -9.260 -0.9921E-05 -0.5832E-03  0.1889E+01  0.1889E+01
     -9.136  0.0000E+00 -0.1807E-10  0.1889E+01  0.1889E+01
     -9.012 -0.2694E-33 -0.2569E-35  0.1889E+01  0.1889E+01
     -8.888 -0.3309E-17 -0.1124E-18  0.1889E+01  0.1889E+01
     -8.764 -0.1630E-06 -0.2006E-07  0.1889E+01  0.1889E+01
     -8.640 -0.2008E-01 -0.1062E-01  0.1886E+01  0.1888E+01
     -8.516  0.1039E+01  0.7678E+00  0.2015E+01  0.1983E+01
     -8.393  0.3281E+00  0.5959E+00  0.2056E+01  0.2056E+01
     -8.269 -0.1482E-02 -0.7321E-02  0.2056E+01  0.2056E+01
     -8.145 -0.2172E-06 -0.7855E-05  0.2056E+01  0.2056E+01
     -8.021 -0.1647E-01  0.3464E-02  0.2054E+01  0.2056E+01
     -7.897  0.1172E+01  0.4185E+00  0.2199E+01  0.2108E+01
     -7.773  0.5624E+00  0.1398E+01  0.2268E+01  0.2281E+01
     -7.650  0.7631E-01 -0.2572E-01  0.2278E+01  0.2278E+01
     -7.526 -0.1557E-03 -0.1008E-04  0.2278E+01  0.2278E+01
     -7.402 -0.2646E-11 -0.9380E-14  0.2278E+01  0.2278E+01
     -7.278 -0.1298E-43  0.0000E+00  0.2278E+01  0.2278E+01
     -7.154 -0.1023E-24 -0.6931E-28  0.2278E+01  0.2278E+01
     -7.030 -0.3545E-11 -0.2483E-13  0.2278E+01  0.2278E+01
     -6.906 -0.4991E-03 -0.3784E-04  0.2278E+01  0.2278E+01
     -6.783  0.3341E+00 -0.8470E-03  0.2319E+01  0.2278E+01
     -6.659  0.3577E+01  0.3214E+01  0.2762E+01  0.2676E+01
     -6.535  0.1485E+01  0.2211E+01  0.2946E+01  0.2950E+01
     -6.411 -0.1270E-01 -0.4116E-01  0.2944E+01  0.2944E+01
     -6.287 -0.5942E-08 -0.2606E-06  0.2944E+01  0.2944E+01
     -6.163 -0.9155E-16 -0.8204E-17  0.2944E+01  0.2944E+01
     -6.040 -0.1508E-05 -0.3682E-06  0.2944E+01  0.2944E+01
     -5.916 -0.3106E-01 -0.2948E-01  0.2941E+01  0.2941E+01
     -5.792  0.9590E+00  0.9561E+00  0.3059E+01  0.3059E+01
     -5.668 -0.3078E-01 -0.2944E-01  0.3056E+01  0.3056E+01
     -5.544 -0.5545E-06 -0.2218E-05  0.3056E+01  0.3056E+01
     -5.420 -0.1410E-32 -0.6188E-36  0.3056E+01  0.3056E+01
     -5.296 -0.1082E-16 -0.4158E-19  0.3056E+01  0.3056E+01
     -5.173 -0.3467E-06 -0.1193E-07  0.3056E+01  0.3056E+01
     -5.049 -0.2709E-01 -0.1106E-01  0.3052E+01  0.3054E+01
     -4.925  0.1303E+01  0.9531E+00  0.3214E+01  0.3172E+01
     -4.801  0.1448E+01  0.1742E+01  0.3393E+01  0.3388E+01
     -4.677 -0.3222E-01  0.7338E-02  0.3389E+01  0.3389E+01
     -4.553 -0.1511E-05 -0.2413E-04  0.3389E+01  0.3389E+01
     -4.430  0.0000E+00  0.0000E+00  0.3389E+01  0.3389E+01
     -4.306 -0.5252E-36 -0.3667E-47  0.3389E+01  0.3389E+01
     -4.182 -0.1999E-19 -0.1087E-27  0.3389E+01  0.3389E+01
     -4.058 -0.2876E-08 -0.1316E-13  0.3389E+01  0.3389E+01
     -3.934 -0.8978E-03 -0.5607E-05  0.3389E+01  0.3389E+01
     -3.810  0.3614E-01  0.6190E-02  0.3393E+01  0.3390E+01
     -3.686  0.7948E-01  0.5692E-01  0.3403E+01  0.3397E+01
     -3.563 -0.2623E-02  0.4925E-01  0.3403E+01  0.3403E+01
     -3.439 -0.3732E-01 -0.3757E-01  0.3398E+01  0.3398E+01
     -3.315  0.3540E+01  0.2838E+01  0.3837E+01  0.3750E+01
     -3.191  0.1970E+01  0.2692E+01  0.4081E+01  0.4083E+01
     -3.067  0.5633E+00  0.6812E-01  0.4150E+01  0.4092E+01
     -2.943  0.2687E+01  0.2856E+01  0.4483E+01  0.4445E+01
     -2.820  0.1742E+00  0.4966E+00  0.4505E+01  0.4507E+01
     -2.696 -0.1577E-01 -0.1731E-01  0.4503E+01  0.4505E+01
     -2.572  0.4784E+00  0.2106E+00  0.4562E+01  0.4531E+01
     -2.448  0.5039E-01  0.2377E+00  0.4568E+01  0.4560E+01
     -2.324  0.9561E-02  0.7748E-01  0.4569E+01  0.4570E+01
     -2.200  0.1795E+00 -0.1367E-01  0.4592E+01  0.4568E+01
     -2.077  0.2935E+00  0.4671E+00  0.4628E+01  0.4626E+01
     -1.953  0.4997E-01  0.6627E-01  0.4634E+01  0.4634E+01
     -1.829  0.3612E-01  0.1838E-01  0.4639E+01  0.4636E+01
     -1.705  0.1264E+01  0.5106E+00  0.4795E+01  0.4700E+01
     -1.581  0.3253E+01  0.4067E+01  0.5198E+01  0.5203E+01
     -1.457  0.1591E+00 -0.6900E-01  0.5218E+01  0.5195E+01
     -1.333  0.5736E+00  0.3336E+00  0.5289E+01  0.5236E+01
     -1.210  0.3536E+00  0.7366E+00  0.5333E+01  0.5327E+01
     -1.086  0.7640E+00  0.1645E+00  0.5427E+01  0.5348E+01
     -0.962  0.2656E+01  0.3326E+01  0.5756E+01  0.5759E+01
     -0.838 -0.5233E-01 -0.7647E-01  0.5750E+01  0.5750E+01
     -0.714  0.1838E+00 -0.5073E-02  0.5772E+01  0.5749E+01
     -0.590  0.2389E+01  0.1512E+01  0.6068E+01  0.5937E+01
     -0.467  0.1247E+01  0.2331E+01  0.6223E+01  0.6225E+01
     -0.343  0.3652E+00 -0.3602E-01  0.6268E+01  0.6221E+01
     -0.219  0.2907E+00  0.4607E+00  0.6304E+01  0.6278E+01
     -0.095  0.2363E+00  0.4546E+00  0.6333E+01  0.6334E+01
      0.029  0.2043E+00 -0.1910E-01  0.6359E+01  0.6332E+01
      0.153  0.5362E+00  0.4547E+00  0.6425E+01  0.6388E+01
      0.277  0.2371E+00  0.4651E+00  0.6454E+01  0.6446E+01
      0.400  0.1287E+00  0.2050E+00  0.6470E+01  0.6471E+01
      0.524  0.4993E+00  0.4395E-01  0.6532E+01  0.6477E+01
      0.648  0.2722E+01  0.3168E+01  0.6869E+01  0.6869E+01
      0.772 -0.4877E-01 -0.6477E-01  0.6863E+01  0.6861E+01
      0.896  0.4322E+00  0.2820E+00  0.6917E+01  0.6896E+01
      1.020  0.2292E+00  0.2483E+00  0.6945E+01  0.6927E+01
      1.143 -0.6342E-02  0.1443E+00  0.6944E+01  0.6945E+01
      1.267 -0.1567E-02 -0.5914E-03  0.6944E+01  0.6944E+01
      1.391  0.2887E+00 -0.1380E-01  0.6980E+01  0.6943E+01
      1.515  0.1083E+01  0.7025E+00  0.7114E+01  0.7030E+01
      1.639 -0.7626E-01  0.6430E+00  0.7105E+01  0.7109E+01
      1.763  0.1895E+01  0.1364E+01  0.7339E+01  0.7278E+01
      1.887 -0.4879E-01  0.4424E+00  0.7333E+01  0.7333E+01
      2.010  0.6802E+00  0.1530E+00  0.7418E+01  0.7352E+01
      2.134  0.6725E+00  0.1071E+01  0.7501E+01  0.7485E+01
      2.258  0.9064E-01  0.2433E+00  0.7512E+01  0.7515E+01
      2.382  0.1015E+01  0.3209E-01  0.7638E+01  0.7519E+01
      2.506  0.3286E+00  0.1107E+01  0.7678E+01  0.7656E+01
      2.630  0.1059E+01  0.1756E+00  0.7810E+01  0.7678E+01
      2.753  0.6501E+00  0.1275E+01  0.7890E+01  0.7836E+01
      2.877 -0.1074E-01  0.4433E+00  0.7889E+01  0.7890E+01
      3.001 -0.2509E-05 -0.1224E-01  0.7889E+01  0.7889E+01
      3.125  0.0000E+00 -0.5990E-07  0.7889E+01  0.7889E+01
      3.249  0.0000E+00  0.0000E+00  0.7889E+01  0.7889E+01
      3.373  0.0000E+00  0.0000E+00  0.7889E+01  0.7889E+01
      3.497  0.0000E+00  0.0000E+00  0.7889E+01  0.7889E+01
      3.620 -0.1086E-46 -0.1264E-29  0.7889E+01  0.7889E+01
      3.744 -0.2928E-27 -0.7741E-15  0.7889E+01  0.7889E+01
      3.868 -0.3219E-13 -0.1747E-05  0.7889E+01  0.7889E+01
      3.992 -0.1243E-04  0.1400E-02  0.7889E+01  0.7889E+01
      4.116  0.1269E-01  0.1453E+00  0.7890E+01  0.7907E+01
      4.240  0.1738E+00  0.7696E-01  0.7912E+01  0.7917E+01
      4.363  0.3567E-01  0.1190E+00  0.7916E+01  0.7931E+01
      4.487  0.1368E+00  0.3117E-01  0.7933E+01  0.7935E+01
      4.611  0.7436E+00 -0.5207E-02  0.8025E+01  0.7935E+01
      4.735  0.1677E+00  0.1585E+00  0.8046E+01  0.7954E+01
      4.859  0.1538E+00  0.3874E+00  0.8065E+01  0.8002E+01
      4.983 -0.3458E-02  0.5143E+00  0.8065E+01  0.8066E+01
      5.106  0.2199E-01  0.1435E+00  0.8068E+01  0.8084E+01
      5.230  0.1287E+00 -0.7620E-02  0.8083E+01  0.8083E+01
      5.354 -0.5260E-02  0.1595E+00  0.8083E+01  0.8102E+01
      5.478  0.1611E+00  0.7184E-01  0.8103E+01  0.8111E+01
      5.602  0.6848E-01 -0.1742E-02  0.8111E+01  0.8111E+01
      5.726 -0.1147E-02 -0.5093E-08  0.8111E+01  0.8111E+01
      5.850 -0.1178E-08 -0.5802E-28  0.8111E+01  0.8111E+01
      5.973 -0.2762E-12 -0.1656E-13  0.8111E+01  0.8111E+01
      6.097 -0.8624E-04 -0.1774E-04  0.8111E+01  0.8111E+01
      6.221  0.8761E-01  0.1529E-01  0.8122E+01  0.8113E+01
      6.345  0.5565E+00  0.5535E+00  0.8191E+01  0.8182E+01
      6.469  0.1397E+00  0.2117E+00  0.8208E+01  0.8208E+01
      6.593  0.1970E+00  0.1674E-03  0.8233E+01  0.8208E+01
      6.716  0.2215E-01  0.2266E+00  0.8235E+01  0.8236E+01
      6.840  0.2541E+00 -0.6029E-02  0.8267E+01  0.8235E+01
      6.964  0.1331E+01  0.4196E+00  0.8432E+01  0.8287E+01
      7.088  0.1014E+01  0.1366E+01  0.8557E+01  0.8456E+01
      7.212  0.3329E+00  0.8004E+00  0.8598E+01  0.8555E+01
      7.336  0.5366E+00  0.8497E+00  0.8665E+01  0.8661E+01
      7.460  0.8928E+00  0.2377E-01  0.8775E+01  0.8663E+01
      7.583  0.4426E+00  0.9395E+00  0.8830E+01  0.8780E+01
      7.707  0.9379E+00  0.8628E+00  0.8946E+01  0.8887E+01
      7.831 -0.1618E-01  0.4706E+00  0.8944E+01  0.8945E+01
      7.955 -0.1934E-06 -0.4199E-02  0.8944E+01  0.8944E+01
      8.079  0.0000E+00 -0.1582E-08  0.8944E+01  0.8944E+01
      8.203  0.0000E+00  0.0000E+00  0.8944E+01  0.8944E+01
      8.326  0.0000E+00  0.0000E+00  0.8944E+01  0.8944E+01
      8.450 -0.4437E-47  0.0000E+00  0.8944E+01  0.8944E+01
      8.574 -0.1256E-27 -0.8364E-33  0.8944E+01  0.8944E+01
      8.698 -0.1451E-13 -0.3869E-17  0.8944E+01  0.8944E+01
      8.822 -0.5894E-05 -0.6502E-07  0.8944E+01  0.8944E+01
      8.946  0.6442E-02 -0.1297E-02  0.8945E+01  0.8944E+01
      9.070  0.3120E-01  0.3996E-01  0.8949E+01  0.8949E+01
      9.193 -0.9158E-02 -0.1956E-02  0.8948E+01  0.8949E+01
      9.317  0.7136E+00  0.1666E+00  0.9036E+01  0.8970E+01
      9.441  0.4378E+00  0.5769E+00  0.9091E+01  0.9041E+01
      9.565  0.3820E-01  0.4673E+00  0.9095E+01  0.9099E+01
      9.689  0.4753E+00  0.6296E-01  0.9154E+01  0.9107E+01
      9.813  0.1962E+00  0.4997E+00  0.9178E+01  0.9169E+01
      9.936  0.4794E+00  0.1551E+00  0.9238E+01  0.9188E+01
     10.060  0.2042E+00  0.3792E+00  0.9263E+01  0.9235E+01
     10.184  0.9154E+00  0.8350E+00  0.9376E+01  0.9338E+01
     10.308  0.6544E-01  0.3647E+00  0.9385E+01  0.9383E+01
     10.432 -0.2652E-02  0.7071E-02  0.9384E+01  0.9384E+01
     10.556 -0.7868E-07 -0.1403E-04  0.9384E+01  0.9384E+01
     10.680 -0.1281E-07 -0.4134E-13  0.9384E+01  0.9384E+01
     10.803 -0.6235E-02 -0.3166E-05  0.9383E+01  0.9384E+01
     10.927  0.4998E+00 -0.1233E-01  0.9445E+01  0.9383E+01
     11.051  0.1080E+01  0.9493E+00  0.9579E+01  0.9500E+01
     11.175  0.4445E+00  0.6482E+00  0.9634E+01  0.9581E+01
     11.299  0.4976E+00  0.4575E+00  0.9696E+01  0.9637E+01
     11.423  0.8391E+00  0.6783E+00  0.9800E+01  0.9721E+01
     11.546  0.7490E-02  0.6513E+00  0.9801E+01  0.9802E+01
     11.670  0.1012E+00  0.3276E-01  0.9813E+01  0.9806E+01
     11.794  0.4314E+00  0.4985E+00  0.9867E+01  0.9868E+01
     11.918 -0.9520E-02 -0.2127E-01  0.9865E+01  0.9865E+01
     12.042  0.4381E+00  0.3123E+00  0.9920E+01  0.9904E+01
     12.166  0.5314E+00  0.5429E+00  0.9985E+01  0.9971E+01
     12.290  0.8924E+00  0.5373E+00  0.1010E+02  0.1004E+02
     12.413  0.1335E+01  0.1342E+01  0.1026E+02  0.1020E+02
     12.537  0.1462E+01  0.1404E+01  0.1044E+02  0.1038E+02
     12.661  0.2764E+00  0.8102E+00  0.1048E+02  0.1048E+02
     12.785  0.1986E+00  0.9721E-01  0.1050E+02  0.1049E+02
     12.909  0.4871E+00  0.5779E+00  0.1056E+02  0.1056E+02
     13.033  0.1167E+00 -0.4296E-01  0.1058E+02  0.1056E+02
     13.156  0.1466E+01  0.1501E+01  0.1076E+02  0.1074E+02
     13.280  0.2117E+01  0.2203E+01  0.1102E+02  0.1101E+02
     13.404 -0.6257E-01 -0.1288E-01  0.1101E+02  0.1101E+02
     13.528  0.4790E+00  0.4031E+00  0.1107E+02  0.1106E+02
     13.652  0.2331E-02  0.3927E-01  0.1107E+02  0.1107E+02
     13.776  0.4360E+00  0.4627E+00  0.1113E+02  0.1113E+02
     13.899  0.3213E+00  0.1701E+00  0.1117E+02  0.1115E+02
     14.023  0.7735E+00  0.3133E+00  0.1126E+02  0.1119E+02
     14.147  0.5158E+00  0.6315E+00  0.1133E+02  0.1126E+02
     14.271  0.3853E+00  0.6254E+00  0.1137E+02  0.1134E+02
     14.395  0.1147E+01  0.3416E+00  0.1151E+02  0.1138E+02
     14.519  0.4815E+00  0.1505E+01  0.1157E+02  0.1157E+02
     14.643  0.2453E+01  0.1143E+01  0.1188E+02  0.1171E+02
     14.766  0.3170E+01  0.3673E+01  0.1227E+02  0.1217E+02
     14.890  0.9817E+00  0.1718E+01  0.1239E+02  0.1238E+02
     15.014  0.1725E+01  0.1771E+01  0.1261E+02  0.1260E+02
     15.138  0.1123E+01  0.6519E+00  0.1275E+02  0.1268E+02
     15.262  0.6432E+00  0.9723E+00  0.1282E+02  0.1280E+02
     15.386  0.1597E+01  0.1329E+01  0.1302E+02  0.1296E+02
     15.509  0.2889E+00  0.5327E+00  0.1306E+02  0.1303E+02
     15.633  0.4691E-01  0.2843E+00  0.1306E+02  0.1307E+02
     15.757  0.2298E+00  0.2027E+00  0.1309E+02  0.1309E+02
     15.881  0.7755E+00  0.8141E-01  0.1319E+02  0.1310E+02
     16.005  0.7414E+00  0.1445E+01  0.1328E+02  0.1328E+02
     16.129  0.1798E+00  0.9791E-01  0.1330E+02  0.1329E+02
     16.253  0.8293E-02  0.1401E+00  0.1330E+02  0.1331E+02
     16.376  0.1352E+01  0.8574E+00  0.1347E+02  0.1341E+02
     16.500  0.6872E+00  0.1151E+01  0.1356E+02  0.1356E+02
     16.624 -0.5080E-02 -0.1452E-01  0.1356E+02  0.1356E+02
     16.748  0.5307E-02 -0.1531E-03  0.1356E+02  0.1356E+02
     16.872  0.5579E+00  0.5396E-01  0.1363E+02  0.1356E+02
     16.996  0.8373E+00  0.1368E+01  0.1373E+02  0.1373E+02
     17.119  0.4622E+00  0.4060E+00  0.1379E+02  0.1378E+02
     17.243  0.5779E+00  0.4110E+00  0.1386E+02  0.1383E+02
     17.367  0.3336E+00  0.3419E+00  0.1390E+02  0.1388E+02
     17.491  0.1385E+00  0.1785E+00  0.1392E+02  0.1390E+02
     17.615  0.7813E-01  0.2386E+00  0.1393E+02  0.1393E+02
     17.739 -0.3835E-02  0.7685E-01  0.1393E+02  0.1394E+02
     17.863  0.3103E+00  0.1233E+00  0.1396E+02  0.1395E+02
     17.986 -0.7482E-02  0.9172E-01  0.1396E+02  0.1396E+02
     18.110 -0.3253E-07 -0.3390E-03  0.1396E+02  0.1396E+02
     18.234 -0.1452E-12 -0.2928E-09  0.1396E+02  0.1396E+02
     18.358 -0.3744E-04 -0.1090E-02  0.1396E+02  0.1396E+02
     18.482  0.3440E-01  0.1268E+00  0.1397E+02  0.1398E+02
     18.606  0.1135E+00  0.2386E-01  0.1398E+02  0.1398E+02
     18.729  0.1459E+00 -0.1742E-02  0.1400E+02  0.1398E+02
     18.853  0.5290E-02  0.1549E+00  0.1400E+02  0.1400E+02
     18.977 -0.4617E-05 -0.3614E-02  0.1400E+02  0.1400E+02
     19.101  0.0000E+00 -0.1180E-07  0.1400E+02  0.1400E+02
     19.225  0.0000E+00  0.0000E+00  0.1400E+02  0.1400E+02
     19.349  0.0000E+00  0.0000E+00  0.1400E+02  0.1400E+02
     19.473  0.0000E+00  0.0000E+00  0.1400E+02  0.1400E+02
     19.596  0.0000E+00  0.0000E+00  0.1400E+02  0.1400E+02
     19.720  0.0000E+00  0.0000E+00  0.1400E+02  0.1400E+02
     19.844  0.0000E+00  0.0000E+00  0.1400E+02  0.1400E+02
     19.968  0.0000E+00  0.0000E+00  0.1400E+02  0.1400E+02
     20.092  0.0000E+00  0.0000E+00  0.1400E+02  0.1400E+02
     20.216  0.0000E+00  0.0000E+00  0.1400E+02  0.1400E+02
     20.339  0.0000E+00  0.0000E+00  0.1400E+02  0.1400E+02
     20.463  0.0000E+00  0.0000E+00  0.1400E+02  0.1400E+02
     20.46327132    -16.69022241  301      4.72287334      1.00000000
    -16.690  0.0000E+00  0.0000E+00  0.0000E+00  0.0000E+00  0.0000E+00  0.0000E+00  0.0000E+00  0.0000E+00  0.0000E+00  0.0000E+00  0.0000E+00  0.0000E+00  0.0000E+00  0.0000E+00  0.0000E+00  0.0000E+00  0.0000E+00  0.0000E+00
    -16.566  0.0000E+00  0.0000E+00  0.0000E+00  0.0000E+00  0.0000E+00  0.0000E+00  0.0000E+00  0.0000E+00  0.0000E+00  0.0000E+00  0.0000E+00  0.0000E+00  0.0000E+00  0.0000E+00  0.0000E+00  0.0000E+00  0.0000E+00  0.0000E+00
    -16.443  0.0000E+00  0.0000E+00  0.0000E+00  0.0000E+00  0.0000E+00  0.0000E+00  0.0000E+00  0.0000E+00  0.0000E+00  0.0000E+00  0.0000E+00  0.0000E+00  0.0000E+00  0.0000E+00  0.0000E+00  0.0000E+00  0.0000E+00  0.0000E+00
    -16.319  0.0000E+00  0.0000E+00  0.0000E+00  0.0000E+00  0.0000E+00  0.0000E+00  0.0000E+00  0.0000E+00  0.0000E+00  0.0000E+00  0.0000E+00  0.0000E+00  0.0000E+00  0.0000E+00  0.0000E+00  0.0000E+00  0.0000E+00  0.0000E+00
    -16.195  0.0000E+00  0.0000E+00  0.0000E+00  0.0000E+00  0.0000E+00  0.0000E+00  0.0000E+00  0.0000E+00  0.0000E+00  0.0000E+00  0.0000E+00  0.0000E+00  0.0000E+00  0.0000E+00  0.0000E+00  0.0000E+00  0.0000E+00  0.0000E+00
    -16.071  0.0000E+00  0.0000E+00  0.0000E+00  0.0000E+00  0.0000E+00  0.0000E+00  0.0000E+00  0.0000E+00  0.0000E+00  0.0000E+00  0.0000E+00  0.0000E+00  0.0000E+00  0.0000E+00  0.0000E+00  0.0000E+00  0.0000E+00  0.0000E+00
    -15.947  0.0000E+00  0.0000E+00  0.0000E+00  0.0000E+00  0.0000E+00  0.0000E+00  0.0000E+00  0.0000E+00  0.0000E+00  0.0000E+00  0.0000E+00  0.0000E+00  0.0000E+00  0.0000E+00  0.0000E+00  0.0000E+00  0.0000E+00  0.0000E+00
    -15.823  0.0000E+00  0.0000E+00  0.0000E+00  0.0000E+00  0.0000E+00  0.0000E+00  0.0000E+00  0.0000E+00  0.0000E+00  0.0000E+00  0.0000E+00  0.0000E+00  0.0000E+00  0.0000E+00  0.0000E+00  0.0000E+00  0.0000E+00  0.0000E+00
    -15.699  0.0000E+00  0.0000E+00  0.0000E+00  0.0000E+00  0.0000E+00  0.0000E+00  0.0000E+00  0.0000E+00  0.0000E+00  0.0000E+00  0.0000E+00  0.0000E+00  0.0000E+00  0.0000E+00  0.0000E+00  0.0000E+00  0.0000E+00  0.0000E+00
    -15.576  0.0000E+00  0.0000E+00  0.0000E+00  0.0000E+00  0.0000E+00  0.0000E+00  0.0000E+00  0.0000E+00  0.0000E+00  0.0000E+00  0.0000E+00  0.0000E+00  0.0000E+00  0.0000E+00  0.0000E+00  0.0000E+00  0.0000E+00  0.0000E+00
    -15.452 -0.8897E-37 -0.1282E-41 -0.6717E-50 -0.1373E-56 -0.7626E-44 -0.6981E-49 -0.2462E-49 -0.3230E-56  0.0000E+00  0.0000E+00  0.0000E+00  0.0000E+00  0.0000E+00  0.0000E+00  0.0000E+00  0.0000E+00  0.0000E+00  0.0000E+00
    -15.328 -0.3372E-20 -0.9761E-24 -0.2520E-33 -0.1047E-38 -0.1846E-26 -0.3386E-30 -0.9242E-33 -0.2466E-38  0.0000E+00  0.0000E+00  0.0000E+00  0.0000E+00  0.0000E+00  0.0000E+00  0.0000E+00  0.0000E+00  0.0000E+00  0.0000E+00
    -15.204 -0.5142E-09 -0.3050E-11 -0.3603E-22 -0.3299E-26 -0.1734E-14 -0.6596E-17 -0.1327E-21 -0.7830E-26  0.0000E+00  0.0000E+00  0.0000E+00  0.0000E+00  0.0000E+00  0.0000E+00  0.0000E+00  0.0000E+00  0.0000E+00  0.0000E+00
    -15.080 -0.2572E-03 -0.3645E-04 -0.1212E-16 -0.4109E-19 -0.4577E-08 -0.4262E-09 -0.4595E-16 -0.1012E-18  0.0000E+00  0.0000E+00  0.0000E+00  0.0000E+00  0.0000E+00  0.0000E+00  0.0000E+00  0.0000E+00  0.0000E+00  0.0000E+00
    -14.956  0.1820E-01  0.9200E-02  0.6581E-15  0.1070E-16  0.5823E-06  0.1520E-06  0.2551E-14  0.2752E-16  0.0000E+00  0.0000E+00  0.0000E+00  0.0000E+00  0.0000E+00  0.0000E+00  0.0000E+00  0.0000E+00  0.0000E+00  0.0000E+00
    -14.833  0.2218E-01  0.2561E-01  0.1248E-14  0.3350E-16  0.3132E-05  0.2579E-05  0.4458E-14  0.7946E-16  0.0000E+00  0.0000E+00  0.0000E+00  0.0000E+00  0.0000E+00  0.0000E+00  0.0000E+00  0.0000E+00  0.0000E+00  0.0000E+00
    -14.709  0.2606E-01  0.2258E-01  0.1523E-14  0.3428E-16  0.2445E-05  0.2928E-05  0.4253E-14  0.9285E-16  0.0000E+00  0.0000E+00  0.0000E+00  0.0000E+00  0.0000E+00  0.0000E+00  0.0000E+00  0.0000E+00  0.0000E+00  0.0000E+00
    -14.585  0.6664E-02  0.1503E-01 -0.1493E-13  0.3503E-17  0.1015E-06  0.4051E-06 -0.4450E-13 -0.2106E-16  0.0000E+00  0.0000E+00  0.0000E+00  0.0000E+00  0.0000E+00  0.0000E+00  0.0000E+00  0.0000E+00  0.0000E+00  0.0000E+00
    -14.461 -0.8528E-04 -0.1534E-03 -0.7430E-06 -0.3384E-07 -0.8434E-09 -0.2390E-08 -0.2229E-05 -0.1015E-06  0.0000E+00  0.0000E+00  0.0000E+00  0.0000E+00  0.0000E+00  0.0000E+00  0.0000E+00  0.0000E+00  0.0000E+00  0.0000E+00
    -14.337  0.3183E-01  0.1421E-02  0.3510E-03  0.1595E-04  0.3260E-06 -0.1175E-06  0.1053E-02  0.4786E-04  0.0000E+00  0.0000E+00  0.0000E+00  0.0000E+00  0.0000E+00  0.0000E+00  0.0000E+00  0.0000E+00  0.0000E+00  0.0000E+00
    -14.213  0.1625E+00  0.1647E+00  0.1793E-02  0.1852E-02  0.1351E-04  0.9546E-05  0.5380E-02  0.5557E-02  0.0000E+00  0.0000E+00  0.0000E+00  0.0000E+00  0.0000E+00  0.0000E+00  0.0000E+00  0.0000E+00  0.0000E+00  0.0000E+00
    -14.089  0.1347E+00  0.1186E+00  0.1491E-02  0.1338E-02  0.1750E-04  0.1739E-04  0.4474E-02  0.4014E-02  0.0000E+00  0.0000E+00  0.0000E+00  0.0000E+00  0.0000E+00  0.0000E+00  0.0000E+00  0.0000E+00  0.0000E+00  0.0000E+00
    -13.966  0.9453E-01  0.1369E+00  0.1048E-02  0.1547E-02  0.2684E-05  0.6159E-05  0.3143E-02  0.4640E-02  0.0000E+00  0.0000E+00  0.0000E+00  0.0000E+00  0.0000E+00  0.0000E+00  0.0000E+00  0.0000E+00  0.0000E+00  0.0000E+00
    -13.842 -0.1061E-02 -0.3107E-02 -0.1176E-04 -0.3511E-04 -0.1741E-07 -0.8506E-07 -0.3528E-04 -0.1053E-03  0.0000E+00  0.0000E+00  0.0000E+00  0.0000E+00  0.0000E+00  0.0000E+00  0.0000E+00  0.0000E+00  0.0000E+00  0.0000E+00
    -13.718 -0.1115E-08 -0.8848E-07 -0.1236E-10 -0.1000E-08 -0.2813E-14 -0.3478E-12 -0.3708E-10 -0.3000E-08  0.0000E+00  0.0000E+00  0.0000E+00  0.0000E+00  0.0000E+00  0.0000E+00  0.0000E+00  0.0000E+00  0.0000E+00  0.0000E+00
    -13.594  0.0000E+00  0.0000E+00  0.0000E+00  0.0000E+00  0.0000E+00  0.0000E+00  0.0000E+00  0.0000E+00  0.0000E+00  0.0000E+00  0.0000E+00  0.0000E+00  0.0000E+00  0.0000E+00  0.0000E+00  0.0000E+00  0.0000E+00  0.0000E+00
    -13.470 -0.1042E-34 -0.2632E-39 -0.1078E-35 -0.2789E-40 -0.1631E-41 -0.2754E-46 -0.3612E-36 -0.9350E-41  0.0000E+00  0.0000E+00  0.0000E+00  0.0000E+00  0.0000E+00  0.0000E+00  0.0000E+00  0.0000E+00  0.0000E+00  0.0000E+00
    -13.346 -0.1680E-18 -0.7741E-22 -0.1737E-19 -0.8203E-23 -0.1381E-24 -0.4259E-28 -0.5821E-20 -0.2750E-23  0.0000E+00  0.0000E+00  0.0000E+00  0.0000E+00  0.0000E+00  0.0000E+00  0.0000E+00  0.0000E+00  0.0000E+00  0.0000E+00
    -13.223 -0.1100E-07 -0.9416E-10 -0.1138E-08 -0.9977E-11 -0.4474E-13 -0.2615E-15 -0.3814E-09 -0.3345E-11  0.0000E+00  0.0000E+00  0.0000E+00  0.0000E+00  0.0000E+00  0.0000E+00  0.0000E+00  0.0000E+00  0.0000E+00  0.0000E+00
    -13.099 -0.2157E-02 -0.4283E-03 -0.2230E-03 -0.4538E-04 -0.3858E-07 -0.5122E-08 -0.7475E-04 -0.1521E-04  0.0000E+00  0.0000E+00  0.0000E+00  0.0000E+00  0.0000E+00  0.0000E+00  0.0000E+00  0.0000E+00  0.0000E+00  0.0000E+00
    -12.975  0.1190E+00  0.6920E-01  0.1230E-01  0.7333E-02  0.4000E-05  0.1319E-05  0.4123E-02  0.2458E-02  0.0000E+00  0.0000E+00  0.0000E+00  0.0000E+00  0.0000E+00  0.0000E+00  0.0000E+00  0.0000E+00  0.0000E+00  0.0000E+00
    -12.851  0.1254E+00  0.1442E+00  0.1298E-01  0.1529E-01  0.1539E-04  0.1404E-04  0.4351E-02  0.5128E-02  0.0000E+00  0.0000E+00  0.0000E+00  0.0000E+00  0.0000E+00  0.0000E+00  0.0000E+00  0.0000E+00  0.0000E+00  0.0000E+00
    -12.727  0.1552E+00  0.1607E+00  0.1606E-01  0.1704E-01  0.7986E-05  0.1084E-04  0.5381E-02  0.5712E-02  0.0000E+00  0.0000E+00  0.0000E+00  0.0000E+00  0.0000E+00  0.0000E+00  0.0000E+00  0.0000E+00  0.0000E+00  0.0000E+00
    -12.603 -0.1725E-02  0.1717E-01 -0.1784E-03  0.1820E-02 -0.1199E-06  0.7451E-07 -0.5978E-04  0.6103E-03  0.0000E+00  0.0000E+00  0.0000E+00  0.0000E+00  0.0000E+00  0.0000E+00  0.0000E+00  0.0000E+00  0.0000E+00  0.0000E+00
    -12.479 -0.4939E-03 -0.7046E-04 -0.2293E-04 -0.4800E-05 -0.5799E-08 -0.5789E-09 -0.6849E-04 -0.7425E-05  0.0000E+00  0.0000E+00  0.0000E+00  0.0000E+00  0.0000E+00  0.0000E+00  0.0000E+00  0.0000E+00  0.0000E+00  0.0000E+00
    -12.356  0.7304E-01  0.2507E-01  0.3382E-02  0.1195E-02  0.1425E-05  0.1675E-06  0.1015E-01  0.3586E-02  0.0000E+00  0.0000E+00  0.0000E+00  0.0000E+00  0.0000E+00  0.0000E+00  0.0000E+00  0.0000E+00  0.0000E+00  0.0000E+00
    -12.232  0.1444E+00  0.1612E+00  0.6683E-02  0.7690E-02  0.1356E-04  0.1083E-04  0.2005E-01  0.2307E-01  0.0000E+00  0.0000E+00  0.0000E+00  0.0000E+00  0.0000E+00  0.0000E+00  0.0000E+00  0.0000E+00  0.0000E+00  0.0000E+00
    -12.108  0.1616E+00  0.1540E+00  0.7477E-02  0.7342E-02  0.9147E-05  0.1175E-04  0.2243E-01  0.2203E-01  0.0000E+00  0.0000E+00  0.0000E+00  0.0000E+00  0.0000E+00  0.0000E+00  0.0000E+00  0.0000E+00  0.0000E+00  0.0000E+00
    -11.984  0.5433E-02  0.3819E-01  0.2513E-03  0.1820E-02 -0.7485E-07  0.4565E-06  0.7539E-03  0.5461E-02  0.0000E+00  0.0000E+00  0.0000E+00  0.0000E+00  0.0000E+00  0.0000E+00  0.0000E+00  0.0000E+00  0.0000E+00  0.0000E+00
    -11.860 -0.6444E-05 -0.1053E-03 -0.2981E-06 -0.5020E-05 -0.4374E-10 -0.9979E-09 -0.8942E-06 -0.1506E-04  0.0000E+00  0.0000E+00  0.0000E+00  0.0000E+00  0.0000E+00  0.0000E+00  0.0000E+00  0.0000E+00  0.0000E+00  0.0000E+00
    -11.736 -0.1274E-13 -0.3905E-11 -0.5892E-15 -0.1861E-12 -0.2970E-28 -0.7319E-17 -0.1767E-14 -0.5584E-12  0.0000E+00  0.0000E+00  0.0000E+00  0.0000E+00  0.0000E+00  0.0000E+00  0.0000E+00  0.0000E+00  0.0000E+00  0.0000E+00
    -11.613  0.0000E+00  0.0000E+00  0.0000E+00  0.0000E+00  0.0000E+00  0.0000E+00  0.0000E+00  0.0000E+00  0.0000E+00  0.0000E+00  0.0000E+00  0.0000E+00  0.0000E+00  0.0000E+00  0.0000E+00  0.0000E+00  0.0000E+00  0.0000E+00
    -11.489  0.0000E+00  0.0000E+00  0.0000E+00  0.0000E+00  0.0000E+00  0.0000E+00  0.0000E+00  0.0000E+00  0.0000E+00  0.0000E+00  0.0000E+00  0.0000E+00  0.0000E+00  0.0000E+00  0.0000E+00  0.0000E+00  0.0000E+00  0.0000E+00
    -11.365  0.0000E+00  0.0000E+00  0.0000E+00  0.0000E+00  0.0000E+00  0.0000E+00  0.0000E+00  0.0000E+00  0.0000E+00  0.0000E+00  0.0000E+00  0.0000E+00  0.0000E+00  0.0000E+00  0.0000E+00  0.0000E+00  0.0000E+00  0.0000E+00
    -11.241  0.0000E+00  0.0000E+00  0.0000E+00  0.0000E+00  0.0000E+00  0.0000E+00  0.0000E+00  0.0000E+00  0.0000E+00  0.0000E+00  0.0000E+00  0.0000E+00  0.0000E+00  0.0000E+00  0.0000E+00  0.0000E+00  0.0000E+00  0.0000E+00
    -11.117  0.0000E+00  0.0000E+00  0.0000E+00  0.0000E+00  0.0000E+00  0.0000E+00  0.0000E+00  0.0000E+00  0.0000E+00  0.0000E+00  0.0000E+00  0.0000E+00  0.0000E+00  0.0000E+00  0.0000E+00  0.0000E+00  0.0000E+00  0.0000E+00
    -10.993 -0.1702E-41 -0.2256E-46 -0.3203E-42 -0.4459E-47 -0.3324E-48 -0.2234E-59 -0.2381E-42 -0.3351E-47  0.0000E+00  0.0000E+00  0.0000E+00  0.0000E+00  0.0000E+00  0.0000E+00  0.0000E+00  0.0000E+00  0.0000E+00  0.0000E+00
    -10.870 -0.2230E-23 -0.4891E-27 -0.4196E-24 -0.9668E-28 -0.1638E-29 -0.2621E-33 -0.3119E-24 -0.7266E-28  0.0000E+00  0.0000E+00  0.0000E+00  0.0000E+00  0.0000E+00  0.0000E+00  0.0000E+00  0.0000E+00  0.0000E+00  0.0000E+00
    -10.746 -0.1247E-10 -0.4532E-13 -0.2346E-11 -0.8956E-14 -0.3246E-16 -0.8814E-19 -0.1743E-11 -0.6731E-14  0.0000E+00  0.0000E+00  0.0000E+00  0.0000E+00  0.0000E+00  0.0000E+00  0.0000E+00  0.0000E+00  0.0000E+00  0.0000E+00
    -10.622 -0.2760E-03 -0.1768E-04 -0.5188E-04 -0.3492E-05 -0.2218E-08 -0.1094E-09 -0.3854E-04 -0.2624E-05  0.0000E+00  0.0000E+00  0.0000E+00  0.0000E+00  0.0000E+00  0.0000E+00  0.0000E+00  0.0000E+00  0.0000E+00  0.0000E+00
    -10.498  0.8839E-01  0.1526E-01  0.1661E-01  0.3020E-02  0.9159E-06 -0.8903E-07  0.1234E-01  0.2270E-02  0.0000E+00  0.0000E+00  0.0000E+00  0.0000E+00  0.0000E+00  0.0000E+00  0.0000E+00  0.0000E+00  0.0000E+00  0.0000E+00