PROCAR lm decomposed
# of k-points:   28         # of bands:  14         # of ions:   4

 k-point    1 :    0.00000000 0.00000000 0.00000000     weight = 0.00462963

band   1 # energy  -15.00142724 # occ.  1.00000000
 
ion      s     py     pz     px    dxy    dyz    dz2    dxz    dx2    tot
  1  0.159  0.000  0.000  0.000  0.000  0.000  0.000  0.000  0.000  0.159
  2  0.158  0.000  0.000  0.000  0.000  0.000  0.000  0.000  0.000  0.158
  3  0.158  0.000  0.000  0.000  0.000  0.000  0.000  0.000  0.000  0.158
  4  0.159  0.000  0.000  0.000  0.000  0.000  0.000  0.000  0.000  0.159
tot  0.635  0.000  0.000  0.000  0.000  0.000  0.000  0.000  0.000  0.635
 
band   2 # energy  -14.70202720 # occ.  1.00000000
 
ion      s     py     pz     px    dxy    dyz    dz2    dxz    dx2    tot
  1  0.165  0.000  0.000  0.000  0.000  0.000  0.000  0.000  0.000  0.165
  2  0.164  0.000  0.000  0.000  0.000  0.000  0.000  0.000  0.000  0.164
  3  0.164  0.000  0.000  0.000  0.000  0.000  0.000  0.000  0.000  0.164
  4  0.165  0.000  0.000  0.000  0.000  0.000  0.000  0.000  0.000  0.165
tot  0.659  0.000  0.000  0.000  0.000  0.000  0.000  0.000  0.000  0.659
 
band   3 # energy   -3.85521568 # occ.  1.00000000
 
ion      s     py     pz     px    dxy    dyz    dz2    dxz    dx2    tot
  1  0.000  0.000  0.098  0.000  0.000  0.000  0.000  0.000  0.000  0.098
  2  0.000  0.000  0.096  0.000  0.000  0.000  0.000  0.000  0.000  0.096
  3  0.000  0.000  0.096  0.000  0.000  0.000  0.000  0.000  0.000  0.096
  4  0.000  0.000  0.098  0.000  0.000  0.000  0.000  0.000  0.000  0.098
tot  0.000  0.000  0.387  0.000  0.000  0.000  0.000  0.000  0.000  0.387
 
band   4 # energy   -1.90237408 # occ.  1.00000000
 
ion      s     py     pz     px    dxy    dyz    dz2    dxz    dx2    tot
  1  0.000  0.000  0.129  0.000  0.000  0.000  0.000  0.000  0.000  0.129
  2  0.000  0.000  0.125  0.000  0.000  0.000  0.000  0.000  0.000  0.125
  3  0.000  0.000  0.125  0.000  0.000  0.000  0.000  0.000  0.000  0.125
  4  0.000  0.000  0.129  0.000  0.000  0.000  0.000  0.000  0.000  0.129
tot  0.000  0.000  0.506  0.000  0.000  0.000  0.000  0.000  0.000  0.506
 
band   5 # energy    1.71720262 # occ.  1.00000000
 
ion      s     py     pz     px    dxy    dyz    dz2    dxz    dx2    tot
  1  0.000  0.052  0.000  0.156  0.000  0.000  0.000  0.000  0.000  0.208
  2  0.000  0.052  0.000  0.156  0.000  0.000  0.000  0.000  0.000  0.207
  3  0.000  0.052  0.000  0.155  0.000  0.000  0.000  0.000  0.000  0.207
  4  0.000  0.052  0.000  0.156  0.000  0.000  0.000  0.000  0.000  0.208
tot  0.000  0.208  0.000  0.623  0.000  0.000  0.000  0.000  0.000  0.831
 
band   6 # energy    1.71729165 # occ.  1.00000000
 
ion      s     py     pz     px    dxy    dyz    dz2    dxz    dx2    tot
  1  0.000  0.156  0.000  0.052  0.000  0.000  0.000  0.000  0.000  0.208
  2  0.000  0.156  0.000  0.052  0.000  0.000  0.000  0.000  0.000  0.207
  3  0.000  0.155  0.000  0.052  0.000  0.000  0.000  0.000  0.000  0.207
  4  0.000  0.156  0.000  0.052  0.000  0.000  0.000  0.000  0.000  0.208
tot  0.000  0.623  0.000  0.208  0.000  0.000  0.000  0.000  0.000  0.831
 
band   7 # energy    1.72180016 # occ.  1.00000000
 
ion      s     py     pz     px    dxy    dyz    dz2    dxz    dx2    tot
  1  0.000  0.052  0.000  0.156  0.000  0.000  0.000  0.000  0.000  0.208
  2  0.000  0.052  0.000  0.155  0.000  0.000  0.000  0.000  0.000  0.207
  3  0.000  0.052  0.000  0.155  0.000  0.000  0.000  0.000  0.000  0.207
  4  0.000  0.052  0.000  0.156  0.000  0.000  0.000  0.000  0.000  0.209
tot  0.000  0.208  0.000  0.623  0.000  0.000  0.000  0.000  0.000  0.831
 
band   8 # energy    1.72189078 # occ.  1.00000000
 
ion      s     py     pz     px    dxy    dyz    dz2    dxz    dx2    tot
  1  0.000  0.156  0.000  0.052  0.000  0.000  0.000  0.000  0.000  0.208
  2  0.000  0.155  0.000  0.052  0.000  0.000  0.000  0.000  0.000  0.207
  3  0.000  0.155  0.000  0.052  0.000  0.000  0.000  0.000  0.000  0.207
  4  0.000  0.156  0.000  0.052  0.000  0.000  0.000  0.000  0.000  0.209
tot  0.000  0.623  0.000  0.208  0.000  0.000  0.000  0.000  0.000  0.831
 
band   9 # energy    8.96707138 # occ.  0.00000000
 
ion      s     py     pz     px    dxy    dyz    dz2    dxz    dx2    tot
  1  0.021  0.000  0.000  0.000  0.000  0.000  0.000  0.000  0.000  0.021
  2  0.021  0.000  0.000  0.000  0.000  0.000  0.000  0.000  0.000  0.021
  3  0.021  0.000  0.000  0.000  0.000  0.000  0.000  0.000  0.000  0.021
  4  0.021  0.000  0.000  0.000  0.000  0.000  0.000  0.000  0.000  0.021
tot  0.082  0.000  0.000  0.000  0.000  0.000  0.000  0.000  0.000  0.082
 
band  10 # energy   13.13741972 # occ.  0.00000000
 
ion      s     py     pz     px    dxy    dyz    dz2    dxz    dx2    tot
  1  0.000  0.032  0.000  0.097  0.000  0.000  0.000  0.000  0.000  0.130
  2  0.000  0.033  0.000  0.100  0.000  0.000  0.000  0.000  0.000  0.133
  3  0.000  0.033  0.000  0.100  0.000  0.000  0.000  0.000  0.000  0.133
  4  0.000  0.032  0.000  0.097  0.000  0.000  0.000  0.000  0.000  0.130
tot  0.000  0.132  0.000  0.395  0.000  0.000  0.000  0.000  0.000  0.526
 
band  11 # energy   13.13748329 # occ.  0.00000000
 
ion      s     py     pz     px    dxy    dyz    dz2    dxz    dx2    tot
  1  0.000  0.097  0.000  0.032  0.000  0.000  0.000  0.000  0.000  0.130
  2  0.000  0.100  0.000  0.033  0.000  0.000  0.000  0.000  0.000  0.133
  3  0.000  0.100  0.000  0.033  0.000  0.000  0.000  0.000  0.000  0.133
  4  0.000  0.097  0.000  0.032  0.000  0.000  0.000  0.000  0.000  0.130
tot  0.000  0.395  0.000  0.132  0.000  0.000  0.000  0.000  0.000  0.526
 
band  12 # energy   13.20095363 # occ.  0.00000000
 
ion      s     py     pz     px    dxy    dyz    dz2    dxz    dx2    tot
  1  0.000  0.033  0.000  0.100  0.000  0.000  0.000  0.000  0.000  0.133
  2  0.000  0.033  0.000  0.099  0.000  0.000  0.000  0.000  0.000  0.132
  3  0.000  0.033  0.000  0.099  0.000  0.000  0.000  0.000  0.000  0.132
  4  0.000  0.033  0.000  0.100  0.000  0.000  0.000  0.000  0.000  0.133
tot  0.000  0.132  0.000  0.397  0.000  0.000  0.000  0.000  0.000  0.530
 
band  13 # energy   13.20101520 # occ.  0.00000000
 
ion      s     py     pz     px    dxy    dyz    dz2    dxz    dx2    tot
  1  0.000  0.100  0.000  0.033  0.000  0.000  0.000  0.000  0.000  0.133
  2  0.000  0.099  0.000  0.033  0.000  0.000  0.000  0.000  0.000  0.132
  3  0.000  0.099  0.000  0.033  0.000  0.000  0.000  0.000  0.000  0.132
  4  0.000  0.100  0.000  0.033  0.000  0.000  0.000  0.000  0.000  0.133
tot  0.000  0.397  0.000  0.132  0.000  0.000  0.000  0.000  0.000  0.530
 
band  14 # energy   15.29767790 # occ.  0.00000000
 
ion      s     py     pz     px    dxy    dyz    dz2    dxz    dx2    tot
  1  0.000  0.000  0.077  0.000  0.000  0.000  0.000  0.000  0.000  0.077
  2  0.000  0.000  0.074  0.000  0.000  0.000  0.000  0.000  0.000  0.074
  3  0.000  0.000  0.081  0.000  0.000  0.000  0.000  0.000  0.000  0.081
  4  0.000  0.000  0.071  0.000  0.000  0.000  0.000  0.000  0.000  0.071
tot  0.000  0.000  0.303  0.000  0.000  0.000  0.000  0.000  0.000  0.303
 

 k-point    2 :    0.16666667 0.00000000 0.00000000     weight = 0.02777778

band   1 # energy  -14.33846230 # occ.  1.00000000
 
ion      s     py     pz     px    dxy    dyz    dz2    dxz    dx2    tot
  1  0.154  0.002  0.000  0.005  0.000  0.000  0.000  0.000  0.000  0.161
  2  0.153  0.002  0.000  0.005  0.000  0.000  0.000  0.000  0.000  0.160
  3  0.153  0.002  0.000  0.005  0.000  0.000  0.000  0.000  0.000  0.160
  4  0.154  0.002  0.000  0.005  0.000  0.000  0.000  0.000  0.000  0.161
tot  0.615  0.007  0.000  0.020  0.000  0.000  0.000  0.000  0.000  0.643
 
band   2 # energy  -14.05066710 # occ.  1.00000000
 
ion      s     py     pz     px    dxy    dyz    dz2    dxz    dx2    tot
  1  0.160  0.002  0.000  0.005  0.000  0.000  0.000  0.000  0.000  0.167
  2  0.158  0.002  0.000  0.005  0.000  0.000  0.000  0.000  0.000  0.165
  3  0.158  0.002  0.000  0.005  0.000  0.000  0.000  0.000  0.000  0.165
  4  0.160  0.002  0.000  0.005  0.000  0.000  0.000  0.000  0.000  0.167
tot  0.636  0.007  0.000  0.021  0.000  0.000  0.000  0.000  0.000  0.664
 
band   3 # energy   -3.05180893 # occ.  1.00000000
 
ion      s     py     pz     px    dxy    dyz    dz2    dxz    dx2    tot
  1  0.000  0.000  0.099  0.000  0.000  0.000  0.000  0.000  0.000  0.099
  2  0.000  0.000  0.097  0.000  0.000  0.000  0.000  0.000  0.000  0.097
  3  0.000  0.000  0.097  0.000  0.000  0.000  0.000  0.000  0.000  0.097
  4  0.000  0.000  0.099  0.000  0.000  0.000  0.000  0.000  0.000  0.099
tot  0.000  0.000  0.393  0.000  0.000  0.000  0.000  0.000  0.000  0.393
 
band   4 # energy   -1.15633953 # occ.  1.00000000
 
ion      s     py     pz     px    dxy    dyz    dz2    dxz    dx2    tot
  1  0.000  0.000  0.130  0.000  0.000  0.000  0.000  0.000  0.000  0.130
  2  0.000  0.000  0.125  0.000  0.000  0.000  0.000  0.000  0.000  0.125
  3  0.000  0.000  0.125  0.000  0.000  0.000  0.000  0.000  0.000  0.125
  4  0.000  0.000  0.130  0.000  0.000  0.000  0.000  0.000  0.000  0.130
tot  0.000  0.000  0.511  0.000  0.000  0.000  0.000  0.000  0.000  0.511
 
band   5 # energy   -0.62519617 # occ.  1.00000000
 
ion      s     py     pz     px    dxy    dyz    dz2    dxz    dx2    tot
  1  0.029  0.042  0.000  0.126  0.000  0.000  0.000  0.000  0.000  0.197
  2  0.028  0.042  0.000  0.126  0.000  0.000  0.000  0.000  0.000  0.196
  3  0.028  0.042  0.000  0.126  0.000  0.000  0.000  0.000  0.000  0.196
  4  0.029  0.042  0.000  0.126  0.000  0.000  0.000  0.000  0.000  0.197
tot  0.114  0.168  0.000  0.504  0.000  0.000  0.000  0.000  0.000  0.787
 
band   6 # energy   -0.56242617 # occ.  1.00000000
 
ion      s     py     pz     px    dxy    dyz    dz2    dxz    dx2    tot
  1  0.029  0.043  0.000  0.128  0.000  0.000  0.000  0.000  0.000  0.199
  2  0.030  0.042  0.000  0.127  0.000  0.000  0.000  0.000  0.000  0.198
  3  0.030  0.042  0.000  0.127  0.000  0.000  0.000  0.000  0.000  0.198
  4  0.029  0.043  0.000  0.128  0.000  0.000  0.000  0.000  0.000  0.199
tot  0.117  0.170  0.000  0.509  0.000  0.000  0.000  0.000  0.000  0.795
 
band   7 # energy    0.54939295 # occ.  1.00000000
 
ion      s     py     pz     px    dxy    dyz    dz2    dxz    dx2    tot
  1  0.000  0.151  0.000  0.050  0.000  0.000  0.000  0.000  0.000  0.202
  2  0.000  0.151  0.000  0.050  0.000  0.000  0.000  0.000  0.000  0.201
  3  0.000  0.151  0.000  0.050  0.000  0.000  0.000  0.000  0.000  0.201
  4  0.000  0.151  0.000  0.050  0.000  0.000  0.000  0.000  0.000  0.202
tot  0.000  0.605  0.000  0.201  0.000  0.000  0.000  0.000  0.000  0.806
 
band   8 # energy    0.59340421 # occ.  1.00000000
 
ion      s     py     pz     px    dxy    dyz    dz2    dxz    dx2    tot
  1  0.000  0.152  0.000  0.051  0.000  0.000  0.000  0.000  0.000  0.203
  2  0.000  0.152  0.000  0.051  0.000  0.000  0.000  0.000  0.000  0.202
  3  0.000  0.152  0.000  0.051  0.000  0.000  0.000  0.000  0.000  0.202
  4  0.000  0.152  0.000  0.051  0.000  0.000  0.000  0.000  0.000  0.203
tot  0.000  0.608  0.000  0.203  0.000  0.000  0.000  0.000  0.000  0.810
 
band   9 # energy    9.77291867 # occ.  0.00000000
 
ion      s     py     pz     px    dxy    dyz    dz2    dxz    dx2    tot
  1  0.017  0.001  0.000  0.003  0.000  0.000  0.000  0.000  0.000  0.021
  2  0.017  0.001  0.000  0.003  0.000  0.000  0.000  0.000  0.000  0.021
  3  0.017  0.001  0.000  0.003  0.000  0.000  0.000  0.000  0.000  0.021
  4  0.017  0.001  0.000  0.003  0.000  0.000  0.000  0.000  0.000  0.021
tot  0.068  0.004  0.000  0.012  0.000  0.000  0.000  0.000  0.000  0.085
 
band  10 # energy   13.06154960 # occ.  0.00000000
 
ion      s     py     pz     px    dxy    dyz    dz2    dxz    dx2    tot
  1  0.030  0.022  0.000  0.065  0.000  0.000  0.000  0.000  0.000  0.117
  2  0.032  0.023  0.000  0.069  0.000  0.000  0.000  0.000  0.000  0.124
  3  0.032  0.023  0.000  0.069  0.000  0.000  0.000  0.000  0.000  0.124
  4  0.030  0.022  0.000  0.065  0.000  0.000  0.000  0.000  0.000  0.117
tot  0.124  0.090  0.000  0.269  0.000  0.000  0.000  0.000  0.000  0.483
 
band  11 # energy   13.23496988 # occ.  0.00000000
 
ion      s     py     pz     px    dxy    dyz    dz2    dxz    dx2    tot
  1  0.035  0.023  0.000  0.069  0.000  0.000  0.000  0.000  0.000  0.127
  2  0.032  0.022  0.000  0.067  0.000  0.000  0.000  0.000  0.000  0.122
  3  0.032  0.022  0.000  0.067  0.000  0.000  0.000  0.000  0.000  0.122
  4  0.035  0.023  0.000  0.069  0.000  0.000  0.000  0.000  0.000  0.127
tot  0.134  0.091  0.000  0.272  0.000  0.000  0.000  0.000  0.000  0.497
 
band  12 # energy   13.95753436 # occ.  0.00000000
 
ion      s     py     pz     px    dxy    dyz    dz2    dxz    dx2    tot
  1  0.000  0.000  0.160  0.000  0.000  0.000  0.000  0.000  0.000  0.160
  2  0.000  0.000  0.176  0.000  0.000  0.000  0.000  0.000  0.000  0.176
  3  0.000  0.000  0.176  0.000  0.000  0.000  0.000  0.000  0.000  0.176
  4  0.000  0.000  0.160  0.000  0.000  0.000  0.000  0.000  0.000  0.160
tot  0.000  0.000  0.672  0.000  0.000  0.000  0.000  0.000  0.000  0.672
 
band  13 # energy   14.35607960 # occ.  0.00000000
 
ion      s     py     pz     px    dxy    dyz    dz2    dxz    dx2    tot
  1  0.000  0.000  0.183  0.000  0.000  0.000  0.000  0.000  0.000  0.183
  2  0.000  0.000  0.171  0.000  0.000  0.000  0.000  0.000  0.000  0.171
  3  0.000  0.000  0.171  0.000  0.000  0.000  0.000  0.000  0.000  0.171
  4  0.000  0.000  0.183  0.000  0.000  0.000  0.000  0.000  0.000  0.183
tot  0.000  0.000  0.707  0.000  0.000  0.000  0.000  0.000  0.000  0.707
 
band  14 # energy   15.70894227 # occ.  0.00000000
 
ion      s     py     pz     px    dxy    dyz    dz2    dxz    dx2    tot
  1  0.000  0.063  0.000  0.021  0.000  0.000  0.000  0.000  0.000  0.084
  2  0.000  0.065  0.000  0.022  0.000  0.000  0.000  0.000  0.000  0.086
  3  0.000  0.149  0.000  0.050  0.000  0.000  0.000  0.000  0.000  0.199
  4  0.000  0.147  0.000  0.049  0.000  0.000  0.000  0.000  0.000  0.196
tot  0.000  0.423  0.000  0.141  0.000  0.000  0.000  0.000  0.000  0.564
 

 k-point    3 :    0.33333333 0.00000000 0.00000000     weight = 0.02777778

band   1 # energy  -12.38222854 # occ.  1.00000000
 
ion      s     py     pz     px    dxy    dyz    dz2    dxz    dx2    tot
  1  0.141  0.007  0.000  0.020  0.000  0.000  0.000  0.000  0.000  0.167
  2  0.139  0.007  0.000  0.020  0.000  0.000  0.000  0.000  0.000  0.165
  3  0.139  0.007  0.000  0.020  0.000  0.000  0.000  0.000  0.000  0.165
  4  0.141  0.007  0.000  0.020  0.000  0.000  0.000  0.000  0.000  0.167
tot  0.560  0.026  0.000  0.078  0.000  0.000  0.000  0.000  0.000  0.664
 
band   2 # energy  -12.12929679 # occ.  1.00000000
 
ion      s     py     pz     px    dxy    dyz    dz2    dxz    dx2    tot
  1  0.145  0.007  0.000  0.020  0.000  0.000  0.000  0.000  0.000  0.172
  2  0.143  0.007  0.000  0.020  0.000  0.000  0.000  0.000  0.000  0.170
  3  0.143  0.007  0.000  0.020  0.000  0.000  0.000  0.000  0.000  0.170
  4  0.145  0.007  0.000  0.020  0.000  0.000  0.000  0.000  0.000  0.172
tot  0.575  0.027  0.000  0.081  0.000  0.000  0.000  0.000  0.000  0.683
 
band   3 # energy   -4.98695385 # occ.  1.00000000
 
ion      s     py     pz     px    dxy    dyz    dz2    dxz    dx2    tot
  1  0.068  0.029  0.000  0.086  0.000  0.000  0.000  0.000  0.000  0.183
  2  0.069  0.028  0.000  0.085  0.000  0.000  0.000  0.000  0.000  0.182
  3  0.069  0.028  0.000  0.085  0.000  0.000  0.000  0.000  0.000  0.182
  4  0.068  0.029  0.000  0.086  0.000  0.000  0.000  0.000  0.000  0.183
tot  0.273  0.114  0.000  0.343  0.000  0.000  0.000  0.000  0.000  0.731
 
band   4 # energy   -4.85367887 # occ.  1.00000000
 
ion      s     py     pz     px    dxy    dyz    dz2    dxz    dx2    tot
  1  0.069  0.029  0.000  0.088  0.000  0.000  0.000  0.000  0.000  0.186
  2  0.070  0.029  0.000  0.087  0.000  0.000  0.000  0.000  0.000  0.185
  3  0.070  0.029  0.000  0.087  0.000  0.000  0.000  0.000  0.000  0.185
  4  0.069  0.029  0.000  0.088  0.000  0.000  0.000  0.000  0.000  0.186
tot  0.277  0.116  0.000  0.349  0.000  0.000  0.000  0.000  0.000  0.742
 
band   5 # energy   -1.07709696 # occ.  1.00000000
 
ion      s     py     pz     px    dxy    dyz    dz2    dxz    dx2    tot
  1  0.000  0.148  0.000  0.049  0.000  0.000  0.000  0.000  0.000  0.198
  2  0.000  0.148  0.000  0.049  0.000  0.000  0.000  0.000  0.000  0.198
  3  0.000  0.148  0.000  0.049  0.000  0.000  0.000  0.000  0.000  0.197
  4  0.000  0.148  0.000  0.049  0.000  0.000  0.000  0.000  0.000  0.198
tot  0.000  0.593  0.000  0.198  0.000  0.000  0.000  0.000  0.000  0.791
 
band   6 # energy   -1.02150812 # occ.  1.00000000
 
ion      s     py     pz     px    dxy    dyz    dz2    dxz    dx2    tot
  1  0.000  0.149  0.000  0.050  0.000  0.000  0.000  0.000  0.000  0.199
  2  0.000  0.149  0.000  0.050  0.000  0.000  0.000  0.000  0.000  0.199
  3  0.000  0.149  0.000  0.050  0.000  0.000  0.000  0.000  0.000  0.199
  4  0.000  0.149  0.000  0.050  0.000  0.000  0.000  0.000  0.000  0.199
tot  0.000  0.597  0.000  0.199  0.000  0.000  0.000  0.000  0.000  0.796
 
band   7 # energy   -0.74091257 # occ.  1.00000000
 
ion      s     py     pz     px    dxy    dyz    dz2    dxz    dx2    tot
  1  0.000  0.000  0.105  0.000  0.000  0.000  0.000  0.000  0.000  0.105
  2  0.000  0.000  0.103  0.000  0.000  0.000  0.000  0.000  0.000  0.103
  3  0.000  0.000  0.103  0.000  0.000  0.000  0.000  0.000  0.000  0.103
  4  0.000  0.000  0.105  0.000  0.000  0.000  0.000  0.000  0.000  0.105
tot  0.000  0.000  0.416  0.000  0.000  0.000  0.000  0.000  0.000  0.416
 
band   8 # energy    0.94531346 # occ.  1.00000000
 
ion      s     py     pz     px    dxy    dyz    dz2    dxz    dx2    tot
  1  0.000  0.000  0.137  0.000  0.000  0.000  0.000  0.000  0.000  0.137
  2  0.000  0.000  0.127  0.000  0.000  0.000  0.000  0.000  0.000  0.127
  3  0.000  0.000  0.127  0.000  0.000  0.000  0.000  0.000  0.000  0.127
  4  0.000  0.000  0.137  0.000  0.000  0.000  0.000  0.000  0.000  0.137
tot  0.000  0.000  0.529  0.000  0.000  0.000  0.000  0.000  0.000  0.529
 
band   9 # energy    9.23783171 # occ.  0.00000000
 
ion      s     py     pz     px    dxy    dyz    dz2    dxz    dx2    tot
  1  0.000  0.000  0.114  0.000  0.000  0.000  0.000  0.000  0.000  0.114
  2  0.000  0.000  0.139  0.000  0.000  0.000  0.000  0.000  0.000  0.139
  3  0.000  0.000  0.139  0.000  0.000  0.000  0.000  0.000  0.000  0.139
  4  0.000  0.000  0.114  0.000  0.000  0.000  0.000  0.000  0.000  0.114
tot  0.000  0.000  0.506  0.000  0.000  0.000  0.000  0.000  0.000  0.506
 
band  10 # energy   10.13509250 # occ.  0.00000000
 
ion      s     py     pz     px    dxy    dyz    dz2    dxz    dx2    tot
  1  0.000  0.000  0.158  0.000  0.000  0.000  0.000  0.000  0.000  0.158
  2  0.000  0.000  0.141  0.000  0.000  0.000  0.000  0.000  0.000  0.141
  3  0.000  0.000  0.141  0.000  0.000  0.000  0.000  0.000  0.000  0.141
  4  0.000  0.000  0.158  0.000  0.000  0.000  0.000  0.000  0.000  0.158
tot  0.000  0.000  0.597  0.000  0.000  0.000  0.000  0.000  0.000  0.597
 
band  11 # energy   12.08405139 # occ.  0.00000000
 
ion      s     py     pz     px    dxy    dyz    dz2    dxz    dx2    tot
  1  0.027  0.008  0.000  0.023  0.000  0.000  0.000  0.000  0.000  0.057
  2  0.008  0.007  0.000  0.022  0.000  0.000  0.000  0.000  0.000  0.037
  3  0.008  0.007  0.000  0.022  0.000  0.000  0.000  0.000  0.000  0.037
  4  0.027  0.008  0.000  0.023  0.000  0.000  0.000  0.000  0.000  0.057
tot  0.069  0.030  0.000  0.090  0.000  0.000  0.000  0.000  0.000  0.189
 
band  12 # energy   12.36202642 # occ.  0.00000000
 
ion      s     py     pz     px    dxy    dyz    dz2    dxz    dx2    tot
  1  0.053  0.007  0.000  0.021  0.000  0.000  0.000  0.000  0.000  0.081
  2  0.089  0.008  0.000  0.024  0.000  0.000  0.000  0.000  0.000  0.121
  3  0.089  0.008  0.000  0.024  0.000  0.000  0.000  0.000  0.000  0.121
  4  0.053  0.007  0.000  0.021  0.000  0.000  0.000  0.000  0.000  0.081
tot  0.284  0.030  0.000  0.090  0.000  0.000  0.000  0.000  0.000  0.404
 
band  13 # energy   12.75665084 # occ.  0.00000000
 
ion      s     py     pz     px    dxy    dyz    dz2    dxz    dx2    tot
  1  0.090  0.005  0.000  0.016  0.000  0.000  0.000  0.000  0.000  0.110
  2  0.073  0.005  0.000  0.015  0.000  0.000  0.000  0.000  0.000  0.093
  3  0.073  0.005  0.000  0.015  0.000  0.000  0.000  0.000  0.000  0.093
  4  0.090  0.005  0.000  0.016  0.000  0.000  0.000  0.000  0.000  0.110
tot  0.326  0.020  0.000  0.061  0.000  0.000  0.000  0.000  0.000  0.407
 
band  14 # energy   17.48183140 # occ.  0.00000000
 
ion      s     py     pz     px    dxy    dyz    dz2    dxz    dx2    tot
  1  0.000  0.000  0.089  0.000  0.000  0.000  0.000  0.000  0.000  0.089
  2  0.000  0.000  0.070  0.000  0.000  0.000  0.000  0.000  0.000  0.070
  3  0.000  0.000  0.070  0.000  0.000  0.000  0.000  0.000  0.000  0.070
  4  0.000  0.000  0.089  0.000  0.000  0.000  0.000  0.000  0.000  0.089
tot  0.000  0.000  0.318  0.000  0.000  0.000  0.000  0.000  0.000  0.318
 

 k-point    4 :    0.50000000 0.00000000 0.00000000     weight = 0.01388889

band   1 # energy   -9.64309024 # occ.  1.00000000
 
ion      s     py     pz     px    dxy    dyz    dz2    dxz    dx2    tot
  1  0.138  0.009  0.000  0.028  0.000  0.000  0.000  0.000  0.000  0.176
  2  0.159  0.006  0.000  0.019  0.000  0.000  0.000  0.000  0.000  0.185
  3  0.159  0.006  0.000  0.019  0.000  0.000  0.000  0.000  0.000  0.185
  4  0.138  0.009  0.000  0.028  0.000  0.000  0.000  0.000  0.000  0.176
tot  0.595  0.032  0.000  0.096  0.000  0.000  0.000  0.000  0.000  0.722
 
band   2 # energy   -9.54063035 # occ.  1.00000000
 
ion      s     py     pz     px    dxy    dyz    dz2    dxz    dx2    tot
  1  0.172  0.005  0.000  0.016  0.000  0.000  0.000  0.000  0.000  0.193
  2  0.128  0.011  0.000  0.033  0.000  0.000  0.000  0.000  0.000  0.172
  3  0.128  0.011  0.000  0.033  0.000  0.000  0.000  0.000  0.000  0.172
  4  0.172  0.005  0.000  0.016  0.000  0.000  0.000  0.000  0.000  0.193
tot  0.599  0.033  0.000  0.098  0.000  0.000  0.000  0.000  0.000  0.730
 
band   3 # energy   -8.57419264 # occ.  1.00000000
 
ion      s     py     pz     px    dxy    dyz    dz2    dxz    dx2    tot
  1  0.047  0.028  0.000  0.083  0.000  0.000  0.000  0.000  0.000  0.157
  2  0.093  0.021  0.000  0.063  0.000  0.000  0.000  0.000  0.000  0.178
  3  0.093  0.021  0.000  0.063  0.000  0.000  0.000  0.000  0.000  0.178
  4  0.047  0.028  0.000  0.083  0.000  0.000  0.000  0.000  0.000  0.157
tot  0.280  0.098  0.000  0.293  0.000  0.000  0.000  0.000  0.000  0.670
 
band   4 # energy   -8.49822344 # occ.  1.00000000
 
ion      s     py     pz     px    dxy    dyz    dz2    dxz    dx2    tot
  1  0.083  0.023  0.000  0.069  0.000  0.000  0.000  0.000  0.000  0.175
  2  0.057  0.027  0.000  0.080  0.000  0.000  0.000  0.000  0.000  0.163
  3  0.057  0.027  0.000  0.080  0.000  0.000  0.000  0.000  0.000  0.163
  4  0.083  0.023  0.000  0.069  0.000  0.000  0.000  0.000  0.000  0.175
tot  0.280  0.099  0.000  0.297  0.000  0.000  0.000  0.000  0.000  0.677
 
band   5 # energy   -1.71852965 # occ.  1.00000000
 
ion      s     py     pz     px    dxy    dyz    dz2    dxz    dx2    tot
  1  0.000  0.148  0.000  0.049  0.000  0.000  0.000  0.000  0.000  0.197
  2  0.000  0.148  0.000  0.049  0.000  0.000  0.000  0.000  0.000  0.197
  3  0.000  0.148  0.000  0.049  0.000  0.000  0.000  0.000  0.000  0.197
  4  0.000  0.148  0.000  0.049  0.000  0.000  0.000  0.000  0.000  0.197
tot  0.000  0.591  0.000  0.197  0.000  0.000  0.000  0.000  0.000  0.788
 
band   6 # energy   -1.66113728 # occ.  1.00000000
 
ion      s     py     pz     px    dxy    dyz    dz2    dxz    dx2    tot
  1  0.000  0.149  0.000  0.050  0.000  0.000  0.000  0.000  0.000  0.199
  2  0.000  0.149  0.000  0.050  0.000  0.000  0.000  0.000  0.000  0.198
  3  0.000  0.149  0.000  0.050  0.000  0.000  0.000  0.000  0.000  0.198
  4  0.000  0.149  0.000  0.050  0.000  0.000  0.000  0.000  0.000  0.199
tot  0.000  0.595  0.000  0.198  0.000  0.000  0.000  0.000  0.000  0.793
 
band   7 # energy    1.92331346 # occ.  1.00000000
 
ion      s     py     pz     px    dxy    dyz    dz2    dxz    dx2    tot
  1  0.000  0.000  0.103  0.000  0.000  0.000  0.000  0.000  0.000  0.103
  2  0.000  0.000  0.139  0.000  0.000  0.000  0.000  0.000  0.000  0.139
  3  0.000  0.000  0.139  0.000  0.000  0.000  0.000  0.000  0.000  0.139
  4  0.000  0.000  0.103  0.000  0.000  0.000  0.000  0.000  0.000  0.103
tot  0.000  0.000  0.484  0.000  0.000  0.000  0.000  0.000  0.000  0.484
 
band   8 # energy    2.56674912 # occ.  1.00000000
 
ion      s     py     pz     px    dxy    dyz    dz2    dxz    dx2    tot
  1  0.000  0.000  0.169  0.000  0.000  0.000  0.000  0.000  0.000  0.169
  2  0.000  0.000  0.091  0.000  0.000  0.000  0.000  0.000  0.000  0.091
  3  0.000  0.000  0.091  0.000  0.000  0.000  0.000  0.000  0.000  0.091
  4  0.000  0.000  0.169  0.000  0.000  0.000  0.000  0.000  0.000  0.169
tot  0.000  0.000  0.520  0.000  0.000  0.000  0.000  0.000  0.000  0.520
 
band   9 # energy    6.25289977 # occ.  0.00000000
 
ion      s     py     pz     px    dxy    dyz    dz2    dxz    dx2    tot
  1  0.000  0.000  0.051  0.000  0.000  0.000  0.000  0.000  0.000  0.051
  2  0.000  0.000  0.175  0.000  0.000  0.000  0.000  0.000  0.000  0.175
  3  0.000  0.000  0.175  0.000  0.000  0.000  0.000  0.000  0.000  0.175
  4  0.000  0.000  0.051  0.000  0.000  0.000  0.000  0.000  0.000  0.051
tot  0.000  0.000  0.451  0.000  0.000  0.000  0.000  0.000  0.000  0.451
 
band  10 # energy    6.84851426 # occ.  0.00000000
 
ion      s     py     pz     px    dxy    dyz    dz2    dxz    dx2    tot
  1  0.000  0.000  0.170  0.000  0.000  0.000  0.000  0.000  0.000  0.170
  2  0.000  0.000  0.084  0.000  0.000  0.000  0.000  0.000  0.000  0.084
  3  0.000  0.000  0.084  0.000  0.000  0.000  0.000  0.000  0.000  0.084
  4  0.000  0.000  0.170  0.000  0.000  0.000  0.000  0.000  0.000  0.170
tot  0.000  0.000  0.508  0.000  0.000  0.000  0.000  0.000  0.000  0.508
 
band  11 # energy   11.95224318 # occ.  0.00000000
 
ion      s     py     pz     px    dxy    dyz    dz2    dxz    dx2    tot
  1  0.088  0.005  0.000  0.015  0.000  0.000  0.000  0.000  0.000  0.107
  2  0.089  0.005  0.000  0.015  0.000  0.000  0.000  0.000  0.000  0.109
  3  0.089  0.005  0.000  0.015  0.000  0.000  0.000  0.000  0.000  0.109
  4  0.088  0.005  0.000  0.015  0.000  0.000  0.000  0.000  0.000  0.107
tot  0.353  0.020  0.000  0.059  0.000  0.000  0.000  0.000  0.000  0.433
 
band  12 # energy   12.35116196 # occ.  0.00000000
 
ion      s     py     pz     px    dxy    dyz    dz2    dxz    dx2    tot
  1  0.093  0.005  0.000  0.015  0.000  0.000  0.000  0.000  0.000  0.113
  2  0.094  0.005  0.000  0.016  0.000  0.000  0.000  0.000  0.000  0.115
  3  0.094  0.005  0.000  0.016  0.000  0.000  0.000  0.000  0.000  0.115
  4  0.093  0.005  0.000  0.015  0.000  0.000  0.000  0.000  0.000  0.113
tot  0.375  0.020  0.000  0.061  0.000  0.000  0.000  0.000  0.000  0.456
 
band  13 # energy   16.03015594 # occ.  0.00000000
 
ion      s     py     pz     px    dxy    dyz    dz2    dxz    dx2    tot
  1  0.002  0.011  0.000  0.032  0.000  0.000  0.000  0.000  0.000  0.044
  2  0.009  0.001  0.000  0.002  0.000  0.000  0.000  0.000  0.000  0.011
  3  0.009  0.001  0.000  0.002  0.000  0.000  0.000  0.000  0.000  0.011
  4  0.002  0.011  0.000  0.032  0.000  0.000  0.000  0.000  0.000  0.044
tot  0.023  0.022  0.000  0.066  0.000  0.000  0.000  0.000  0.000  0.111
 
band  14 # energy   16.11079214 # occ.  0.00000000
 
ion      s     py     pz     px    dxy    dyz    dz2    dxz    dx2    tot
  1  0.007  0.001  0.000  0.003  0.000  0.000  0.000  0.000  0.000  0.011
  2  0.000  0.011  0.000  0.034  0.000  0.000  0.000  0.000  0.000  0.045
  3  0.000  0.011  0.000  0.034  0.000  0.000  0.000  0.000  0.000  0.045
  4  0.007  0.001  0.000  0.003  0.000  0.000  0.000  0.000  0.000  0.011
tot  0.014  0.025  0.000  0.074  0.000  0.000  0.000  0.000  0.000  0.113
 

 k-point    5 :    0.16666667 0.16666667 0.00000000     weight = 0.02777778

band   1 # energy  -13.02855518 # occ.  1.00000000
 
ion      s     py     pz     px    dxy    dyz    dz2    dxz    dx2    tot
  1  0.145  0.015  0.000  0.005  0.000  0.000  0.000  0.000  0.000  0.165
  2  0.143  0.015  0.000  0.005  0.000  0.000  0.000  0.000  0.000  0.163
  3  0.143  0.015  0.000  0.005  0.000  0.000  0.000  0.000  0.000  0.163
  4  0.145  0.015  0.000  0.005  0.000  0.000  0.000  0.000  0.000  0.165
tot  0.576  0.060  0.000  0.020  0.000  0.000  0.000  0.000  0.000  0.656
 
band   2 # energy  -12.76437095 # occ.  1.00000000
 
ion      s     py     pz     px    dxy    dyz    dz2    dxz    dx2    tot
  1  0.150  0.015  0.000  0.005  0.000  0.000  0.000  0.000  0.000  0.170
  2  0.148  0.016  0.000  0.005  0.000  0.000  0.000  0.000  0.000  0.169
  3  0.148  0.016  0.000  0.005  0.000  0.000  0.000  0.000  0.000  0.169
  4  0.150  0.015  0.000  0.005  0.000  0.000  0.000  0.000  0.000  0.170
tot  0.594  0.062  0.000  0.021  0.000  0.000  0.000  0.000  0.000  0.678
 
band   3 # energy   -3.07005869 # occ.  1.00000000
 
ion      s     py     pz     px    dxy    dyz    dz2    dxz    dx2    tot
  1  0.060  0.087  0.000  0.046  0.000  0.000  0.000  0.000  0.000  0.193
  2  0.062  0.090  0.000  0.044  0.000  0.000  0.000  0.000  0.000  0.195
  3  0.062  0.090  0.000  0.044  0.000  0.000  0.000  0.000  0.000  0.195
  4  0.060  0.087  0.000  0.046  0.000  0.000  0.000  0.000  0.000  0.193
tot  0.243  0.354  0.000  0.179  0.000  0.000  0.000  0.000  0.000  0.776
 
band   4 # energy   -3.01455254 # occ.  1.00000000
 