   4   4   1   0
  0.8797333E+01  0.2461200E-09  0.2461200E-09  0.6707900E-09  0.5000000E-15
  1.000000000000000E-004
  CAR 
 unknown system                          
     20.99908355    -17.05149973  301      4.57459539      1.00000000
    -17.051  0.0000E+00  0.0000E+00  0.0000E+00  0.0000E+00
    -16.925  0.0000E+00  0.0000E+00  0.0000E+00  0.0000E+00
    -16.798  0.0000E+00  0.0000E+00  0.0000E+00  0.0000E+00
    -16.671  0.0000E+00  0.0000E+00  0.0000E+00  0.0000E+00
    -16.544  0.0000E+00  0.0000E+00  0.0000E+00  0.0000E+00
    -16.417  0.0000E+00  0.0000E+00  0.0000E+00  0.0000E+00
    -16.290  0.0000E+00  0.0000E+00  0.0000E+00  0.0000E+00
    -16.164  0.0000E+00  0.0000E+00  0.0000E+00  0.0000E+00
    -16.037  0.0000E+00  0.0000E+00  0.0000E+00  0.0000E+00
    -15.910  0.0000E+00  0.0000E+00  0.0000E+00  0.0000E+00
    -15.783 -0.2687E-38 -0.1568E-38 -0.3408E-39 -0.1989E-39
    -15.656 -0.7560E-21 -0.5119E-21 -0.9589E-22 -0.6493E-22
    -15.529 -0.4898E-09 -0.3855E-09 -0.6212E-10 -0.4889E-10
    -15.403 -0.5271E-03 -0.4888E-03 -0.6686E-04 -0.6200E-04
    -15.276  0.4187E-01  0.4097E-01  0.5243E-02  0.5135E-02
    -15.149  0.4594E-01  0.4654E-01  0.1107E-01  0.1104E-01
    -15.022  0.3613E+00  0.3567E+00  0.5690E-01  0.5628E-01
    -14.895  0.2972E+00  0.2991E+00  0.9460E-01  0.9421E-01
    -14.768  0.3614E+00  0.3637E+00  0.1404E+00  0.1403E+00
    -14.642 -0.1070E-01 -0.1017E-01  0.1391E+00  0.1391E+00
    -14.515  0.3764E+00  0.3736E+00  0.1868E+00  0.1864E+00
    -14.388  0.2990E+00  0.2974E+00  0.2247E+00  0.2242E+00
    -14.261  0.6852E+00  0.6874E+00  0.3117E+00  0.3113E+00
    -14.134  0.3152E+00  0.3138E+00  0.3516E+00  0.3511E+00
    -14.007  0.2259E+00  0.2300E+00  0.3803E+00  0.3803E+00
    -13.881 -0.2325E-02 -0.2469E-02  0.3800E+00  0.3800E+00
    -13.754 -0.1521E-02 -0.1409E-02  0.3798E+00  0.3798E+00
    -13.627  0.3245E+00  0.3158E+00  0.4210E+00  0.4199E+00
    -13.500  0.7347E+00  0.7391E+00  0.5142E+00  0.5136E+00
    -13.373  0.7962E+00  0.7970E+00  0.6151E+00  0.6147E+00
    -13.246  0.3214E-01  0.3575E-01  0.6192E+00  0.6192E+00
    -13.120  0.3072E+00  0.3044E+00  0.6582E+00  0.6579E+00
    -12.993  0.3202E+00  0.3206E+00  0.6988E+00  0.6985E+00
    -12.866  0.3317E+00  0.3341E+00  0.7409E+00  0.7409E+00
    -12.739 -0.6885E-02 -0.7019E-02  0.7400E+00  0.7400E+00
    -12.612 -0.4872E-04 -0.4542E-04  0.7400E+00  0.7400E+00
    -12.485  0.4470E-01  0.4272E-01  0.7457E+00  0.7454E+00
    -12.359  0.4319E+00  0.4324E+00  0.8004E+00  0.8003E+00
    -12.232  0.6770E+00  0.6716E+00  0.8863E+00  0.8854E+00
    -12.105  0.8383E+00  0.8423E+00  0.9926E+00  0.9923E+00
    -11.978  0.8444E+00  0.8464E+00  0.1100E+01  0.1100E+01
    -11.851  0.2046E-02  0.3024E-02  0.1100E+01  0.1100E+01
    -11.724 -0.1038E-04 -0.1073E-04  0.1100E+01  0.1100E+01
    -11.598 -0.2788E-02 -0.3053E-02  0.1100E+01  0.1100E+01
    -11.471  0.4027E+00  0.4021E+00  0.1151E+01  0.1151E+01
    -11.344  0.4352E+00  0.4350E+00  0.1206E+01  0.1206E+01
    -11.217  0.1113E+00  0.1124E+00  0.1220E+01  0.1220E+01
    -11.090 -0.2511E-03 -0.2564E-03  0.1220E+01  0.1220E+01
    -10.963 -0.5747E-02 -0.5689E-02  0.1219E+01  0.1219E+01
    -10.837  0.5452E+00  0.5437E+00  0.1288E+01  0.1288E+01
    -10.710  0.8136E+00  0.8147E+00  0.1392E+01  0.1392E+01
    -10.583  0.5448E+00  0.5452E+00  0.1461E+01  0.1461E+01
    -10.456  0.2341E+00  0.2344E+00  0.1490E+01  0.1490E+01
    -10.329  0.9732E+00  0.9742E+00  0.1614E+01  0.1614E+01
    -10.202  0.6915E+00  0.6901E+00  0.1702E+01  0.1702E+01
    -10.076 -0.1246E-01 -0.1239E-01  0.1700E+01  0.1700E+01
     -9.949  0.8669E-01  0.8857E-01  0.1711E+01  0.1711E+01
     -9.822  0.3932E+00  0.3914E+00  0.1761E+01  0.1761E+01
     -9.695 -0.6606E-02 -0.6741E-02  0.1760E+01  0.1760E+01
     -9.568 -0.5808E-06 -0.5345E-06  0.1760E+01  0.1760E+01
     -9.441 -0.4788E-03 -0.5094E-03  0.1760E+01  0.1760E+01
     -9.315  0.1680E+00  0.1726E+00  0.1781E+01  0.1782E+01
     -9.188  0.8715E+00  0.8711E+00  0.1892E+01  0.1892E+01
     -9.061  0.5442E+00  0.5428E+00  0.1961E+01  0.1961E+01
     -8.934  0.3129E+00  0.3099E+00  0.2000E+01  0.2000E+01
     -8.807 -0.3927E-02 -0.3793E-02  0.2000E+01  0.2000E+01
     -8.680  0.1972E-01  0.1899E-01  0.2002E+01  0.2002E+01
     -8.554  0.4608E+00  0.4614E+00  0.2061E+01  0.2061E+01
     -8.427 -0.7413E-02 -0.7341E-02  0.2060E+01  0.2060E+01
     -8.300 -0.1181E-05 -0.1224E-05  0.2060E+01  0.2060E+01
     -8.173 -0.1751E-01 -0.1756E-01  0.2058E+01  0.2058E+01
     -8.046  0.8447E+00  0.8460E+00  0.2165E+01  0.2165E+01
     -7.919  0.1011E+00  0.9997E-01  0.2178E+01  0.2178E+01
     -7.793  0.9230E+00  0.9248E+00  0.2295E+01  0.2295E+01
     -7.666  0.9567E+00  0.9565E+00  0.2416E+01  0.2416E+01
     -7.539  0.3037E-01  0.2864E-01  0.2420E+01  0.2420E+01
     -7.412  0.2624E-02  0.4804E-02  0.2420E+01  0.2421E+01
     -7.285  0.8336E+00  0.8398E+00  0.2526E+01  0.2527E+01
     -7.158  0.1100E+00  0.1016E+00  0.2540E+01  0.2540E+01
     -7.032 -0.1526E-03 -0.1337E-03  0.2540E+01  0.2540E+01
     -6.905 -0.4103E-02 -0.4255E-02  0.2539E+01  0.2539E+01
     -6.778  0.3812E+00  0.3861E+00  0.2588E+01  0.2588E+01
     -6.651  0.5259E+00  0.5229E+00  0.2655E+01  0.2655E+01
     -6.524  0.4114E-01  0.3923E-01  0.2660E+01  0.2660E+01
     -6.397  0.3972E+00  0.4096E+00  0.2710E+01  0.2712E+01
     -6.271  0.1525E+01  0.1514E+01  0.2904E+01  0.2904E+01
     -6.144 -0.2767E-01 -0.2919E-01  0.2900E+01  0.2900E+01
     -6.017 -0.3984E-05 -0.3328E-05  0.2900E+01  0.2900E+01
     -5.890 -0.6498E-29 -0.1024E-28  0.2900E+01  0.2900E+01
     -5.763 -0.6005E-14 -0.8201E-14  0.2900E+01  0.2900E+01
     -5.636 -0.1350E-04 -0.1593E-04  0.2900E+01  0.2900E+01
     -5.509  0.1919E-01  0.2374E-01  0.2902E+01  0.2903E+01
     -5.383  0.5521E+00  0.5551E+00  0.2972E+01  0.2973E+01
     -5.256  0.1536E+01  0.1539E+01  0.3167E+01  0.3169E+01
     -5.129  0.7359E+00  0.7251E+00  0.3261E+01  0.3261E+01
     -5.002 -0.4835E-02 -0.4661E-02  0.3260E+01  0.3260E+01
     -4.875 -0.6808E-09 -0.6412E-09  0.3260E+01  0.3260E+01
     -4.748 -0.3827E-31 -0.7800E-31  0.3260E+01  0.3260E+01
     -4.622 -0.1720E-15 -0.2821E-15  0.3260E+01  0.3260E+01
     -4.495 -0.2077E-05 -0.2749E-05  0.3260E+01  0.3260E+01
     -4.368 -0.1430E-01 -0.1194E-01  0.3258E+01  0.3258E+01
     -4.241  0.6594E+00  0.6632E+00  0.3342E+01  0.3343E+01
     -4.114  0.5025E+00  0.5018E+00  0.3406E+01  0.3406E+01
     -3.987  0.6712E+00  0.6745E+00  0.3491E+01  0.3492E+01
     -3.861  0.1030E+01  0.1024E+01  0.3621E+01  0.3622E+01
     -3.734  0.3904E-02  0.7166E-03  0.3622E+01  0.3622E+01
     -3.607  0.7923E+00  0.8270E+00  0.3722E+01  0.3727E+01
     -3.480  0.1207E+01  0.1165E+01  0.3875E+01  0.3874E+01
     -3.353  0.1065E+00  0.1097E+00  0.3889E+01  0.3888E+01
     -3.226  0.6452E-01  0.6892E-01  0.3897E+01  0.3897E+01
     -3.100  0.7800E-01  0.7318E-01  0.3907E+01  0.3906E+01
     -2.973  0.3065E-01  0.3590E-01  0.3911E+01  0.3911E+01
     -2.846  0.1456E+00  0.1347E+00  0.3929E+01  0.3928E+01
     -2.719  0.3043E+00  0.3368E+00  0.3968E+01  0.3971E+01
     -2.592  0.1654E+01  0.1652E+01  0.4178E+01  0.4180E+01
     -2.465  0.6157E+00  0.6061E+00  0.4256E+01  0.4257E+01
     -2.339  0.9126E+00  0.9051E+00  0.4372E+01  0.4372E+01
     -2.212  0.2282E+00  0.2188E+00  0.4401E+01  0.4400E+01
     -2.085  0.3278E+00  0.3759E+00  0.4442E+01  0.4447E+01
     -1.958  0.1836E+01  0.1789E+01  0.4675E+01  0.4674E+01
     -1.831  0.8312E-01  0.8953E-01  0.4686E+01  0.4686E+01
     -1.704  0.5262E-01  0.4216E-01  0.4692E+01  0.4691E+01
     -1.578  0.6643E+00  0.7025E+00  0.4776E+01  0.4780E+01
     -1.451  0.1589E+01  0.1612E+01  0.4978E+01  0.4984E+01
     -1.324  0.1119E+01  0.1072E+01  0.5120E+01  0.5120E+01
     -1.197  0.1576E+00  0.1618E+00  0.5140E+01  0.5141E+01
     -1.070  0.1408E+01  0.1435E+01  0.5318E+01  0.5323E+01
     -0.943  0.1209E+01  0.1174E+01  0.5472E+01  0.5472E+01
     -0.817  0.2722E+00  0.2604E+00  0.5506E+01  0.5505E+01
     -0.690  0.2370E+00  0.2490E+00  0.5536E+01  0.5536E+01
     -0.563  0.3908E+00  0.4118E+00  0.5586E+01  0.5589E+01
     -0.436  0.1980E+01  0.1974E+01  0.5837E+01  0.5839E+01
     -0.309  0.3844E+00  0.3903E+00  0.5886E+01  0.5889E+01
     -0.182  0.1430E+01  0.1430E+01  0.6067E+01  0.6070E+01
     -0.056  0.5826E+00  0.5552E+00  0.6141E+01  0.6140E+01
      0.071  0.5971E+00  0.5926E+00  0.6217E+01  0.6215E+01
      0.198  0.3648E+00  0.3680E+00  0.6263E+01  0.6262E+01
      0.325  0.4640E+00  0.4650E+00  0.6322E+01  0.6321E+01
      0.452  0.4647E-01  0.5010E-01  0.6328E+01  0.6327E+01
      0.579  0.3500E+00  0.3490E+00  0.6372E+01  0.6372E+01
      0.705  0.1867E+00  0.1805E+00  0.6396E+01  0.6395E+01
      0.832  0.1653E+01  0.1714E+01  0.6605E+01  0.6612E+01
      0.959  0.7624E+00  0.7056E+00  0.6702E+01  0.6702E+01
      1.086  0.3306E+00  0.3321E+00  0.6744E+01  0.6744E+01
      1.213  0.3723E-01  0.4523E-01  0.6749E+01  0.6749E+01
      1.340  0.1243E+01  0.1240E+01  0.6907E+01  0.6907E+01
      1.466  0.2228E+00  0.2177E+00  0.6935E+01  0.6934E+01
      1.593  0.4912E+00  0.4797E+00  0.6997E+01  0.6995E+01
      1.720  0.6067E+00  0.6204E+00  0.7074E+01  0.7074E+01
      1.847  0.9630E+00  0.9952E+00  0.7196E+01  0.7200E+01
      1.974  0.6457E+00  0.6016E+00  0.7278E+01  0.7276E+01
      2.101  0.3822E+00  0.3868E+00  0.7327E+01  0.7325E+01
      2.227  0.4925E+00  0.4912E+00  0.7389E+01  0.7388E+01
      2.354  0.5729E+00  0.5949E+00  0.7462E+01  0.7463E+01
      2.481  0.5455E+00  0.5316E+00  0.7531E+01  0.7531E+01
      2.608  0.7772E-01  0.8044E-01  0.7541E+01  0.7541E+01
      2.735  0.3303E+00  0.3207E+00  0.7583E+01  0.7582E+01
      2.862  0.2956E+00  0.2919E+00  0.7620E+01  0.7619E+01
      2.988  0.5290E+00  0.5358E+00  0.7687E+01  0.7686E+01
      3.115  0.6709E+00  0.6726E+00  0.7772E+01  0.7772E+01
      3.242  0.1746E+00  0.1751E+00  0.7794E+01  0.7794E+01
      3.369  0.1366E+00  0.1385E+00  0.7812E+01  0.7812E+01
      3.496  0.2543E+00  0.2548E+00  0.7844E+01  0.7844E+01
      3.623  0.1300E+00  0.1264E+00  0.7861E+01  0.7860E+01
      3.749  0.2624E+00  0.2616E+00  0.7894E+01  0.7893E+01
      3.876  0.3227E+00  0.3288E+00  0.7935E+01  0.7935E+01
      4.003  0.4445E-01  0.4074E-01  0.7940E+01  0.7940E+01
      4.130  0.4334E-01  0.4685E-01  0.7946E+01  0.7946E+01
      4.257  0.8385E-01  0.8184E-01  0.7957E+01  0.7956E+01
      4.384  0.1059E+00  0.1076E+00  0.7970E+01  0.7970E+01
      4.510  0.1590E+00  0.1566E+00  0.7990E+01  0.7990E+01
      4.637  0.7831E-01  0.8100E-01  0.8000E+01  0.8000E+01
      4.764 -0.5473E-03 -0.6257E-03  0.8000E+01  0.8000E+01
      4.891 -0.5597E-10 -0.7940E-10  0.8000E+01  0.8000E+01
      5.018  0.0000E+00  0.0000E+00  0.8000E+01  0.8000E+01
      5.145  0.0000E+00  0.0000E+00  0.8000E+01  0.8000E+01
      5.272  0.0000E+00  0.0000E+00  0.8000E+01  0.8000E+01
      5.398 -0.3560E-32 -0.1820E-32  0.8000E+01  0.8000E+01
      5.525 -0.3596E-16 -0.2249E-16  0.8000E+01  0.8000E+01
      5.652 -0.7443E-06 -0.5713E-06  0.8000E+01  0.8000E+01
      5.779 -0.6381E-02 -0.7121E-02  0.7999E+01  0.7999E+01
      5.906  0.3050E+00  0.3034E+00  0.8038E+01  0.8038E+01
      6.033  0.1262E+00  0.1277E+00  0.8054E+01  0.8054E+01
      6.159 -0.2731E-03  0.5647E-04  0.8054E+01  0.8054E+01
      6.286  0.1598E+00  0.1581E+00  0.8074E+01  0.8074E+01
      6.413  0.3340E+00  0.3243E+00  0.8116E+01  0.8115E+01
      6.540  0.8005E+00  0.8026E+00  0.8218E+01  0.8217E+01
      6.667  0.3599E+00  0.3670E+00  0.8264E+01  0.8263E+01
      6.794  0.6387E-01  0.6656E-01  0.8272E+01  0.8272E+01
      6.920  0.4996E+00  0.4927E+00  0.8335E+01  0.8334E+01
      7.047  0.3447E+00  0.3443E+00  0.8379E+01  0.8378E+01
      7.174  0.1653E+00  0.1663E+00  0.8400E+01  0.8399E+01
      7.301  0.2394E+00  0.2444E+00  0.8430E+01  0.8430E+01
      7.428  0.1956E+00  0.1948E+00  0.8455E+01  0.8455E+01
      7.555  0.4860E+00  0.4765E+00  0.8517E+01  0.8515E+01
      7.681  0.7712E+00  0.7746E+00  0.8614E+01  0.8613E+01
      7.808  0.2703E+00  0.2759E+00  0.8649E+01  0.8648E+01
      7.935  0.2107E+00  0.2070E+00  0.8675E+01  0.8675E+01
      8.062  0.4629E+00  0.4654E+00  0.8734E+01  0.8734E+01
      8.189  0.3946E+00  0.3928E+00  0.8784E+01  0.8784E+01
      8.316  0.4530E+00  0.4539E+00  0.8842E+01  0.8841E+01
      8.442  0.3393E-01  0.3870E-01  0.8846E+01  0.8846E+01
      8.569  0.5754E-01  0.5385E-01  0.8853E+01  0.8853E+01
      8.696  0.3547E-01  0.3833E-01  0.8858E+01  0.8858E+01
      8.823  0.1911E+00  0.1917E+00  0.8882E+01  0.8882E+01
      8.950  0.1430E+00  0.1427E+00  0.8900E+01  0.8900E+01
      9.077  0.2216E-02  0.2661E-02  0.8900E+01  0.8900E+01
      9.203  0.2016E+00  0.1875E+00  0.8926E+01  0.8924E+01
      9.330  0.4788E+00  0.4933E+00  0.8987E+01  0.8987E+01
      9.457  0.2436E+00  0.2434E+00  0.9018E+01  0.9018E+01
      9.584  0.9025E-01  0.8983E-01  0.9029E+01  0.9029E+01
      9.711  0.2033E+00  0.2040E+00  0.9055E+01  0.9055E+01
      9.838  0.2295E+00  0.2257E+00  0.9084E+01  0.9084E+01
      9.964  0.5127E+00  0.5071E+00  0.9149E+01  0.9148E+01
     10.091  0.6266E+00  0.6346E+00  0.9229E+01  0.9228E+01
     10.218  0.1609E+00  0.1574E+00  0.9249E+01  0.9248E+01
     10.345  0.1373E+00  0.1412E+00  0.9266E+01  0.9266E+01
     10.472  0.4913E+00  0.4867E+00  0.9329E+01  0.9328E+01
     10.599  0.2258E+00  0.2311E+00  0.9357E+01  0.9357E+01
     10.725  0.1405E-01  0.1235E-01  0.9359E+01  0.9359E+01
     10.852  0.2309E+00  0.2285E+00  0.9388E+01  0.9388E+01
     10.979  0.2244E+00  0.2263E+00  0.9417E+01  0.9417E+01
     11.106  0.1564E+00  0.1586E+00  0.9437E+01  0.9437E+01
     11.233  0.2521E+00  0.2500E+00  0.9469E+01  0.9468E+01
     11.360  0.3869E+00  0.3868E+00  0.9518E+01  0.9517E+01
     11.486  0.5625E-01  0.5612E-01  0.9525E+01  0.9525E+01
     11.613  0.4193E+00  0.4176E+00  0.9578E+01  0.9578E+01
     11.740  0.1076E+00  0.1107E+00  0.9592E+01  0.9592E+01
     11.867  0.2813E+00  0.2759E+00  0.9627E+01  0.9627E+01
     11.994  0.2170E+00  0.2082E+00  0.9655E+01  0.9653E+01
     12.121  0.1009E+01  0.1011E+01  0.9783E+01  0.9781E+01
     12.247  0.6960E+00  0.6980E+00  0.9871E+01  0.9870E+01
     12.374  0.6716E+00  0.6744E+00  0.9956E+01  0.9955E+01
     12.501  0.5302E+00  0.5242E+00  0.1002E+02  0.1002E+02
     12.628  0.8054E+00  0.8070E+00  0.1013E+02  0.1012E+02
     12.755  0.8022E+00  0.8051E+00  0.1023E+02  0.1023E+02
     12.882  0.3186E+00  0.3259E+00  0.1027E+02  0.1027E+02
     13.008  0.5177E+00  0.5027E+00  0.1033E+02  0.1033E+02
     13.135  0.9880E+00  0.9917E+00  0.1046E+02  0.1046E+02
     13.262  0.7290E+00  0.7283E+00  0.1055E+02  0.1055E+02
     13.389  0.1351E+01  0.1323E+01  0.1072E+02  0.1072E+02
     13.516  0.1080E+01  0.1122E+01  0.1086E+02  0.1086E+02
     13.643  0.1393E+01  0.1393E+01  0.1104E+02  0.1104E+02
     13.769  0.1109E+01  0.1120E+01  0.1118E+02  0.1118E+02
     13.896  0.4889E+00  0.4687E+00  0.1124E+02  0.1124E+02
     14.023  0.1461E+01  0.1471E+01  0.1142E+02  0.1142E+02
     14.150  0.1026E+01  0.1009E+01  0.1155E+02  0.1155E+02
     14.277  0.1284E+01  0.1298E+01  0.1172E+02  0.1172E+02
     14.404  0.4334E+00  0.4338E+00  0.1177E+02  0.1177E+02
     14.530  0.1638E+00  0.1617E+00  0.1179E+02  0.1179E+02
     14.657  0.7506E+00  0.7653E+00  0.1189E+02  0.1189E+02
     14.784  0.8892E+00  0.8964E+00  0.1200E+02  0.1200E+02
     14.911  0.7402E+00  0.7194E+00  0.1209E+02  0.1209E+02
     15.038  0.5528E+00  0.5481E+00  0.1216E+02  0.1216E+02
     15.165  0.4336E+00  0.4392E+00  0.1222E+02  0.1222E+02
     15.291  0.5188E+00  0.5058E+00  0.1229E+02  0.1228E+02
     15.418  0.6804E+00  0.6892E+00  0.1237E+02  0.1237E+02
     15.545  0.5242E+00  0.5232E+00  0.1244E+02  0.1244E+02
     15.672  0.9108E+00  0.8907E+00  0.1255E+02  0.1255E+02
     15.799  0.6494E+00  0.6652E+00  0.1264E+02  0.1263E+02
     15.926  0.1228E+01  0.1232E+01  0.1279E+02  0.1279E+02
     16.053  0.6028E+00  0.6061E+00  0.1287E+02  0.1287E+02
     16.179  0.4059E+00  0.3951E+00  0.1292E+02  0.1292E+02
     16.306  0.9660E+00  0.9593E+00  0.1304E+02  0.1304E+02
     16.433  0.1690E+01  0.1697E+01  0.1326E+02  0.1326E+02
     16.560  0.5398E+00  0.5496E+00  0.1333E+02  0.1332E+02
     16.687  0.4649E+00  0.4583E+00  0.1338E+02  0.1338E+02
     16.814  0.4385E+00  0.4466E+00  0.1344E+02  0.1344E+02
     16.940  0.8397E+00  0.8370E+00  0.1355E+02  0.1355E+02
     17.067  0.1932E+00  0.1912E+00  0.1357E+02  0.1357E+02
     17.194  0.4724E+00  0.5722E+00  0.1363E+02  0.1364E+02
     17.321  0.1786E+00  0.1224E+00  0.1365E+02  0.1366E+02
     17.448  0.4606E+00  0.4215E+00  0.1371E+02  0.1371E+02
     17.575  0.1395E+00  0.1414E+00  0.1373E+02  0.1373E+02
     17.701  0.3727E+00  0.3744E+00  0.1378E+02  0.1378E+02
     17.828  0.6487E+00  0.6419E+00  0.1386E+02  0.1386E+02
     17.955  0.2669E+00  0.2713E+00  0.1389E+02  0.1389E+02
     18.082  0.1353E+00  0.1368E+00  0.1391E+02  0.1391E+02
     18.209  0.7092E-01  0.7088E-01  0.1392E+02  0.1392E+02
     18.336  0.1106E+00  0.1059E+00  0.1393E+02  0.1393E+02
     18.462  0.4543E-01  0.4989E-01  0.1394E+02  0.1394E+02
     18.589  0.6259E-01  0.6270E-01  0.1395E+02  0.1395E+02
     18.716  0.8504E-01  0.8547E-01  0.1396E+02  0.1396E+02
     18.843  0.1384E+00  0.1380E+00  0.1398E+02  0.1398E+02
     18.970  0.1038E+00  0.1042E+00  0.1399E+02  0.1399E+02
     19.097 -0.3190E-02 -0.3263E-02  0.1399E+02  0.1399E+02
     19.223  0.1030E-01 -0.1428E-02  0.1399E+02  0.1399E+02
     19.350  0.8508E-01  0.9816E-01  0.1400E+02  0.1400E+02
     19.477 -0.7642E-03 -0.2120E-02  0.1400E+02  0.1400E+02
     19.604 -0.1367E-09 -0.3436E-08  0.1400E+02  0.1400E+02
     19.731  0.0000E+00  0.0000E+00  0.1400E+02  0.1400E+02
     19.858  0.0000E+00  0.0000E+00  0.1400E+02  0.1400E+02
     19.984  0.0000E+00  0.0000E+00  0.1400E+02  0.1400E+02
     20.111  0.0000E+00  0.0000E+00  0.1400E+02  0.1400E+02
     20.238  0.0000E+00  0.0000E+00  0.1400E+02  0.1400E+02
     20.365  0.0000E+00  0.0000E+00  0.1400E+02  0.1400E+02
     20.492  0.0000E+00  0.0000E+00  0.1400E+02  0.1400E+02
     20.619  0.0000E+00  0.0000E+00  0.1400E+02  0.1400E+02
     20.745  0.0000E+00  0.0000E+00  0.1400E+02  0.1400E+02
     20.872  0.0000E+00  0.0000E+00  0.1400E+02  0.1400E+02
     20.999  0.0000E+00  0.0000E+00  0.1400E+02  0.1400E+02
     20.99908355    -17.05149973  301      4.57459539      1.00000000
    -17.051  0.0000E+00  0.0000E+00  0.0000E+00  0.0000E+00  0.0000E+00  0.0000E+00  0.0000E+00  0.0000E+00  0.0000E+00  0.0000E+00  0.0000E+00  0.0000E+00  0.0000E+00  0.0000E+00  0.0000E+00  0.0000E+00  0.0000E+00  0.0000E+00
    -16.925  0.0000E+00  0.0000E+00  0.0000E+00  0.0000E+00  0.0000E+00  0.0000E+00  0.0000E+00  0.0000E+00  0.0000E+00  0.0000E+00  0.0000E+00  0.0000E+00  0.0000E+00  0.0000E+00  0.0000E+00  0.0000E+00  0.0000E+00  0.0000E+00
    -16.798  0.0000E+00  0.0000E+00  0.0000E+00  0.0000E+00  0.0000E+00  0.0000E+00  0.0000E+00  0.0000E+00  0.0000E+00  0.0000E+00  0.0000E+00  0.0000E+00  0.0000E+00  0.0000E+00  0.0000E+00  0.0000E+00  0.0000E+00  0.0000E+00
    -16.671  0.0000E+00  0.0000E+00  0.0000E+00  0.0000E+00  0.0000E+00  0.0000E+00  0.0000E+00  0.0000E+00  0.0000E+00  0.0000E+00  0.0000E+00  0.0000E+00  0.0000E+00  0.0000E+00  0.0000E+00  0.0000E+00  0.0000E+00  0.0000E+00
    -16.544  0.0000E+00  0.0000E+00  0.0000E+00  0.0000E+00  0.0000E+00  0.0000E+00  0.0000E+00  0.0000E+00  0.0000E+00  0.0000E+00  0.0000E+00  0.0000E+00  0.0000E+00  0.0000E+00  0.0000E+00  0.0000E+00  0.0000E+00  0.0000E+00
    -16.417  0.0000E+00  0.0000E+00  0.0000E+00  0.0000E+00  0.0000E+00  0.0000E+00  0.0000E+00  0.0000E+00  0.0000E+00  0.0000E+00  0.0000E+00  0.0000E+00  0.0000E+00  0.0000E+00  0.0000E+00  0.0000E+00  0.0000E+00  0.0000E+00
    -16.290  0.0000E+00  0.0000E+00  0.0000E+00  0.0000E+00  0.0000E+00  0.0000E+00  0.0000E+00  0.0000E+00  0.0000E+00  0.0000E+00  0.0000E+00  0.0000E+00  0.0000E+00  0.0000E+00  0.0000E+00  0.0000E+00  0.0000E+00  0.0000E+00
    -16.164  0.0000E+00  0.0000E+00  0.0000E+00  0.0000E+00  0.0000E+00  0.0000E+00  0.0000E+00  0.0000E+00  0.0000E+00  0.0000E+00  0.0000E+00  0.0000E+00  0.0000E+00  0.0000E+00  0.0000E+00  0.0000E+00  0.0000E+00  0.0000E+00
    -16.037  0.0000E+00  0.0000E+00  0.0000E+00  0.0000E+00  0.0000E+00  0.0000E+00  0.0000E+00  0.0000E+00  0.0000E+00  0.0000E+00  0.0000E+00  0.0000E+00  0.0000E+00  0.0000E+00  0.0000E+00  0.0000E+00  0.0000E+00  0.0000E+00
    -15.910  0.0000E+00  0.0000E+00  0.0000E+00  0.0000E+00  0.0000E+00  0.0000E+00  0.0000E+00  0.0000E+00  0.0000E+00  0.0000E+00  0.0000E+00  0.0000E+00  0.0000E+00  0.0000E+00  0.0000E+00  0.0000E+00  0.0000E+00  0.0000E+00
    -15.783 -0.4094E-39 -0.2389E-39 -0.2386E-52 -0.7785E-53 -0.7718E-45 -0.4478E-45 -0.7518E-52 -0.2229E-52  0.0000E+00  0.0000E+00  0.0000E+00  0.0000E+00  0.0000E+00  0.0000E+00  0.0000E+00  0.0000E+00  0.0000E+00  0.0000E+00
    -15.656 -0.1152E-21 -0.7801E-22 -0.6621E-35 -0.2568E-35 -0.3762E-27 -0.2533E-27 -0.2082E-34 -0.7330E-35  0.0000E+00  0.0000E+00  0.0000E+00  0.0000E+00  0.0000E+00  0.0000E+00  0.0000E+00  0.0000E+00  0.0000E+00  0.0000E+00
    -15.529 -0.7462E-10 -0.5874E-10 -0.4201E-23 -0.1970E-23 -0.4196E-15 -0.3281E-15 -0.1317E-22 -0.5594E-23  0.0000E+00  0.0000E+00  0.0000E+00  0.0000E+00  0.0000E+00  0.0000E+00  0.0000E+00  0.0000E+00  0.0000E+00  0.0000E+00
    -15.403 -0.8034E-04 -0.7451E-04 -0.4366E-17 -0.2684E-17 -0.1107E-08 -0.1008E-08 -0.1352E-16 -0.7519E-17  0.0000E+00  0.0000E+00  0.0000E+00  0.0000E+00  0.0000E+00  0.0000E+00  0.0000E+00  0.0000E+00  0.0000E+00  0.0000E+00
    -15.276  0.6386E-02  0.6250E-02 -0.9780E-11 -0.7881E-11  0.1707E-06  0.1633E-06 -0.2934E-10 -0.2364E-10  0.0000E+00  0.0000E+00  0.0000E+00  0.0000E+00  0.0000E+00  0.0000E+00  0.0000E+00  0.0000E+00  0.0000E+00  0.0000E+00
    -15.149  0.7110E-02  0.7200E-02 -0.3133E-05 -0.2970E-05  0.8335E-06  0.8276E-06 -0.9399E-05 -0.8912E-05  0.0000E+00  0.0000E+00  0.0000E+00  0.0000E+00  0.0000E+00  0.0000E+00  0.0000E+00  0.0000E+00  0.0000E+00  0.0000E+00
    -15.022  0.5496E-01  0.5427E-01  0.1807E-03  0.1779E-03  0.2520E-05  0.2463E-05  0.5422E-03  0.5337E-03  0.0000E+00  0.0000E+00  0.0000E+00  0.0000E+00  0.0000E+00  0.0000E+00  0.0000E+00  0.0000E+00  0.0000E+00  0.0000E+00
    -14.895  0.4557E-01  0.4585E-01  0.1835E-03  0.1845E-03  0.6704E-05  0.6688E-05  0.5506E-03  0.5534E-03  0.0000E+00  0.0000E+00  0.0000E+00  0.0000E+00  0.0000E+00  0.0000E+00  0.0000E+00  0.0000E+00  0.0000E+00  0.0000E+00
    -14.768  0.5643E-01  0.5678E-01  0.2291E-03  0.2306E-03  0.3536E-05  0.3604E-05  0.6873E-03  0.6919E-03  0.0000E+00  0.0000E+00  0.0000E+00  0.0000E+00  0.0000E+00  0.0000E+00  0.0000E+00  0.0000E+00  0.0000E+00  0.0000E+00
    -14.642 -0.1603E-02 -0.1519E-02 -0.4140E-04 -0.4227E-04 -0.1086E-06 -0.1074E-06 -0.1967E-04 -0.1865E-04  0.0000E+00  0.0000E+00  0.0000E+00  0.0000E+00  0.0000E+00  0.0000E+00  0.0000E+00  0.0000E+00  0.0000E+00  0.0000E+00
    -14.515  0.5541E-01  0.5500E-01  0.2044E-02  0.2030E-02  0.3857E-05  0.3779E-05  0.6830E-03  0.6781E-03  0.0000E+00  0.0000E+00  0.0000E+00  0.0000E+00  0.0000E+00  0.0000E+00  0.0000E+00  0.0000E+00  0.0000E+00  0.0000E+00
    -14.388  0.4478E-01  0.4454E-01  0.1656E-02  0.1651E-02  0.7289E-05  0.7298E-05  0.5568E-03  0.5477E-03  0.0000E+00  0.0000E+00  0.0000E+00  0.0000E+00  0.0000E+00  0.0000E+00  0.0000E+00  0.0000E+00  0.0000E+00  0.0000E+00
    -14.261  0.1015E+00  0.1018E+00  0.2558E-02  0.2577E-02  0.6773E-05  0.6759E-05  0.3430E-02  0.3427E-02  0.0000E+00  0.0000E+00  0.0000E+00  0.0000E+00  0.0000E+00  0.0000E+00  0.0000E+00  0.0000E+00  0.0000E+00  0.0000E+00
    -14.134  0.4663E-01  0.4641E-01  0.7569E-03  0.7528E-03  0.7195E-05  0.7207E-05  0.2347E-02  0.2338E-02  0.0000E+00  0.0000E+00  0.0000E+00  0.0000E+00  0.0000E+00  0.0000E+00  0.0000E+00  0.0000E+00  0.0000E+00  0.0000E+00
    -14.007  0.3385E-01  0.3446E-01  0.5600E-03  0.5704E-03  0.1228E-05  0.1273E-05  0.1680E-02  0.1711E-02  0.0000E+00  0.0000E+00  0.0000E+00  0.0000E+00  0.0000E+00  0.0000E+00  0.0000E+00  0.0000E+00  0.0000E+00  0.0000E+00
    -13.881 -0.3489E-03 -0.3705E-03 -0.5770E-05 -0.6130E-05 -0.6116E-08 -0.6580E-08 -0.1731E-04 -0.1839E-04  0.0000E+00  0.0000E+00  0.0000E+00  0.0000E+00  0.0000E+00  0.0000E+00  0.0000E+00  0.0000E+00  0.0000E+00  0.0000E+00
    -13.754 -0.2134E-03 -0.1977E-03 -0.1463E-04 -0.1356E-04 -0.3569E-08 -0.3277E-08 -0.1088E-04 -0.1009E-04  0.0000E+00  0.0000E+00  0.0000E+00  0.0000E+00  0.0000E+00  0.0000E+00  0.0000E+00  0.0000E+00  0.0000E+00  0.0000E+00
    -13.627  0.4554E-01  0.4432E-01  0.3119E-02  0.3036E-02  0.1264E-05  0.1202E-05  0.2324E-02  0.2262E-02  0.0000E+00  0.0000E+00  0.0000E+00  0.0000E+00  0.0000E+00  0.0000E+00  0.0000E+00  0.0000E+00  0.0000E+00  0.0000E+00
    -13.500  0.1037E+00  0.1043E+00  0.7080E-02  0.7123E-02  0.1396E-04  0.1390E-04  0.5308E-02  0.5341E-02  0.0000E+00  0.0000E+00  0.0000E+00  0.0000E+00  0.0000E+00  0.0000E+00  0.0000E+00  0.0000E+00  0.0000E+00  0.0000E+00
    -13.373  0.1142E+00  0.1143E+00  0.7723E-02  0.7733E-02  0.8542E-05  0.8629E-05  0.5828E-02  0.5836E-02  0.0000E+00  0.0000E+00  0.0000E+00  0.0000E+00  0.0000E+00  0.0000E+00  0.0000E+00  0.0000E+00  0.0000E+00  0.0000E+00
    -13.246  0.4677E-02  0.5196E-02  0.3398E-03  0.3744E-03 -0.9030E-07 -0.8366E-07  0.1831E-03  0.2109E-03  0.0000E+00  0.0000E+00  0.0000E+00  0.0000E+00  0.0000E+00  0.0000E+00  0.0000E+00  0.0000E+00  0.0000E+00  0.0000E+00
    -13.120  0.4228E-01  0.4189E-01  0.1631E-02  0.1616E-02  0.2494E-05  0.2445E-05  0.4893E-02  0.4850E-02  0.0000E+00  0.0000E+00  0.0000E+00  0.0000E+00  0.0000E+00  0.0000E+00  0.0000E+00  0.0000E+00  0.0000E+00  0.0000E+00
    -12.993  0.4422E-01  0.4427E-01  0.1711E-02  0.1714E-02  0.6647E-05  0.6652E-05  0.5134E-02  0.5142E-02  0.0000E+00  0.0000E+00  0.0000E+00  0.0000E+00  0.0000E+00  0.0000E+00  0.0000E+00  0.0000E+00  0.0000E+00  0.0000E+00
    -12.866  0.4652E-01  0.4686E-01  0.1793E-02  0.1807E-02  0.2103E-05  0.2133E-05  0.5380E-02  0.5421E-02  0.0000E+00  0.0000E+00  0.0000E+00  0.0000E+00  0.0000E+00  0.0000E+00  0.0000E+00  0.0000E+00  0.0000E+00  0.0000E+00
    -12.739 -0.9670E-03 -0.9858E-03 -0.3736E-04 -0.3809E-04 -0.2435E-07 -0.2513E-07 -0.1121E-03 -0.1143E-03  0.0000E+00  0.0000E+00  0.0000E+00  0.0000E+00  0.0000E+00  0.0000E+00  0.0000E+00  0.0000E+00  0.0000E+00  0.0000E+00
    -12.612 -0.6426E-05 -0.5991E-05 -0.1010E-05 -0.9412E-06 -0.1086E-09 -0.1011E-09 -0.3433E-06 -0.3202E-06  0.0000E+00  0.0000E+00  0.0000E+00  0.0000E+00  0.0000E+00  0.0000E+00  0.0000E+00  0.0000E+00  0.0000E+00  0.0000E+00
    -12.485  0.5892E-02  0.5631E-02  0.9263E-03  0.8856E-03  0.5766E-07  0.5226E-07  0.3143E-03  0.3005E-03  0.0000E+00  0.0000E+00  0.0000E+00  0.0000E+00  0.0000E+00  0.0000E+00  0.0000E+00  0.0000E+00  0.0000E+00  0.0000E+00
    -12.359  0.5737E-01  0.5744E-01  0.8994E-02  0.9005E-02  0.4886E-05  0.4854E-05  0.3044E-02  0.3048E-02  0.0000E+00  0.0000E+00  0.0000E+00  0.0000E+00  0.0000E+00  0.0000E+00  0.0000E+00  0.0000E+00  0.0000E+00  0.0000E+00
    -12.232  0.8984E-01  0.8913E-01  0.1257E-01  0.1249E-01  0.5498E-05  0.5504E-05  0.7038E-02  0.6959E-02  0.0000E+00  0.0000E+00  0.0000E+00  0.0000E+00  0.0000E+00  0.0000E+00  0.0000E+00  0.0000E+00  0.0000E+00  0.0000E+00
    -12.105  0.1104E+00  0.1109E+00  0.1243E-01  0.1250E-01  0.1007E-04  0.1002E-04  0.1248E-01  0.1253E-01  0.0000E+00  0.0000E+00  0.0000E+00  0.0000E+00  0.0000E+00  0.0000E+00  0.0000E+00  0.0000E+00  0.0000E+00  0.0000E+00
    -11.978  0.1127E+00  0.1129E+00  0.1236E-01  0.1239E-01  0.6949E-05  0.6990E-05  0.1330E-01  0.1334E-01  0.0000E+00  0.0000E+00  0.0000E+00  0.0000E+00  0.0000E+00  0.0000E+00  0.0000E+00  0.0000E+00  0.0000E+00  0.0000E+00
    -11.851  0.2793E-03  0.4103E-03  0.3113E-04  0.4555E-04 -0.9022E-07 -0.8959E-07  0.3402E-04  0.4960E-04  0.0000E+00  0.0000E+00  0.0000E+00  0.0000E+00  0.0000E+00  0.0000E+00  0.0000E+00  0.0000E+00  0.0000E+00  0.0000E+00
    -11.724 -0.1373E-05 -0.1421E-05 -0.1378E-06 -0.1437E-06 -0.1062E-10 -0.1120E-10 -0.1906E-06 -0.1951E-06  0.0000E+00  0.0000E+00  0.0000E+00  0.0000E+00  0.0000E+00  0.0000E+00  0.0000E+00  0.0000E+00  0.0000E+00  0.0000E+00
    -11.598 -0.3636E-03 -0.3973E-03 -0.2436E-04 -0.2667E-04 -0.2346E-07 -0.2326E-07 -0.7307E-04 -0.8001E-04  0.0000E+00  0.0000E+00  0.0000E+00  0.0000E+00  0.0000E+00  0.0000E+00  0.0000E+00  0.0000E+00  0.0000E+00  0.0000E+00
    -11.471  0.5166E-01  0.5158E-01  0.3517E-02  0.3512E-02  0.1827E-05  0.1811E-05  0.1055E-01  0.1054E-01  0.0000E+00  0.0000E+00  0.0000E+00  0.0000E+00  0.0000E+00  0.0000E+00  0.0000E+00  0.0000E+00  0.0000E+00  0.0000E+00
    -11.344  0.5649E-01  0.5646E-01  0.3814E-02  0.3813E-02  0.4307E-05  0.4307E-05  0.1144E-01  0.1144E-01  0.0000E+00  0.0000E+00  0.0000E+00  0.0000E+00  0.0000E+00  0.0000E+00  0.0000E+00  0.0000E+00  0.0000E+00  0.0000E+00
    -11.217  0.1459E-01  0.1473E-01  0.9788E-03  0.9883E-03  0.1984E-06  0.2013E-06  0.2936E-02  0.2965E-02  0.0000E+00  0.0000E+00  0.0000E+00  0.0000E+00  0.0000E+00  0.0000E+00  0.0000E+00  0.0000E+00  0.0000E+00  0.0000E+00
    -11.090 -0.3292E-04 -0.3362E-04 -0.2210E-05 -0.2257E-05 -0.3706E-09 -0.3786E-09 -0.6629E-05 -0.6771E-05  0.0000E+00  0.0000E+00  0.0000E+00  0.0000E+00  0.0000E+00  0.0000E+00  0.0000E+00  0.0000E+00  0.0000E+00  0.0000E+00
    -10.963 -0.7093E-03 -0.7021E-03 -0.1539E-03 -0.1524E-03 -0.1475E-07 -0.1457E-07 -0.8627E-04 -0.8542E-04  0.0000E+00  0.0000E+00  0.0000E+00  0.0000E+00  0.0000E+00  0.0000E+00  0.0000E+00  0.0000E+00  0.0000E+00  0.0000E+00
    -10.837  0.6732E-01  0.6714E-01  0.1460E-01  0.1456E-01  0.2563E-05  0.2552E-05  0.8174E-02  0.8154E-02  0.0000E+00  0.0000E+00  0.0000E+00  0.0000E+00  0.0000E+00  0.0000E+00  0.0000E+00  0.0000E+00  0.0000E+00  0.0000E+00
    -10.710  0.1009E+00  0.1010E+00  0.2178E-01  0.2182E-01  0.9029E-05  0.9024E-05  0.1216E-01  0.1218E-01  0.0000E+00  0.0000E+00  0.0000E+00  0.0000E+00  0.0000E+00  0.0000E+00  0.0000E+00  0.0000E+00  0.0000E+00  0.0000E+00