    4    4    1    2
  0.8797333E+01  0.2461200E-09  0.2461200E-09  0.6707900E-09  0.5000000E-15
  1.000000000000000E-004
  CAR 
 unknown system                          
   16   84   14
 
  0.0000000E+00  0.0000000E+00  0.0000000E+00  0.1000000E-02
   1      -15.321928    -15.320464
   2      -15.042956    -15.041618
   3       -3.810852     -3.807538
   4       -1.618149     -1.614685
   5        2.240900      2.236333
   6        2.241184      2.236614
   7        2.321192      2.316655
   8        2.321465      2.316926
   9        9.075839      9.076879
  10       13.560890     13.557073
  11       13.561177     13.557292
  12       13.772243     13.768626
  13       13.772492     13.768814
  14       15.643242     15.644024
 
  0.1000000E+00 -0.6938894E-17  0.0000000E+00  0.6000000E-02
   1      -15.078755    -15.077358
   2      -14.804859    -14.803592
   3       -3.502239     -3.498926
   4       -1.281447     -1.277941
   5        1.222969      1.219132
   6        1.339790      1.335981
   7        1.761146      1.756596
   8        1.864540      1.860067
   9        9.377054      9.378091
  10       13.541062     13.538966
  11       13.794116     13.792188
  12       14.606457     14.602253
  13       14.853498     14.849577
  14       15.897113     15.894425
 
  0.2000000E+00 -0.2775558E-16  0.0000000E+00  0.6000000E-02
   1      -14.354385    -14.353187
   2      -14.094191    -14.093123
   3       -2.543852     -2.540536
   4       -1.205552     -1.208286
   5       -1.020445     -1.023180
   6       -0.457428     -0.454068
   7        0.782625      0.778345
   8        0.915509      0.911460
   9       10.271885     10.272909
  10       13.207739     13.208687
  11       13.402443     13.403263
  12       13.978501     13.979009
  13       14.394669     14.394768
  14       16.696235     16.695426
 
  0.3000000E+00 -0.5551115E-16  0.0000000E+00  0.6000000E-02
   1      -13.184689    -13.183789
   2      -12.928588    -12.927835
   3       -4.203554     -4.205401
   4       -3.941600     -3.943417
   5       -1.142570     -1.139472
   6       -0.424117     -0.428376
   7       -0.285717     -0.289727
   8        0.695256      0.698144
   9       10.748023     10.749525
  10       11.601258     11.602191
  11       11.725082     11.726103
  12       12.477980     12.480625
  13       12.756377     12.758979
  14       17.677171     17.676703
 
  0.4000000E+00 -0.5551115E-16  0.0000000E+00  0.6000000E-02
   1      -11.565652    -11.565281
   2      -11.335088    -11.334855
   3       -6.825165     -6.825849
   4       -6.632867     -6.633673
   5       -1.157981     -1.162039
   6       -1.099052     -1.103184
   7        0.690848      0.693614
   8        2.225276      2.227660
   9        7.851220      7.853600
  10        8.914206      8.916059
  11       11.999407     12.002994
  12       12.332967     12.336345
  13       13.801620     13.802774
  14       18.818209     18.818595
 
  0.5000000E+00 -0.8326673E-16  0.0000000E+00  0.3000000E-02
   1       -9.956564     -9.957057
   2       -9.869654     -9.870282
   3       -8.656324     -8.655979
   4       -8.594243     -8.593941
   5       -1.406954     -1.410981
   6       -1.158765     -1.162677
   7        2.143043      2.145418
   8        2.908509      2.910576
   9        6.538283      6.540900
  10        7.299678      7.302386
  11       11.815104     11.819004
  12       12.232211     12.236019
  13       16.277532     16.279909
  14       16.451894     16.451628
 
  0.1000000E+00  0.1000000E+00  0.0000000E+00  0.6000000E-02
   1      -14.596491    -14.595220
   2      -14.330506    -14.329372
   3       -2.881668     -2.878381
   4       -0.756523     -0.753151
   5       -0.184682     -0.187794
   6       -0.170448     -0.173639
   7        0.805638      0.801587
   8        0.849748      0.845672
   9        9.973496      9.974528
  10       14.097034     14.096689
  11       14.232417     14.232124
  12       14.543021     14.542828
  13       15.024605     15.023734
  14       15.404597     15.401482
 
  0.2000000E+00  0.1000000E+00  0.0000000E+00  0.1200000E-01
   1      -13.648590    -13.647573
   2      -13.390505    -13.389630
   3       -2.670485     -2.672809
   4       -2.593870     -2.596309
   5       -1.696005     -1.692818
   6       -0.554296     -0.557815
   7       -0.497356     -0.500771
   8        0.265764      0.268863
   9       11.156981     11.158017
  10       12.084739     12.085672
  11       12.668824     12.669322
  12       13.908102     13.909465
  13       14.193934     14.195245
  14       17.316506     17.149301
 
  0.3000000E+00  0.1000000E+00  0.0000000E+00  0.1200000E-01
   1      -12.248086    -12.247480
   2      -12.008704    -12.008235
   3       -5.484462     -5.485872
   4       -5.237053     -5.238487
   5       -1.560913     -1.564082
   6       -1.495497     -1.498759
   7       -0.052283     -0.049360
   8        1.667808      1.670445
   9        9.186802      9.188690
  10       10.028919     10.030206
  11       12.902128     12.903141
  12       13.375912     13.378244
  13       13.716366     13.718748
  14       17.947819     17.948600
 
  0.4000000E+00  0.1000000E+00  0.0000000E+00  0.1200000E-01
   1      -10.468688    -10.468711
   2      -10.268454    -10.268672
   3       -7.875435     -7.875713
   4       -7.707624     -7.708068
   5       -2.069391     -2.072552
   6       -2.045432     -2.048593
   7        1.838859      1.841378
   8        3.030238      3.032360
   9        6.871863      6.874446
  10        7.686892      7.688994
  11       13.015871     13.018765
  12       13.400982     13.403764
  13       15.211342     15.212497
  14       17.816810     17.817593
 
  0.2000000E+00  0.2000000E+00  0.0000000E+00  0.6000000E-02
   1      -12.475759    -12.475074
   2      -12.236589    -12.236041
   3       -4.329063     -4.331195
   4       -4.207881     -4.210072
   5       -2.474099     -2.476248
   6       -2.424781     -2.426931
   7       -0.259716     -0.256675
   8        1.557548      1.560394
   9        9.976861      9.978357
  10       10.532792     10.533826
  11       12.624546     12.625581
  12       15.914639     15.916630
  13       16.191363     16.193403
  14       17.117280     17.119565
 
  0.3000000E+00  0.2000000E+00  0.0000000E+00  0.1200000E-01
   1      -10.879516    -10.879325
   2      -10.665505    -10.665492
   3       -6.422588     -6.423825
   4       -6.312909     -6.314310
   5       -3.658864     -3.660519
   6       -3.618832     -3.620588
   7        1.552654      1.555359
   8        3.049407      3.051711
   9        7.506936      7.508789
  10        8.256957      8.258412
  11       14.624618     14.625674
  12       15.791555     15.792658
  13       16.391552     16.392646
  14       17.221484     17.225641
 
  0.4000000E+00  0.2000000E+00  0.0000000E+00  0.6000000E-02
   1       -9.327540     -9.328276
   2       -9.220939     -9.221765
   3       -8.107246     -8.107372
   4       -8.057522     -8.057738
   5       -4.013195     -4.015032
   6       -3.930930     -3.932380
   7        3.080513      3.082882
   8        3.799818      3.801827
   9        6.469205      6.471309
  10        6.556321      6.558275
  11       15.683542     15.684820
  12       16.210805     16.212036
  13       16.862032     16.864109
  14       17.058155     17.065031
 
  0.3000000E+00  0.3000000E+00  0.0000000E+00  0.6000000E-02
   1       -9.192190     -9.192691
   2       -9.013096     -9.013791
   3       -7.381593     -7.382848
   4       -7.294047     -7.295419
   5       -5.304761     -5.304922
   6       -5.225802     -5.226017
   7        3.435021      3.437410
   8        4.474247      4.476085
   9        5.829628      5.831624
  10        6.580937      6.582624
  11       16.280917     16.287169
  12       16.295360     16.302505
  13       16.656207     16.657260
  14       17.839438     17.840545
 
  0.0000000E+00  0.0000000E+00  0.1000000E+00  0.2000000E-02
   1      -15.315372    -15.313912
   2      -15.050285    -15.048944
   3       -3.755293     -3.751950
   4       -1.625127     -1.621569
   5        2.255075      2.250528
   6        2.255359      2.250809
   7        2.359778      2.355303
   8        2.360050      2.355573
   9        9.211952      9.212985
  10       13.568243     13.564439
  11       13.568531     13.564659
  12       13.786830     13.783249
  13       13.787081     13.783439
  14       15.393405     15.392116
 
  0.1000000E+00 -0.6938894E-17  0.1000000E+00  0.1200000E-01
   1      -15.072790    -15.071395
   2      -14.812250    -14.810979
   3       -3.468511     -3.465219
   4       -1.374897     -1.371435
   5        1.251802      1.247982
   6        1.305233      1.301392
   7        1.757513      1.752962
   8        1.848587      1.844086
   9        9.506699      9.507722
  10       13.539115     13.537005
  11       13.768535     13.766570
  12       14.604462     14.600249
  13       14.831805     14.827845
  14       15.613200     15.630431
 
  0.2000000E+00 -0.2775558E-16  0.1000000E+00  0.1200000E-01
   1      -14.352196    -14.350999
   2      -14.099744    -14.098678
   3       -2.507743     -2.504440
   4       -1.100605     -1.103240
   5       -1.042736     -1.045461
   6       -0.577069     -0.573803
   7        0.767550      0.763282
   8        0.846437      0.842286
   9       10.393402     10.394411
  10       13.195890     13.196777
  11       13.393657     13.394396
  12       13.983439     13.983930
  13       14.357278     14.357334
  14       16.431567     16.430937
 
  0.3000000E+00 -0.5551115E-16  0.1000000E+00  0.1200000E-01
   1      -13.177760    -13.176866
   2      -12.934471    -12.933715
   3       -4.200196     -4.202045
   4       -3.941511     -3.943312
   5       -1.102564     -1.099471
   6       -0.418177     -0.422424
   7       -0.258818     -0.262798
   8        0.651285      0.654194
   9       10.827163     10.828748
  10       11.575667     11.576628
  11       11.850128     11.851114
  12       12.487308     12.489939
  13       12.757257     12.759866
  14       17.462276     17.461898
 
  0.4000000E+00 -0.5551115E-16  0.1000000E+00  0.1200000E-01
   1      -11.554526    -11.554130
   2      -11.341271    -11.341031
   3       -6.818549     -6.819234
   4       -6.678223     -6.679098
   5       -1.157799     -1.161859
   6       -1.099435     -1.103565
   7        0.722832      0.725585
   8        2.226043      2.228481
   9        7.845899      7.848260
  10        8.880060      8.881933
  11       12.000586     12.004172
  12       12.350454     12.353886
  13       13.923498     13.924620
  14       18.619969     18.620376
 
  0.5000000E+00 -0.8326673E-16  0.1000000E+00  0.6000000E-02
   1       -9.953497     -9.953993
   2       -9.871810     -9.872437
   3       -8.654726     -8.654380
   4       -8.596645     -8.596340
   5       -1.404715     -1.408743
   6       -1.159490     -1.163400
   7        2.166907      2.169269
   8        2.901877      2.903949
   9        6.532493      6.535127
  10        7.262517      7.265233
  11       11.824137     11.828033
  12       12.223883     12.227690
  13       16.380021     16.382340
  14       16.525848     16.525605
 
  0.1000000E+00  0.1000000E+00  0.1000000E+00  0.1200000E-01
   1      -14.591182    -14.589916
   2      -14.337011    -14.335874
   3       -2.835084     -2.831790
   4       -0.822361     -0.818991
   5       -0.175753     -0.178854
   6       -0.148625     -0.151782
   7        0.817189      0.813153
   8        0.873600      0.869566
   9       10.100463     10.101479
  10       14.094595     14.094267
  11       14.216510     14.216175
  12       14.767886     14.767926
  13       15.103128     15.097096
  14       15.408005     15.404734
 
  0.2000000E+00  0.1000000E+00  0.1000000E+00  0.2400000E-01
   1      -13.645023    -13.644005
   2      -13.398178    -13.397295
   3       -2.712050     -2.714432
   4       -2.607375     -2.609817
   5       -1.657735     -1.654556
   6       -0.543643     -0.547132
   7       -0.501657     -0.505090
   8        0.177129      0.180191
   9       11.271503     11.272522
  10       12.083129     12.084036
  11       12.672212     12.672764
  12       13.909738     13.911085
  13       14.177273     14.178566
  14       16.914852     16.914249
 
  0.3000000E+00  0.1000000E+00  0.1000000E+00  0.2400000E-01
   1      -12.242319    -12.241714
   2      -12.014453    -12.013978
   3       -5.475552     -5.476968
   4       -5.238063     -5.239495
   5       -1.548398     -1.551549
   6       -1.457168     -1.460393
   7        0.008314      0.011259
   8        1.622151      1.624807
   9        9.208077      9.209964
  10       10.010094     10.011413
  11       13.007710     13.008692
  12       13.386743     13.389051
  13       13.715560     13.717967
  14       17.803475     17.804201
 
  0.4000000E+00  0.1000000E+00  0.1000000E+00  0.2400000E-01
   1      -10.459043    -10.459063
   2      -10.275976    -10.276191
   3       -7.869521     -7.869798
   4       -7.687660     -7.688069
   5       -2.055581     -2.058645
   6       -2.023830     -2.027051
   7        1.890177      1.892712
   8        3.022351      3.024504
   9        6.847053      6.849583
  10        7.656926      7.659059
  11       13.033566     13.036477
  12       13.413874     13.416687
  13       15.308203     15.309328
  14       17.806873     17.807935
 
  0.2000000E+00  0.2000000E+00  0.1000000E+00  0.1200000E-01
   1      -12.472707    -12.472025
   2      -12.242236    -12.241687
   3       -4.320828     -4.322946
   4       -4.199949     -4.202105
   5       -2.456970     -2.459116
   6       -2.382147     -2.384290
   7       -0.228385     -0.225362
   8        1.416774      1.419516
   9        9.912201      9.913553
  10       10.491276     10.492285
  11       12.729468     12.730475
  12       15.915575     15.917542
  13       16.189187     16.191232
  14       17.129613     17.126311
 
  0.3000000E+00  0.2000000E+00  0.1000000E+00  0.2400000E-01
   1      -10.872116    -10.871932
   2      -10.670653    -10.670635
   3       -6.417632     -6.418872
   4       -6.310146     -6.311537
   5       -3.638419     -3.640059
   6       -3.604441     -3.606162
   7        1.590390      1.593092
   8        3.058675      3.061054
   9        7.557248      7.559155
  10        8.271336      8.272856
  11       14.693894     14.694946
  12       15.824961     15.826097
  13       16.387518     16.388690
  14       17.127053     17.130951
 
  0.4000000E+00  0.2000000E+00  0.1000000E+00  0.1200000E-01
   1       -9.324006     -9.324744
   2       -9.218987     -9.219796
   3       -8.115925     -8.116069
   4       -8.043453     -8.043656
   5       -3.998761     -4.000576
   6       -3.915927     -3.917373
   7        3.119515      3.121884
   8        3.783831      3.785823
   9        6.449411      6.451524
  10        6.582367      6.584420
  11       15.690729     15.692017
  12       16.153709     16.154738
  13       16.612673     16.616389
  14       16.789192     16.791928
 
  0.3000000E+00  0.3000000E+00  0.1000000E+00  0.1200000E-01
   1       -9.186938     -9.187451
   2       -9.024335     -9.025025
   3       -7.379452     -7.380711
   4       -7.285823     -7.287178
   5       -5.307090     -5.307257
   6       -5.227825     -5.228035
   7        3.457728      3.460097
   8        4.532493      4.534437
   9        5.827197      5.829164
  10        6.494013      6.495644
  11       16.006922     16.012230
  12       16.146950     16.152792
  13       16.975193     16.977824
  14       17.996113     17.995009
 
  0.0000000E+00  0.0000000E+00  0.2000000E+00  0.2000000E-02
   1      -15.296328    -15.294878
   2      -15.071449    -15.070097
   3       -3.636153     -3.632827
   4       -1.803874     -1.800314
   5        2.257168      2.252620
   6        2.257452      2.252900
   7        2.356440      2.351961
   8        2.356711      2.352231
   9        9.596866      9.597859
  10       13.573152     13.569346
  11       13.573439     13.569565
  12       13.783987     13.780409
  13       13.784238     13.780599
  14       14.686763     14.686363
 
  0.1000000E+00 -0.6938894E-17  0.2000000E+00  0.1200000E-01
   1      -15.053940    -15.052556
   2      -14.833074    -14.831792
   3       -3.342460     -3.339167
   4       -1.522533     -1.519018
   5        1.255261      1.251449
   6        1.312937      1.309128
   7        1.766234      1.761695
   8        1.870709      1.866243
   9        9.890602      9.891586
  10       13.544271     13.542157
  11       13.764263     13.762322
  12       14.610736     14.606525
  13       14.830621     14.826669
  14       14.938381     14.937979
 
  0.2000000E+00 -0.2775558E-16  0.2000000E+00  0.1200000E-01
   1      -14.335407    -14.334218
   2      -14.120630    -14.119557
   3       -2.434602     -2.431368
   4       -1.098022     -1.100659
   5       -1.076240     -1.078988
   6       -0.754434     -0.751164
   7        0.770669      0.766455
   8        0.811975      0.807746
   9       10.753216     10.754176
  10       13.144785     13.145579
  11       13.353601     13.354326
  12       13.894863     13.895105
  13       14.400726     14.401063
  14       15.752404     15.752067
 
  0.3000000E+00 -0.5551115E-16  0.2000000E+00  0.1200000E-01
   1      -13.154133    -13.153256
   2      -12.950644    -12.949884
   3       -4.110264     -4.112011
   4       -3.945251     -3.947032
   5       -0.989614     -0.986539
   6       -0.411819     -0.416052
   7       -0.251443     -0.255423
   8        0.569414      0.572439
   9       10.868267     10.869830
  10       11.524414     11.525462
  11       12.184618     12.185571
  12       12.526788     12.529335
  13       12.786496     12.789176
  14       16.893305     16.893159
 
  0.4000000E+00 -0.5551115E-16  0.2000000E+00  0.1200000E-01
   1      -11.538107    -11.537726
   2      -11.355184    -11.354937
   3       -6.807138     -6.807830
   4       -6.691327     -6.692183
   5       -1.097388     -1.101502
   6       -1.036518     -1.040469
   7        0.824789      0.827517
   8        2.125232      2.127733
   9        7.926192      7.928575
  10        8.772459      8.774379
  11       12.026633     12.030209
  12       12.325519     12.328956
  13       14.248906     14.249939
  14       18.191382     18.191700
 
  0.5000000E+00 -0.8326673E-16  0.2000000E+00  0.6000000E-02
   1       -9.944655     -9.945159
   2       -9.868958     -9.869568
   3       -8.649773     -8.649424
   4       -8.602969     -8.602661
   5       -1.398127     -1.402157
   6       -1.161519     -1.165424
   7        2.238598      2.240926
   8        2.880684      2.882776
   9        6.597407      6.600199
  10        7.160114      7.162851
  11       11.863034     11.866909
  12       12.199188     12.202994
  13       16.680156     16.682304
  14       16.742752     16.742580
 
  0.1000000E+00  0.1000000E+00  0.2000000E+00  0.1200000E-01
   1      -14.573166    -14.571910
   2      -14.357589    -14.356444
   3       -2.702280     -2.698988
   4       -1.012667     -1.009314
   5       -0.176981     -0.180084
   6       -0.171334     -0.174498
   7        0.824238      0.820202
   8        0.867866      0.863829
   9       10.468791     10.469755
  10       14.040486     14.040108
  11       14.187058     14.186717
  12       14.691199     14.690950
  13       15.044023     15.043605
  14       15.483234     15.488592
 
  0.2000000E+00  0.1000000E+00  0.2000000E+00  0.2400000E-01
   1      -13.624959    -13.623948
   2      -13.417631    -13.416738
   3       -2.707876     -2.710267
   4       -2.609025     -2.611471
   5       -1.540842     -1.537678
   6       -0.533381     -0.536876
   7       -0.479645     -0.483013
   8        0.052465      0.055600
   9       11.600756     11.601738
  10       12.151843     12.152726
  11       12.634706     12.635321
  12       13.934386     13.935675
  13       14.167441     14.168752
  14       16.333312     16.333248
 
  0.3000000E+00  0.1000000E+00  0.2000000E+00  0.2400000E-01
   1      -12.221337    -12.220731
   2      -12.031903    -12.031416
   3       -5.464757     -5.466179
   4       -5.281267     -5.282721
   5       -1.573816     -1.577023
   6       -1.446249     -1.449459
   7        0.110209      0.113123
   8        1.537460      1.540210
   9        9.220619      9.222438
  10        9.969166      9.970599
  11       13.295290     13.296629
  12       13.412187     13.413987
  13       13.732654     13.735188
  14       17.361695     17.362300
 
  0.4000000E+00  0.1000000E+00  0.2000000E+00  0.2400000E-01
   1      -10.446614    -10.446645
   2      -10.292381    -10.292583
   3       -7.858487     -7.858776
   4       -7.700317     -7.700718
   5       -2.091363     -2.094479
   6       -2.014709     -2.017905
   7        1.975284      1.977787
   8        2.954343      2.956539
   9        6.879166      6.881705
  10        7.613478      7.615751
  11       13.047917     13.050814
  12       13.385787     13.388592
  13       15.564631     15.565691
  14       17.763503     17.764979
 
  0.2000000E+00  0.2000000E+00  0.2000000E+00  0.1200000E-01
   1      -12.453066    -12.452382
   2      -12.259477    -12.258915
   3       -4.314708     -4.316830
   4       -4.204615     -4.206767
   5       -2.453288     -2.455436
   6       -2.380102     -2.382245
   7       -0.119969     -0.116970
   8        1.294245      1.297044
   9        9.952197      9.953517
  10       10.451859     10.452910
  11       13.045494     13.046429
  12       15.921785     15.923629
  13       16.229937     16.232101
  14       16.912548     16.910700
 
  0.3000000E+00  0.2000000E+00  0.2000000E+00  0.2400000E-01
   1      -10.859730    -10.859551
   2      -10.687375    -10.687338
   3       -6.406481     -6.407735
   4       -6.324889     -6.326278
   5       -3.626331     -3.628070
   6       -3.596907     -3.598510
   7        1.681521      1.684188
   8        2.891578      2.893936
   9        7.548736      7.550540
  10        8.192255      8.193789
  11       14.875282     14.876361
  12       15.846119     15.847298
  13       16.341357     16.342588
  14       16.903541     16.906985
 
  0.4000000E+00  0.2000000E+00  0.2000000E+00  0.1200000E-01
   1       -9.315549     -9.316294
   2       -9.216161     -9.216953
   3       -8.114093     -8.114237
   4       -8.049603     -8.049803
   5       -4.005925     -4.007731
   6       -3.905598     -3.907052
   7        3.192100      3.194434
   8        3.765944      3.767953
   9        6.499229      6.501497
  10        6.538749      6.540818
  11       15.700659     15.702010
  12       15.999460     16.000916
  13       16.396292     16.399735
  14       16.691435     16.694710
 
  0.3000000E+00  0.3000000E+00  0.2000000E+00  0.1200000E-01
   1       -9.175578     -9.176093
   2       -9.026124     -9.026759
   3       -7.373254     -7.374545
   4       -7.297603     -7.298958
   5       -5.286743     -5.286908
   6       -5.244088     -5.244315
   7        3.571065      3.573428
   8        4.437391      4.439337
   9        5.832436      5.834306
  10        6.465146      6.466867
  11       15.656248     15.661101
  12       15.858694     15.863980
  13       17.436364     17.438654
  14       18.303977     18.309454
 
  0.0000000E+00  0.0000000E+00  0.3000000E+00  0.2000000E-02
   1      -15.266359    -15.264922
   2      -15.104020    -15.102650
   3       -3.444626     -3.441324
   4       -2.131411     -2.128005
   5        2.261617      2.257067
   6        2.261901      2.257347
   7        2.354298      2.349820
   8        2.354569      2.350089
   9       10.197752     10.198669
  10       13.581477     13.577668
  11       13.581764     13.577888
  12       13.765178     13.765208
  13       13.781097     13.777524
  14       13.781346     13.777714
 
  0.1000000E+00 -0.6938894E-17  0.3000000E+00  0.1200000E-01
   1      -15.027421    -15.026044
   2      -14.865148    -14.863850
   3       -3.109520     -3.106194
   4       -1.903992     -1.900704
   5        1.269987      1.266175
   6        1.297800      1.293965
   7        1.817770      1.813281
   8        1.837975      1.833481
   9       10.470251     10.471162
  10       13.597174     13.595301
  11       13.707908     13.705876
  12       14.112881     14.112752
  13       14.644464     14.640284
  14       14.781386     14.777362
 
  0.2000000E+00 -0.2775558E-16  0.3000000E+00  0.1200000E-01
   1      -14.306525    -14.305353
   2      -14.151057    -14.149967
   3       -2.251578     -2.248377
   4       -1.107817     -1.108229
   5       -1.083471     -1.085938
   6       -1.062582     -1.061955
   7        0.771666      0.767445
   8        0.804076      0.799847
   9       11.314667     11.315526
  10       13.153387     13.154134
  11       13.304500     13.305267
  12       13.940786     13.940800
  13       14.302188     14.302738
  14       14.940414     14.940439
 
  0.3000000E+00 -0.5551115E-16  0.3000000E+00  0.1200000E-01
   1      -13.125926    -13.125075
   2      -12.978045    -12.977270
   3       -4.091784     -4.093516
   4       -4.017768     -4.019574
   5       -0.812950     -0.809910
   6       -0.293920     -0.298020
   7       -0.251336     -0.255333
   8        0.331173      0.334222
   9       10.897632     10.899127
  10       11.497350     11.498646
  11       12.507221     12.509438
  12       12.626563     12.628414
  13       12.964013     12.966004
  14       16.125198     16.125339
 
  0.4000000E+00 -0.5551115E-16  0.3000000E+00  0.1200000E-01
   1      -11.514356    -11.513988
   2      -11.379866    -11.379598
   3       -6.782738     -6.783450
   4       -6.708003     -6.708846
   5       -1.036187     -1.040150
   6       -0.987706     -0.991669
   7        0.987034      0.989730
   8        1.963032      1.965625
   9        8.050407      8.052814
  10        8.736468      8.738707
  11       12.066054     12.069607
  12       12.292179     12.295620
  13       14.773237     14.774179
  14       17.612781     17.613120
 
  0.5000000E+00 -0.8326673E-16  0.3000000E+00  0.6000000E-02
   1       -9.943401     -9.943939
   2       -9.878649     -9.879261
   3       -8.642826     -8.642457
   4       -8.610632     -8.610307
   5       -1.352884     -1.356869
   6       -1.304906     -1.308912
   7        2.409211      2.411562
   8        2.863773      2.865930
   9        6.626201      6.629074
  10        7.112030      7.114985
  11       11.905351     11.909205
  12       12.162956     12.166752
  13       17.097199     17.097174
  14       17.120648     17.122449
 
  0.1000000E+00  0.1000000E+00  0.3000000E+00  0.1200000E-01
   1      -14.546776    -14.545531
   2      -14.388711    -14.387550
   3       -2.514979     -2.511709
   4       -1.372088     -1.368928
   5       -0.226296     -0.229426
   6       -0.199066     -0.202218
   7        0.806672      0.802602
   8        0.863443      0.859409
   9       11.038051     11.038935
  10       13.996136     13.995728
  11       14.155887     14.155534
  12       14.623132     14.622981
  13       14.898748     14.899109
  14       15.048224     15.054517
 
  0.2000000E+00  0.1000000E+00  0.3000000E+00  0.2400000E-01
   1      -13.597239    -13.596247
   2      -13.446470    -13.445561
   3       -2.697338     -2.699735
   4       -2.626812     -2.629237
   5       -1.358770     -1.355633
   6       -0.528512     -0.531976
   7       -0.468050     -0.471409
   8       -0.182789     -0.179622
   9       12.038681     12.039685
  10       12.367134     12.367880
  11       12.608936     12.609736
  12       13.962907     13.964106
  13       14.157607     14.158934
  14       15.547280     15.547505
 
  0.3000000E+00  0.1000000E+00  0.3000000E+00  0.2400000E-01
   1      -12.197314    -12.196720
   2      -12.058743    -12.058235
   3       -5.378589     -5.379941
   4       -5.301163     -5.302616
   5       -1.575800     -1.579027
   6       -1.455617     -1.458819
   7        0.277315      0.280195
   8        1.325273      1.328073
   9        9.250415      9.252114
  10        9.856371      9.857876
  11       13.407419     13.409744
  12       13.592303     13.593892
  13       13.951859     13.953501
  14       16.741924     16.742481
 
  0.4000000E+00  0.1000000E+00  0.3000000E+00  0.2400000E-01
   1      -10.425305    -10.425351
   2      -10.312151    -10.312327
   3       -7.840014     -7.840318
   4       -7.715910     -7.716296
   5       -2.081623     -2.084748
   6       -2.024047     -2.027233
   7        2.114128      2.116586
   8        2.842060      2.844322
   9        6.957689      6.960258
  10        7.485118      7.487460
  11       13.098103     13.100980
  12       13.341487     13.344288
  13       15.953587     15.954579
  14       17.623319     17.624878
 
  0.2000000E+00  0.2000000E+00  0.3000000E+00  0.1200000E-01
   1      -12.427990    -12.427322
   2      -12.287444    -12.286871
   3       -4.308467     -4.310602
   4       -4.210746     -4.212889
   5       -2.460419     -2.462571
   6       -2.386865     -2.389001
   7        0.007330      0.010241
   8        1.078014      1.080863
   9       10.018353     10.019629
  10       10.393722     10.394833
  11       13.522026     13.522839
  12       15.843183     15.844364
  13       16.236052     16.238271
  14       16.412470     16.411073
 
  0.3000000E+00  0.2000000E+00  0.3000000E+00  0.2400000E-01
   1      -10.834749    -10.834592
   2      -10.710699    -10.710651
   3       -6.389104     -6.390356
   4       -6.336802     -6.338166
   5       -3.602113     -3.603707
   6       -3.552175     -3.553860
   7        1.810657      1.813252
   8        2.718815      2.721242
   9        7.632182      7.633954
  10        8.120224      8.121834
  11       15.129365     15.130560
  12       15.842882     15.844135