       N       E                     dE             d eps       ncg     rms          rms(c)
DAV:   1    -0.134779720253E+00   -0.13478E+00   -0.48389E+03  5172   0.493E+02
DAV:   2    -0.346299631536E+02   -0.34495E+02   -0.32107E+02  6298   0.130E+02
DAV:   3    -0.355066356610E+02   -0.87667E+00   -0.87412E+00  6114   0.192E+01
DAV:   4    -0.355133868379E+02   -0.67512E-02   -0.67501E-02  5730   0.181E+00
DAV:   5    -0.355135031800E+02   -0.11634E-03   -0.11632E-03  6088   0.226E-01    0.122E+01
DAV:   6    -0.355679020406E+02   -0.54399E-01   -0.13367E+00  5112   0.701E+00    0.507E+00
DAV:   7    -0.359231701348E+02   -0.35527E+00   -0.95659E-01  5034   0.577E+00    0.219E+00
DAV:   8    -0.358687488004E+02    0.54421E-01   -0.16716E-01  5610   0.275E+00    0.719E-01
DAV:   9    -0.358811616202E+02   -0.12413E-01   -0.15173E-02  5436   0.884E-01    0.304E-01
DAV:  10    -0.358807106341E+02    0.45099E-03   -0.10449E-03  5658   0.260E-01    0.101E-01
DAV:  11    -0.358807600143E+02   -0.49380E-04   -0.38928E-04  5412   0.151E-01
   1 F= -.35880760E+02 E0= -.35880774E+02  d E =0.429171E-04  mag=    -0.0001
