 vasp.5.2.12 11Nov11 complex                                                    
  
 executed on             LinuxIFC date 2012.10.17  09:36:46
 running on    1 nodes
 distr:  one band on    1 nodes,    1 groups


--------------------------------------------------------------------------------------------------------


 INCAR:
 POTCAR:   PAW_PBE C 08Apr2002                    
 POTCAR:   PAW_PBE C 08Apr2002                    
   VRHFIN =C: s2p2                                                              
   LEXCH  = PE                                                                  
   EATOM  =   147.1560 eV,   10.8157 Ry                                         
                                                                                
   TITEL  = PAW_PBE C 08Apr2002                                                 
   LULTRA =        F    use ultrasoft PP ?                                      
   IUNSCR =        0    unscreen: 0-lin 1-nonlin 2-no                           
   RPACOR =     .000    partial core radius                                     
   POMASS =   12.011; ZVAL   =    4.000    mass and valenz                      
   RCORE  =    1.500    outmost cutoff radius                                   
   RWIGS  =    1.630; RWIGS  =     .863    wigner-seitz radius (au A)           
   ENMAX  =  400.000; ENMIN  =  300.000 eV                                      
   ICORE  =        2    local potential                                         
   LCOR   =        T    correct aug charges                                     
   LPAW   =        T    paw PP                                                  
   EAUG   =  644.873                                                            
   DEXC   =     .000                                                            
   RMAX   =    2.266    core radius for proj-oper                               
   RAUG   =    1.300    factor for augmentation sphere                          
   RDEP   =    1.501    radius for radial grids                                 
   RDEPT  =    1.300    core radius for aug-charge                              
   QCUT   =   -5.516; QGAM   =   11.032    optimization parameters              
                                                                                
   Description                                                                  
     l     E      TYP  RCUT    TYP  RCUT                                        
     0   .000     23  1.200                                                     
     0   .000     23  1.200                                                     
     1   .000     23  1.500                                                     
     1  2.500     23  1.500                                                     
     2   .000      7  1.500                                                     
  local pseudopotential read in
  atomic valenz-charges read in
  non local Contribution for L=           0  read in
    real space projection operators read in
  non local Contribution for L=           0  read in
    real space projection operators read in
  non local Contribution for L=           1  read in
    real space projection operators read in
  non local Contribution for L=           1  read in
    real space projection operators read in
    PAW grid and wavefunctions read in
 
   number of l-projection  operators is LMAX  =           4
   number of lm-projection operators is LMMAX =           8
 
 PAW_PBE C 08Apr2002                    :
 energy of atom  1       EATOM= -147.1560
 kinetic energy error for atom=    1.6647 (will be added to EATOM!!)
 
 
 POSCAR:  C                                      
  positions in cartesian coordinates
  No initial velocities read in
 exchange correlation table for  LEXCH =        8
   RHO(1)=    0.500       N(1)  =     2000
   RHO(2)=  100.500       N(2)  =     4000
 


--------------------------------------------------------------------------------------------------------


 ion  position               nearest neighbor table
   1  0.000  0.000  0.000-   2 1.42   2 1.42   2 1.42
   2  0.333  0.667  0.000-   1 1.42   1 1.42   1 1.42
   3  0.333  0.667  0.500-   4 1.42   4 1.42   4 1.42
   4  0.667  0.333  0.500-   3 1.42   3 1.42   3 1.42
 
  LATTYP: Found a hexagonal cell.
 ALAT       =     2.4612000000
 C/A-ratio  =     2.7254591256
  
  Lattice vectors:
  
 A1 = (   2.4612000000,   0.0000000000,   0.0000000000)
 A2 = (  -1.2306000000,   2.1314617238,   0.0000000000)
 A3 = (   0.0000000000,   0.0000000000,   6.7079000000)
 Subroutine PRICEL returns:
 Original cell was already a primitive cell.
 

Analysis of symmetry for initial positions (statically):

 Routine SETGRP: Setting up the symmetry group for a 
 hexagonal supercell.


 Subroutine GETGRP returns: Found 24 space group operations
 (whereof 12 operations were pure point group operations)
 out of a pool of 24 trial point group operations.


The static configuration has the point symmetry D_3h.
 The point group associated with its full space group is D_6h.

Analysis of symmetry for dynamics (positions and initial velocities):

 Subroutine DYNSYM returns: Found 24 space group operations
 (whereof 12 operations were pure point group operations)
 out of a pool of 24 trial space group operations
 (whereof 12 operations were pure point group operations)
 and found also     1 'primitive' translations


The dynamic configuration has the point symmetry D_3h.
 The point group associated with its full space group is D_6h.

Analysis of magnetic symmetry:

 Subroutine MAGSYM returns: Found 24 space group operations
 (whereof 12 operations were pure point group operations)
 out of a pool of 24 trial space group operations
 (whereof 12 operations were pure point group operations)
 and found also     1 'primitive' translations


The magnetic configuration has the point symmetry D_3h.
 The point group associated with its full space group is D_6h.
 
 
 KPOINTS: KPOINTS created by Atomic Simulation Env

Automatic generation of k-mesh.
 
 Subroutine IBZKPT returns following result:
 ===========================================
 
 Found     84 irreducible k-points:
 
 Following reciprocal coordinates:
            Coordinates               Weight
  0.000000  0.000000  0.000000      1.000000
  0.100000  0.000000  0.000000      6.000000
  0.200000  0.000000  0.000000      6.000000
  0.300000  0.000000  0.000000      6.000000
  0.400000  0.000000  0.000000      6.000000
  0.500000  0.000000  0.000000      3.000000
  0.100000  0.100000  0.000000      6.000000
  0.200000  0.100000  0.000000     12.000000
  0.300000  0.100000  0.000000     12.000000
  0.400000  0.100000  0.000000     12.000000
  0.200000  0.200000  0.000000      6.000000
  0.300000  0.200000  0.000000     12.000000
  0.400000  0.200000  0.000000      6.000000
  0.300000  0.300000  0.000000      6.000000
  0.000000  0.000000  0.100000      2.000000
  0.100000  0.000000  0.100000     12.000000
  0.200000  0.000000  0.100000     12.000000
  0.300000  0.000000  0.100000     12.000000
  0.400000  0.000000  0.100000     12.000000
  0.500000  0.000000  0.100000      6.000000
  0.100000  0.100000  0.100000     12.000000
  0.200000  0.100000  0.100000     24.000000
  0.300000  0.100000  0.100000     24.000000
  0.400000  0.100000  0.100000     24.000000
  0.200000  0.200000  0.100000     12.000000
  0.300000  0.200000  0.100000     24.000000
  0.400000  0.200000  0.100000     12.000000
  0.300000  0.300000  0.100000     12.000000
  0.000000  0.000000  0.200000      2.000000
  0.100000  0.000000  0.200000     12.000000
  0.200000  0.000000  0.200000     12.000000
  0.300000  0.000000  0.200000     12.000000
  0.400000  0.000000  0.200000     12.000000
  0.500000  0.000000  0.200000      6.000000
  0.100000  0.100000  0.200000     12.000000
  0.200000  0.100000  0.200000     24.000000
  0.300000  0.100000  0.200000     24.000000
  0.400000  0.100000  0.200000     24.000000
  0.200000  0.200000  0.200000     12.000000
  0.300000  0.200000  0.200000     24.000000
  0.400000  0.200000  0.200000     12.000000
  0.300000  0.300000  0.200000     12.000000
  0.000000  0.000000  0.300000      2.000000
  0.100000  0.000000  0.300000     12.000000
  0.200000  0.000000  0.300000     12.000000
  0.300000  0.000000  0.300000     12.000000
  0.400000  0.000000  0.300000     12.000000
  0.500000  0.000000  0.300000      6.000000
  0.100000  0.100000  0.300000     12.000000
  0.200000  0.100000  0.300000     24.000000
  0.300000  0.100000  0.300000     24.000000
  0.400000  0.100000  0.300000     24.000000
  0.200000  0.200000  0.300000     12.000000
  0.300000  0.200000  0.300000     24.000000
  0.400000  0.200000  0.300000     12.000000
  0.300000  0.300000  0.300000     12.000000
  0.000000  0.000000  0.400000      2.000000
  0.100000  0.000000  0.400000     12.000000
  0.200000  0.000000  0.400000     12.000000
  0.300000  0.000000  0.400000     12.000000
  0.400000  0.000000  0.400000     12.000000
  0.500000  0.000000  0.400000      6.000000
  0.100000  0.100000  0.400000     12.000000
  0.200000  0.100000  0.400000     24.000000
  0.300000  0.100000  0.400000     24.000000
  0.400000  0.100000  0.400000     24.000000
  0.200000  0.200000  0.400000     12.000000
  0.300000  0.200000  0.400000     24.000000
  0.400000  0.200000  0.400000     12.000000
  0.300000  0.300000  0.400000     12.000000
  0.000000  0.000000  0.500000      1.000000
  0.100000  0.000000  0.500000      6.000000
  0.200000  0.000000  0.500000      6.000000
  0.300000  0.000000  0.500000      6.000000
  0.400000  0.000000  0.500000      6.000000
  0.500000  0.000000  0.500000      3.000000
  0.100000  0.100000  0.500000      6.000000
  0.200000  0.100000  0.500000     12.000000
  0.300000  0.100000  0.500000     12.000000
  0.400000  0.100000  0.500000     12.000000
  0.200000  0.200000  0.500000      6.000000
  0.300000  0.200000  0.500000     12.000000
  0.400000  0.200000  0.500000      6.000000
  0.300000  0.300000  0.500000      6.000000
 
 Following cartesian coordinates:
            Coordinates               Weight
  0.000000  0.000000  0.000000      1.000000
  0.040631  0.023458  0.000000      6.000000
  0.081261  0.046916  0.000000      6.000000
  0.121892  0.070374  0.000000      6.000000
  0.162522  0.093832  0.000000      6.000000
  0.203153  0.117290  0.000000      3.000000
  0.040631  0.070374  0.000000      6.000000
  0.081261  0.093832  0.000000     12.000000
  0.121892  0.117290  0.000000     12.000000
  0.162522  0.140748  0.000000     12.000000
  0.081261  0.140748  0.000000      6.000000
  0.121892  0.164207  0.000000     12.000000
  0.162522  0.187665  0.000000      6.000000
  0.121892  0.211123  0.000000      6.000000
  0.000000  0.000000  0.014908      2.000000
  0.040631  0.023458  0.014908     12.000000
  0.081261  0.046916  0.014908     12.000000
  0.121892  0.070374  0.014908     12.000000
  0.162522  0.093832  0.014908     12.000000
  0.203153  0.117290  0.014908      6.000000
  0.040631  0.070374  0.014908     12.000000
  0.081261  0.093832  0.014908     24.000000
  0.121892  0.117290  0.014908     24.000000
  0.162522  0.140748  0.014908     24.000000
  0.081261  0.140748  0.014908     12.000000
  0.121892  0.164207  0.014908     24.000000
  0.162522  0.187665  0.014908     12.000000
  0.121892  0.211123  0.014908     12.000000
  0.000000  0.000000  0.029816      2.000000
  0.040631  0.023458  0.029816     12.000000
  0.081261  0.046916  0.029816     12.000000
  0.121892  0.070374  0.029816     12.000000
  0.162522  0.093832  0.029816     12.000000
  0.203153  0.117290  0.029816      6.000000
  0.040631  0.070374  0.029816     12.000000
  0.081261  0.093832  0.029816     24.000000
  0.121892  0.117290  0.029816     24.000000
  0.162522  0.140748  0.029816     24.000000
  0.081261  0.140748  0.029816     12.000000
  0.121892  0.164207  0.029816     24.000000
  0.162522  0.187665  0.029816     12.000000
  0.121892  0.211123  0.029816     12.000000
  0.000000  0.000000  0.044723      2.000000
  0.040631  0.023458  0.044723     12.000000
  0.081261  0.046916  0.044723     12.000000
  0.121892  0.070374  0.044723     12.000000
  0.162522  0.093832  0.044723     12.000000
  0.203153  0.117290  0.044723      6.000000
  0.040631  0.070374  0.044723     12.000000
  0.081261  0.093832  0.044723     24.000000
  0.121892  0.117290  0.044723     24.000000
  0.162522  0.140748  0.044723     24.000000
  0.081261  0.140748  0.044723     12.000000
  0.121892  0.164207  0.044723     24.000000
  0.162522  0.187665  0.044723     12.000000
  0.121892  0.211123  0.044723     12.000000
  0.000000  0.000000  0.059631      2.000000
  0.040631  0.023458  0.059631     12.000000
  0.081261  0.046916  0.059631     12.000000
  0.121892  0.070374  0.059631     12.000000
  0.162522  0.093832  0.059631     12.000000
  0.203153  0.117290  0.059631      6.000000
  0.040631  0.070374  0.059631     12.000000
  0.081261  0.093832  0.059631     24.000000
  0.121892  0.117290  0.059631     24.000000
  0.162522  0.140748  0.059631     24.000000
  0.081261  0.140748  0.059631     12.000000
  0.121892  0.164207  0.059631     24.000000
  0.162522  0.187665  0.059631     12.000000
  0.121892  0.211123  0.059631     12.000000
  0.000000  0.000000  0.074539      1.000000
  0.040631  0.023458  0.074539      6.000000
  0.081261  0.046916  0.074539      6.000000
  0.121892  0.070374  0.074539      6.000000
  0.162522  0.093832  0.074539      6.000000
  0.203153  0.117290  0.074539      3.000000
  0.040631  0.070374  0.074539      6.000000
  0.081261  0.093832  0.074539     12.000000
  0.121892  0.117290  0.074539     12.000000
  0.162522  0.140748  0.074539     12.000000
  0.081261  0.140748  0.074539      6.000000
  0.121892  0.164207  0.074539     12.000000
  0.162522  0.187665  0.074539      6.000000
  0.121892  0.211123  0.074539      6.000000
 


--------------------------------------------------------------------------------------------------------




 Dimension of arrays:
   k-points           NKPTS =     84   k-points in BZ     NKDIM =     84   number of bands    NBANDS=     14
   number of dos      NEDOS =    301   number of ions     NIONS =      4
   non local maximal  LDIM  =      4   non local SUM 2l+1 LMDIM =      8
   total plane-waves  NPLWV =   4608
   max r-space proj   IRMAX =      1   max aug-charges    IRDMAX=   1745
   dimension x,y,z NGX =    12 NGY =   12 NGZ =   32
   dimension x,y,z NGXF=    24 NGYF=   24 NGZF=   64
   support grid    NGXF=    24 NGYF=   24 NGZF=   64
   ions per type =               4
 NGX,Y,Z   is equivalent  to a cutoff of   8.11,  8.11,  7.93 a.u.
 NGXF,Y,Z  is equivalent  to a cutoff of  16.21, 16.21, 15.86 a.u.


 I would recommend the setting:
   dimension x,y,z NGX =    11 NGY =   11 NGZ =   31
 SYSTEM =  unknown system                          
 POSCAR =   C                                      

 Startparameter for this run:
   NWRITE =      2    write-flag & timer
   PREC   = accura    normal or accurate (medium, high low for compatibility)
   ISTART =      0    job   : 0-new  1-cont  2-samecut
   ICHARG =      2    charge: 1-file 2-atom 10-const
   ISPIN  =      2    spin polarized calculation?
   LNONCOLLINEAR =      F non collinear calculations
   LSORBIT =      F    spin-orbit coupling
   INIWAV =      1    electr: 0-lowe 1-rand  2-diag
   LASPH  =      F    aspherical Exc in radial PAW
   METAGGA=      F    non-selfconsistent MetaGGA calc.

 Electronic Relaxation 1
   ENCUT  =  200.0 eV  14.70 Ry    3.83 a.u.   2.84  2.84  7.73*2*pi/ulx,y,z
   ENINI  =  200.0     initial cutoff
   ENAUG  =  644.9 eV  augmentation charge cutoff
   NELM   =     60;   NELMIN=  2; NELMDL= -5     # of ELM steps 
   EDIFF  = 0.1E-03   stopping-criterion for ELM
   LREAL  =      F    real-space projection
   NLSPLINE    = F    spline interpolate recip. space projectors
   LCOMPAT=      F    compatible to vasp.4.4
   GGA_COMPAT  = T    GGA compatible to vasp.4.4-vasp.4.6
   LMAXPAW     = -100 max onsite density
   LMAXMIX     =    2 max onsite mixed and CHGCAR
   VOSKOWN=      0    Vosko Wilk Nusair interpolation
   ROPT   =    0.00000
 Ionic relaxation
   EDIFFG = 0.1E-02   stopping-criterion for IOM
   NSW    =      0    number of steps for IOM
   NBLOCK =      1;   KBLOCK =      1    inner block; outer block 
   IBRION =     -1    ionic relax: 0-MD 1-quasi-New 2-CG
   NFREE  =      0    steps in history (QN), initial steepest desc. (CG)
   ISIF   =      2    stress and relaxation
   IWAVPR =     10    prediction:  0-non 1-charg 2-wave 3-comb
   ISYM   =      2    0-nonsym 1-usesym 2-fastsym
   LCORR  =      T    Harris-Foulkes like correction to forces

   POTIM  = 0.5000    time-step for ionic-motion
   TEIN   =    0.0    initial temperature
   TEBEG  =    0.0;   TEEND  =   0.0 temperature during run
   SMASS  =  -3.00    Nose mass-parameter (am)
   estimated Nose-frequenzy (Omega)   =  0.10E-29 period in steps =****** mass=  -0.138E-27a.u.
   SCALEE = 1.0000    scale energy and forces
   NPACO  =    256;   APACO  = 16.0  distance and # of slots for P.C.
   PSTRESS=    0.0 pullay stress

  Mass of Ions in am
   POMASS =  12.01
  Ionic Valenz
   ZVAL   =   4.00
  Atomic Wigner-Seitz radii
   RWIGS  =  -1.00
  virtual crystal weights 
   VCA    =   1.00
   NELECT =      16.0000    total number of electrons
   NUPDOWN=      -1.0000    fix difference up-down

 DOS related values:
   EMIN   =  10.00;   EMAX   =-10.00  energy-range for DOS
   EFERMI =   0.00
   ISMEAR =     1;   SIGMA  =   0.05  broadening in eV -4-tet -1-fermi 0-gaus

 Electronic relaxation 2 (details)
   IALGO  =     38    algorithm
   LDIAG  =      T    sub-space diagonalisation (order eigenvalues)
   LSUBROT=      T    optimize rotation matrix (better conditioning)
   TURBO    =      0    0=normal 1=particle mesh
   IRESTART =      0    0=no restart 2=restart with 2 vectors
   NREBOOT  =      0    no. of reboots
   NMIN     =      0    reboot dimension
   EREF     =   0.00    reference energy to select bands
   IMIX   =      4    mixing-type and parameters
     AMIX     =   0.40;   BMIX     =  1.00
     AMIX_MAG =   1.60;   BMIX_MAG =  1.00
     AMIN     =   0.10
     WC   =   100.;   INIMIX=   1;  MIXPRE=   1

 Intra band minimization:
   WEIMIN = 0.0000     energy-eigenvalue tresh-hold
   EBREAK =  0.18E-05  absolut break condition
   DEPER  =   0.30     relativ break condition  

   TIME   =   0.40     timestep for ELM

  volume/ion in A,a.u.               =       8.80        59.37
  Fermi-wavevector in a.u.,A,eV,Ry     =   1.258861  2.378903 21.561578  1.584731
  Thomas-Fermi vector in A             =   2.392450
 
 Write flags
   LWAVE  =      T    write WAVECAR
   LCHARG =      T    write CHGCAR
   LVTOT  =      F    write LOCPOT, total local potential
   LVHAR  =      F    write LOCPOT, Hartree potential only
   LELF   =      F    write electronic localiz. function (ELF)
   LORBIT =     11    0 simple, 1 ext, 2 COOP (PROOUT)


 Dipole corrections
   LMONO  =      F    monopole corrections only (constant potential shift)
   LDIPOL =      F    correct potential (dipole corrections)
   IDIPOL =      0    1-x, 2-y, 3-z, 4-all directions 
   EPSILON=  1.0000000 bulk dielectric constant

 Exchange correlation treatment:
   GGA     =    --    GGA type
   LEXCH   =     8    internal setting for exchange type
   VOSKOWN=      0    Vosko Wilk Nusair interpolation
   LHFCALC =     F    Hartree Fock is set to
   LHFONE  =     F    Hartree Fock one center treatment
   AEXX    =    0.0000 exact exchange contribution

 Linear response parameters
   LEPSILON=     F    determine dielectric tensor
   LRPA    =     F    only Hartree local field effects (RPA)
   LNABLA  =     F    use nabla operator in PAW spheres
   LVEL    =     F    velocity operator in full k-point grid
   LINTERFAST=   F  fast interpolation
   KINTER  =     0    interpolate to denser k-point grid
   CSHIFT  =0.1000    complex shift for real part using Kramers Kronig
   OMEGAMAX=  -1.0    maximum frequency
   RTIME   =    0.100 relaxation time in fs

 Orbital magnetization related:
   ORBITALMAG=     F  switch on orbital magnetization
   LCHIMAG   =     F  perturbation theory with respect to B field
   DQ        =  0.001000  dq finite difference perturbation B field



--------------------------------------------------------------------------------------------------------


 Static calculation
 charge density and potential will be updated during run
 spin polarized calculation
 Variant of blocked Davidson
 Davidson routine will perform the subspace rotation
 perform sub-space diagonalisation
    after iterative eigenvector-optimisation
 modified Broyden-mixing scheme, WC =      100.0
 initial mixing is a Kerker type mixing with AMIX =  0.4000 and BMIX =      1.0000
 Hartree-type preconditioning will be used
 using additional bands            6
 reciprocal scheme for non local part
 calculate Harris-corrections to forces 
   (improved forces if not selfconsistent)
 use gradient corrections 
 use of overlap-Matrix (Vanderbilt PP)
 Methfessel and Paxton  Order N= 1 SIGMA  =   0.05


--------------------------------------------------------------------------------------------------------


  energy-cutoff  :      200.00
  volume of cell :       35.19
      direct lattice vectors                 reciprocal lattice vectors
     2.461200000  0.000000000  0.000000000     0.406305867  0.234580802  0.000000000
    -1.230600000  2.131461724  0.000000000     0.000000000  0.469161603  0.000000000
     0.000000000  0.000000000  6.707900000     0.000000000  0.000000000  0.149077953

  length of vectors
     2.461200000  2.461200000  6.707900000     0.469161603  0.469161603  0.149077953


 
 k-points in units of 2pi/SCALE and weight: KPOINTS created by Atomic Simulation Env
   0.00000000  0.00000000  0.00000000       0.001
   0.04063059  0.02345808  0.00000000       0.006
   0.08126117  0.04691616  0.00000000       0.006
   0.12189176  0.07037424  0.00000000       0.006
   0.16252235  0.09383232  0.00000000       0.006
   0.20315293  0.11729040  0.00000000       0.003
   0.04063059  0.07037424  0.00000000       0.006
   0.08126117  0.09383232  0.00000000       0.012
   0.12189176  0.11729040  0.00000000       0.012
   0.16252235  0.14074848  0.00000000       0.012
   0.08126117  0.14074848  0.00000000       0.006
   0.12189176  0.16420656  0.00000000       0.012
   0.16252235  0.18766464  0.00000000       0.006
   0.12189176  0.21112272  0.00000000       0.006
   0.00000000  0.00000000  0.01490780       0.002
   0.04063059  0.02345808  0.01490780       0.012
   0.08126117  0.04691616  0.01490780       0.012
   0.12189176  0.07037424  0.01490780       0.012
   0.16252235  0.09383232  0.01490780       0.012
   0.20315293  0.11729040  0.01490780       0.006
   0.04063059  0.07037424  0.01490780       0.012
   0.08126117  0.09383232  0.01490780       0.024
   0.12189176  0.11729040  0.01490780       0.024
   0.16252235  0.14074848  0.01490780       0.024
   0.08126117  0.14074848  0.01490780       0.012
   0.12189176  0.16420656  0.01490780       0.024
   0.16252235  0.18766464  0.01490780       0.012
   0.12189176  0.21112272  0.01490780       0.012
   0.00000000  0.00000000  0.02981559       0.002
   0.04063059  0.02345808  0.02981559       0.012
   0.08126117  0.04691616  0.02981559       0.012
   0.12189176  0.07037424  0.02981559       0.012
   0.16252235  0.09383232  0.02981559       0.012
   0.20315293  0.11729040  0.02981559       0.006
   0.04063059  0.07037424  0.02981559       0.012
   0.08126117  0.09383232  0.02981559       0.024
   0.12189176  0.11729040  0.02981559       0.024
   0.16252235  0.14074848  0.02981559       0.024
   0.08126117  0.14074848  0.02981559       0.012
   0.12189176  0.16420656  0.02981559       0.024
   0.16252235  0.18766464  0.02981559       0.012
   0.12189176  0.21112272  0.02981559       0.012
   0.00000000  0.00000000  0.04472339       0.002
   0.04063059  0.02345808  0.04472339       0.012
   0.08126117  0.04691616  0.04472339       0.012
   0.12189176  0.07037424  0.04472339       0.012
   0.16252235  0.09383232  0.04472339       0.012
   0.20315293  0.11729040  0.04472339       0.006
   0.04063059  0.07037424  0.04472339       0.012
   0.08126117  0.09383232  0.04472339       0.024
   0.12189176  0.11729040  0.04472339       0.024
   0.16252235  0.14074848  0.04472339       0.024
   0.08126117  0.14074848  0.04472339       0.012
   0.12189176  0.16420656  0.04472339       0.024
   0.16252235  0.18766464  0.04472339       0.012
   0.12189176  0.21112272  0.04472339       0.012
   0.00000000  0.00000000  0.05963118       0.002
   0.04063059  0.02345808  0.05963118       0.012
   0.08126117  0.04691616  0.05963118       0.012
   0.12189176  0.07037424  0.05963118       0.012
   0.16252235  0.09383232  0.05963118       0.012
   0.20315293  0.11729040  0.05963118       0.006
   0.04063059  0.07037424  0.05963118       0.012
   0.08126117  0.09383232  0.05963118       0.024
   0.12189176  0.11729040  0.05963118       0.024
   0.16252235  0.14074848  0.05963118       0.024
   0.08126117  0.14074848  0.05963118       0.012
   0.12189176  0.16420656  0.05963118       0.024
   0.16252235  0.18766464  0.05963118       0.012
   0.12189176  0.21112272  0.05963118       0.012
   0.00000000  0.00000000  0.07453898       0.001
   0.04063059  0.02345808  0.07453898       0.006
   0.08126117  0.04691616  0.07453898       0.006
   0.12189176  0.07037424  0.07453898       0.006
   0.16252235  0.09383232  0.07453898       0.006
   0.20315293  0.11729040  0.07453898       0.003
   0.04063059  0.07037424  0.07453898       0.006
   0.08126117  0.09383232  0.07453898       0.012
   0.12189176  0.11729040  0.07453898       0.012
   0.16252235  0.14074848  0.07453898       0.012
   0.08126117  0.14074848  0.07453898       0.006
   0.12189176  0.16420656  0.07453898       0.012
   0.16252235  0.18766464  0.07453898       0.006
   0.12189176  0.21112272  0.07453898       0.006
 
 k-points in reciprocal lattice and weights: KPOINTS created by Atomic Simulation Env
   0.00000000  0.00000000  0.00000000       0.001
   0.10000000  0.00000000  0.00000000       0.006
   0.20000000  0.00000000  0.00000000       0.006
   0.30000000  0.00000000  0.00000000       0.006
   0.40000000  0.00000000  0.00000000       0.006
   0.50000000  0.00000000  0.00000000       0.003
   0.10000000  0.10000000  0.00000000       0.006
   0.20000000  0.10000000  0.00000000       0.012
   0.30000000  0.10000000  0.00000000       0.012
   0.40000000  0.10000000  0.00000000       0.012
   0.20000000  0.20000000  0.00000000       0.006
   0.30000000  0.20000000  0.00000000       0.012
   0.40000000  0.20000000  0.00000000       0.006
   0.30000000  0.30000000  0.00000000       0.006
   0.00000000  0.00000000  0.10000000       0.002
   0.10000000  0.00000000  0.10000000       0.012
   0.20000000  0.00000000  0.10000000       0.012
   0.30000000  0.00000000  0.10000000       0.012
   0.40000000  0.00000000  0.10000000       0.012
   0.50000000  0.00000000  0.10000000       0.006
   0.10000000  0.10000000  0.10000000       0.012
   0.20000000  0.10000000  0.10000000       0.024
   0.30000000  0.10000000  0.10000000       0.024
   0.40000000  0.10000000  0.10000000       0.024
   0.20000000  0.20000000  0.10000000       0.012
   0.30000000  0.20000000  0.10000000       0.024
   0.40000000  0.20000000  0.10000000       0.012
   0.30000000  0.30000000  0.10000000       0.012
   0.00000000  0.00000000  0.20000000       0.002
   0.10000000  0.00000000  0.20000000       0.012
   0.20000000  0.00000000  0.20000000       0.012
   0.30000000  0.00000000  0.20000000       0.012
   0.40000000  0.00000000  0.20000000       0.012
   0.50000000  0.00000000  0.20000000       0.006
   0.10000000  0.10000000  0.20000000       0.012
   0.20000000  0.10000000  0.20000000       0.024
   0.30000000  0.10000000  0.20000000       0.024
   0.40000000  0.10000000  0.20000000       0.024
   0.20000000  0.20000000  0.20000000       0.012
   0.30000000  0.20000000  0.20000000       0.024
   0.40000000  0.20000000  0.20000000       0.012
   0.30000000  0.30000000  0.20000000       0.012
   0.00000000  0.00000000  0.30000000       0.002
   0.10000000  0.00000000  0.30000000       0.012
   0.20000000  0.00000000  0.30000000       0.012
   0.30000000  0.00000000  0.30000000       0.012
   0.40000000  0.00000000  0.30000000       0.012
   0.50000000  0.00000000  0.30000000       0.006
   0.10000000  0.10000000  0.30000000       0.012
   0.20000000  0.10000000  0.30000000       0.024
   0.30000000  0.10000000  0.30000000       0.024
   0.40000000  0.10000000  0.30000000       0.024
   0.20000000  0.20000000  0.30000000       0.012
   0.30000000  0.20000000  0.30000000       0.024
   0.40000000  0.20000000  0.30000000       0.012
   0.30000000  0.30000000  0.30000000       0.012
   0.00000000  0.00000000  0.40000000       0.002
   0.10000000  0.00000000  0.40000000       0.012
   0.20000000  0.00000000  0.40000000       0.012
   0.30000000  0.00000000  0.40000000       0.012
   0.40000000  0.00000000  0.40000000       0.012
   0.50000000  0.00000000  0.40000000       0.006
   0.10000000  0.10000000  0.40000000       0.012
   0.20000000  0.10000000  0.40000000       0.024
   0.30000000  0.10000000  0.40000000       0.024
   0.40000000  0.10000000  0.40000000       0.024
   0.20000000  0.20000000  0.40000000       0.012
   0.30000000  0.20000000  0.40000000       0.024
   0.40000000  0.20000000  0.40000000       0.012
   0.30000000  0.30000000  0.40000000       0.012
   0.00000000  0.00000000  0.50000000       0.001
   0.10000000  0.00000000  0.50000000       0.006
   0.20000000  0.00000000  0.50000000       0.006
   0.30000000  0.00000000  0.50000000       0.006
   0.40000000  0.00000000  0.50000000       0.006
   0.50000000  0.00000000  0.50000000       0.003
   0.10000000  0.10000000  0.50000000       0.006
   0.20000000  0.10000000  0.50000000       0.012
   0.30000000  0.10000000  0.50000000       0.012
   0.40000000  0.10000000  0.50000000       0.012
   0.20000000  0.20000000  0.50000000       0.006
   0.30000000  0.20000000  0.50000000       0.012
   0.40000000  0.20000000  0.50000000       0.006
   0.30000000  0.30000000  0.50000000       0.006
 
 position of ions in fractional coordinates (direct lattice) 
   0.00000000  0.00000000  0.00000000
   0.33333333  0.66666667  0.00000000
   0.33333333  0.66666667  0.50000000
   0.66666667  0.33333333  0.50000000
 
 position of ions in cartesian coordinates  (Angst):
   0.00000000  0.00000000  0.00000000
   0.00000000  1.42097448  0.00000000
   0.00000000  1.42097448  3.35395000
   1.23060000  0.71048724  3.35395000
 


--------------------------------------------------------------------------------------------------------


 k-point  1 :  0.00000.00000.0000  plane waves:     225
 k-point  2 :  0.10000.00000.0000  plane waves:     219
 k-point  3 :  0.20000.00000.0000  plane waves:     213
 k-point  4 :  0.30000.00000.0000  plane waves:     233
 k-point  5 :  0.40000.00000.0000  plane waves:     235
 k-point  6 :  0.50000.00000.0000  plane waves:     230
 k-point  7 :  0.10000.10000.0000  plane waves:     219
 k-point  8 :  0.20000.10000.0000  plane waves:     224
 k-point  9 :  0.30000.10000.0000  plane waves:     231
 k-point 10 :  0.40000.10000.0000  plane waves:     231
 k-point 11 :  0.20000.20000.0000  plane waves:     225
 k-point 12 :  0.30000.20000.0000  plane waves:     231
 k-point 13 :  0.40000.20000.0000  plane waves:     229
 k-point 14 :  0.30000.30000.0000  plane waves:     225
 k-point 15 :  0.00000.00000.1000  plane waves:     219
 k-point 16 :  0.10000.00000.1000  plane waves:     222
 k-point 17 :  0.20000.00000.1000  plane waves:     215
 k-point 18 :  0.30000.00000.1000  plane waves:     231
 k-point 19 :  0.40000.00000.1000  plane waves:     235
 k-point 20 :  0.50000.00000.1000  plane waves:     230
 k-point 21 :  0.10000.10000.1000  plane waves:     216
 k-point 22 :  0.20000.10000.1000  plane waves:     226
 k-point 23 :  0.30000.10000.1000  plane waves:     229
 k-point 24 :  0.40000.10000.1000  plane waves:     229
 k-point 25 :  0.20000.20000.1000  plane waves:     227
 k-point 26 :  0.30000.20000.1000  plane waves:     228
 k-point 27 :  0.40000.20000.1000  plane waves:     228
 k-point 28 :  0.30000.30000.1000  plane waves:     225
 k-point 29 :  0.00000.00000.2000  plane waves:     219
 k-point 30 :  0.10000.00000.2000  plane waves:     219
 k-point 31 :  0.20000.00000.2000  plane waves:     219
 k-point 32 :  0.30000.00000.2000  plane waves:     227
 k-point 33 :  0.40000.00000.2000  plane waves:     232
 k-point 34 :  0.50000.00000.2000  plane waves:     228
 k-point 35 :  0.10000.10000.2000  plane waves:     217
 k-point 36 :  0.20000.10000.2000  plane waves:     224
 k-point 37 :  0.30000.10000.2000  plane waves:     229
 k-point 38 :  0.40000.10000.2000  plane waves:     229
 k-point 39 :  0.20000.20000.2000  plane waves:     226
 k-point 40 :  0.30000.20000.2000  plane waves:     230
 k-point 41 :  0.40000.20000.2000  plane waves:     226
 k-point 42 :  0.30000.30000.2000  plane waves:     224
 k-point 43 :  0.00000.00000.3000  plane waves:     220
 k-point 44 :  0.10000.00000.3000  plane waves:     220
 k-point 45 :  0.20000.00000.3000  plane waves:     220
 k-point 46 :  0.30000.00000.3000  plane waves:     226
 k-point 47 :  0.40000.00000.3000  plane waves:     228
 k-point 48 :  0.50000.00000.3000  plane waves:     226
 k-point 49 :  0.10000.10000.3000  plane waves:     220
 k-point 50 :  0.20000.10000.3000  plane waves:     223
 k-point 51 :  0.30000.10000.3000  plane waves:     229
 k-point 52 :  0.40000.10000.3000  plane waves:     228
 k-point 53 :  0.20000.20000.3000  plane waves:     228
 k-point 54 :  0.30000.20000.3000  plane waves:     229
 k-point 55 :  0.40000.20000.3000  plane waves:     225
 k-point 56 :  0.30000.30000.3000  plane waves:     225
 k-point 57 :  0.00000.00000.4000  plane waves:     220
 k-point 58 :  0.10000.00000.4000  plane waves:     220
 k-point 59 :  0.20000.00000.4000  plane waves:     219
 k-point 60 :  0.30000.00000.4000  plane waves:     229
 k-point 61 :  0.40000.00000.4000  plane waves:     227
 k-point 62 :  0.50000.00000.4000  plane waves:     226
 k-point 63 :  0.10000.10000.4000  plane waves:     220
 k-point 64 :  0.20000.10000.4000  plane waves:     227
 k-point 65 :  0.30000.10000.4000  plane waves:     228
 k-point 66 :  0.40000.10000.4000  plane waves:     228
 k-point 67 :  0.20000.20000.4000  plane waves:     228
 k-point 68 :  0.30000.20000.4000  plane waves:     228
 k-point 69 :  0.40000.20000.4000  plane waves:     229
 k-point 70 :  0.30000.30000.4000  plane waves:     221
 k-point 71 :  0.00000.00000.5000  plane waves:     208
 k-point 72 :  0.10000.00000.5000  plane waves:     218
 k-point 73 :  0.20000.00000.5000  plane waves:     216
 k-point 74 :  0.30000.00000.5000  plane waves:     230
 k-point 75 :  0.40000.00000.5000  plane waves:     228
 k-point 76 :  0.50000.00000.5000  plane waves:     236
 k-point 77 :  0.10000.10000.5000  plane waves:     218
 k-point 78 :  0.20000.10000.5000  plane waves:     226
 k-point 79 :  0.30000.10000.5000  plane waves:     224
 k-point 80 :  0.40000.10000.5000  plane waves:     228
 k-point 81 :  0.20000.20000.5000  plane waves:     232
 k-point 82 :  0.30000.20000.5000  plane waves:     228
 k-point 83 :  0.40000.20000.5000  plane waves:     230
 k-point 84 :  0.30000.30000.5000  plane waves:     220

 maximum and minimum number of plane-waves per node :       236      208

 maximum number of plane-waves:       236
 maximum index in each direction: 
   IXMAX=    2   IYMAX=    2   IZMAX=    7
   IXMIN=   -3   IYMIN=   -3   IZMIN=   -8

 NGX is ok and might be reduce to  12
 NGY is ok and might be reduce to  12
 NGZ is ok and might be reduce to  32

 serial   3D FFT for wavefunctions
 parallel 3D FFT for charge:
    minimum data exchange during FFTs selected (reduces bandwidth)


 total amount of memory used by VASP on root node    45775. kBytes
========================================================================

   base      :      30000. kBytes
   nonl-proj :       1283. kBytes
   fftplans  :       1292. kBytes
   grid      :       3091. kBytes
   one-center:         24. kBytes
   wavefun   :      10085. kBytes
 
 Broyden mixing: mesh for mixing (old mesh)
   NGX =  5   NGY =  5   NGZ = 15
  (NGX  = 24   NGY  = 24   NGZ  = 64)
  gives a total of    375 points

 initial charge density was supplied:
 charge density of overlapping atoms calculated
 number of electron      16.0000000 magnetization       4.0000000
 keeping initial charge density in first step


--------------------------------------------------------------------------------------------------------


 Maximum index for augmentation-charges         1495 (set IRDMAX)


--------------------------------------------------------------------------------------------------------


 First call to EWALD:  gamma=   0.541
 Maximum number of real-space cells 4x 4x 2
 Maximum number of reciprocal cells 2x 2x 5

    FEWALD:  cpu time    0.00: real time    0.00


----------------------------------------- Iteration    1(   1)  ---------------------------------------


    POTLOK:  cpu time    0.12: real time    0.12
    SETDIJ:  cpu time    0.04: real time    0.04
     EDDAV:  cpu time    3.98: real time    3.99
       DOS:  cpu time    0.02: real time    0.02
    --------------------------------------------
      LOOP:  cpu time    4.17: real time    4.18

 eigenvalue-minimisations  :  5172
 total energy-change (2. order) :-0.1347797E+00  (-0.4838896E+03)
 number of electron      16.0000000 magnetization       4.0000000
 augmentation part       16.0000000 magnetization       4.0000000

 Free energy of the ion-electron system (eV)
  ---------------------------------------------------
  alpha Z        PSCENC =        37.04766603
  Ewald energy   TEWEN  =      -460.60042082
  -1/2 Hartree   DENC   =      -148.78490797
  -exchange  EXHF       =         0.00000000
  -V(xc)+E(xc)   XCENC  =        56.10990824
  PAW double counting   =       150.95130483     -155.51722924
  entropy T*S    EENTRO =        -0.00015217
  eigenvalues    EBANDS =       -61.30605291
  atomic energy  EATOM  =       581.96510429
  ---------------------------------------------------
  free energy    TOTEN  =        -0.13477972 eV

  energy without entropy =       -0.13462755  energy(sigma->0) =       -0.13472900


--------------------------------------------------------------------------------------------------------




----------------------------------------- Iteration    1(   2)  ---------------------------------------


     EDDAV:  cpu time    4.63: real time    4.63
       DOS:  cpu time    0.02: real time    0.02
    --------------------------------------------
      LOOP:  cpu time    4.64: real time    4.65

 eigenvalue-minimisations  :  6298
 total energy-change (2. order) :-0.3449518E+02  (-0.3210652E+02)
 number of electron      16.0000000 magnetization       4.0000000
 augmentation part       16.0000000 magnetization       4.0000000

 Free energy of the ion-electron system (eV)
  ---------------------------------------------------
  alpha Z        PSCENC =        37.04766603
  Ewald energy   TEWEN  =      -460.60042082
  -1/2 Hartree   DENC   =      -148.78490797
  -exchange  EXHF       =         0.00000000
  -V(xc)+E(xc)   XCENC  =        56.10990824
  PAW double counting   =       150.95130483     -155.51722924
  entropy T*S    EENTRO =        -0.00001802
  eigenvalues    EBANDS =       -95.80137049
  atomic energy  EATOM  =       581.96510429
  ---------------------------------------------------
  free energy    TOTEN  =       -34.62996315 eV

  energy without entropy =      -34.62994513  energy(sigma->0) =      -34.62995715


--------------------------------------------------------------------------------------------------------




----------------------------------------- Iteration    1(   3)  ---------------------------------------


     EDDAV:  cpu time    4.52: real time    4.52
       DOS:  cpu time    0.02: real time    0.02
    --------------------------------------------
      LOOP:  cpu time    4.54: real time    4.56

 eigenvalue-minimisations  :  6114
 total energy-change (2. order) :-0.8766725E+00  (-0.8741168E+00)
 number of electron      16.0000000 magnetization       4.0000000
 augmentation part       16.0000000 magnetization       4.0000000

 Free energy of the ion-electron system (eV)
  ---------------------------------------------------
  alpha Z        PSCENC =        37.04766603
  Ewald energy   TEWEN  =      -460.60042082
  -1/2 Hartree   DENC   =      -148.78490797
  -exchange  EXHF       =         0.00000000
  -V(xc)+E(xc)   XCENC  =        56.10990824
  PAW double counting   =       150.95130483     -155.51722924
  entropy T*S    EENTRO =        -0.00004291
  eigenvalues    EBANDS =       -96.67801811
  atomic energy  EATOM  =       581.96510429
  ---------------------------------------------------
  free energy    TOTEN  =       -35.50663566 eV

  energy without entropy =      -35.50659275  energy(sigma->0) =      -35.50662136


--------------------------------------------------------------------------------------------------------




----------------------------------------- Iteration    1(   4)  ---------------------------------------


     EDDAV:  cpu time    4.29: real time    4.30
       DOS:  cpu time    0.01: real time    0.01
    --------------------------------------------
      LOOP:  cpu time    4.31: real time    4.32

 eigenvalue-minimisations  :  5730
 total energy-change (2. order) :-0.6751177E-02  (-0.6750060E-02)
 number of electron      16.0000000 magnetization       4.0000000
 augmentation part       16.0000000 magnetization       4.0000000

 Free energy of the ion-electron system (eV)
  ---------------------------------------------------
  alpha Z        PSCENC =        37.04766603
  Ewald energy   TEWEN  =      -460.60042082
  -1/2 Hartree   DENC   =      -148.78490797
  -exchange  EXHF       =         0.00000000
  -V(xc)+E(xc)   XCENC  =        56.10990824
  PAW double counting   =       150.95130483     -155.51722924
  entropy T*S    EENTRO =        -0.00004046
  eigenvalues    EBANDS =       -96.68477173
  atomic energy  EATOM  =       581.96510429
  ---------------------------------------------------
  free energy    TOTEN  =       -35.51338684 eV

  energy without entropy =      -35.51334638  energy(sigma->0) =      -35.51337335


--------------------------------------------------------------------------------------------------------




----------------------------------------- Iteration    1(   5)  ---------------------------------------


     EDDAV:  cpu time    4.51: real time    4.51
       DOS:  cpu time    0.02: real time    0.02
    CHARGE:  cpu time    0.29: real time    0.29
    MIXING:  cpu time    0.00: real time    0.00
    --------------------------------------------
      LOOP:  cpu time    4.82: real time    4.83

 eigenvalue-minimisations  :  6088
 total energy-change (2. order) :-0.1163421E-03  (-0.1163162E-03)
 number of electron      15.9999985 magnetization       1.0559216
 augmentation part        0.2469406 magnetization       0.9988194

 Broyden mixing:
  rms(total) = 0.12231E+01    rms(broyden)= 0.12154E+01
  rms(prec ) = 0.14773E+01
  weight for this iteration     100.00

 Free energy of the ion-electron system (eV)
  ---------------------------------------------------
  alpha Z        PSCENC =        37.04766603
  Ewald energy   TEWEN  =      -460.60042082
  -1/2 Hartree   DENC   =      -148.78490797
  -exchange  EXHF       =         0.00000000
  -V(xc)+E(xc)   XCENC  =        56.10990824
  PAW double counting   =       150.95130483     -155.51722924
  entropy T*S    EENTRO =        -0.00004040
  eigenvalues    EBANDS =       -96.68488814
  atomic energy  EATOM  =       581.96510429
  ---------------------------------------------------
  free energy    TOTEN  =       -35.51350318 eV

  energy without entropy =      -35.51346278  energy(sigma->0) =      -35.51348971


--------------------------------------------------------------------------------------------------------




----------------------------------------- Iteration    1(   6)  ---------------------------------------


    POTLOK:  cpu time    0.11: real time    0.11
    SETDIJ:  cpu time    0.04: real time    0.05
     EDDAV:  cpu time    3.92: real time    3.93
       DOS:  cpu time    0.01: real time    0.02
    CHARGE:  cpu time    0.29: real time    0.29
    MIXING:  cpu time    0.00: real time    0.00
    --------------------------------------------
      LOOP:  cpu time    4.38: real time    4.41

 eigenvalue-minimisations  :  5112
 total energy-change (2. order) :-0.5439886E-01  (-0.1336725E+00)
 number of electron      15.9999986 magnetization       0.0591636
 augmentation part        0.2414175 magnetization       0.0538300

 Broyden mixing:
  rms(total) = 0.50665E+00    rms(broyden)= 0.50559E+00
  rms(prec ) = 0.69439E+00
  weight for this iteration     100.00

 eigenvalues of (default mixing * dielectric matrix)
  average eigenvalue GAMMA=   0.9677
  0.9677

 Free energy of the ion-electron system (eV)
  ---------------------------------------------------
  alpha Z        PSCENC =        37.04766603
  Ewald energy   TEWEN  =      -460.60042082
  -1/2 Hartree   DENC   =      -161.53532137
  -exchange  EXHF       =         0.00000000
  -V(xc)+E(xc)   XCENC  =        56.57639296
  PAW double counting   =       197.92195108     -202.36301576
  entropy T*S    EENTRO =         0.00002031
  eigenvalues    EBANDS =       -84.58027875
  atomic energy  EATOM  =       581.96510429
  ---------------------------------------------------
  free energy    TOTEN  =       -35.56790204 eV

  energy without entropy =      -35.56792235  energy(sigma->0) =      -35.56790881


--------------------------------------------------------------------------------------------------------




----------------------------------------- Iteration    1(   7)  ---------------------------------------


    POTLOK:  cpu time    0.12: real time    0.12
    SETDIJ:  cpu time    0.04: real time    0.04
     EDDAV:  cpu time    3.88: real time    3.88
       DOS:  cpu time    0.02: real time    0.02
    CHARGE:  cpu time    0.28: real time    0.28
    MIXING:  cpu time    0.00: real time    0.00
    --------------------------------------------
      LOOP:  cpu time    4.34: real time    4.36

 eigenvalue-minimisations  :  5034
 total energy-change (2. order) :-0.3552681E+00  (-0.9565929E-01)
 number of electron      15.9999986 magnetization      -0.1752104
 augmentation part        0.2347764 magnetization      -0.1744731

 Broyden mixing:
  rms(total) = 0.21902E+00    rms(broyden)= 0.21883E+00
  rms(prec ) = 0.29564E+00
  weight for this iteration     100.00

 eigenvalues of (default mixing * dielectric matrix)
  average eigenvalue GAMMA=   1.2270
  0.8474  1.6066

 Free energy of the ion-electron system (eV)
  ---------------------------------------------------
  alpha Z        PSCENC =        37.04766603
  Ewald energy   TEWEN  =      -460.60042082
  -1/2 Hartree   DENC   =      -171.12788990
  -exchange  EXHF       =         0.00000000
  -V(xc)+E(xc)   XCENC  =        56.87193350
  PAW double counting   =       234.53078320     -238.84641042
  entropy T*S    EENTRO =         0.00004550
  eigenvalues    EBANDS =       -75.76398151
  atomic energy  EATOM  =       581.96510429
  ---------------------------------------------------
  free energy    TOTEN  =       -35.92317013 eV

  energy without entropy =      -35.92321564  energy(sigma->0) =      -35.92318530


--------------------------------------------------------------------------------------------------------




----------------------------------------- Iteration    1(   8)  ---------------------------------------


    POTLOK:  cpu time    0.11: real time    0.12
    SETDIJ:  cpu time    0.04: real time    0.04
     EDDAV:  cpu time    4.22: real time    4.23
       DOS:  cpu time    0.02: real time    0.02
    CHARGE:  cpu time    0.28: real time    0.28
    MIXING:  cpu time    0.00: real time    0.00
    --------------------------------------------
      LOOP:  cpu time    4.68: real time    4.70

 eigenvalue-minimisations  :  5610
 total energy-change (2. order) : 0.5442133E-01  (-0.1671597E-01)
 number of electron      15.9999987 magnetization      -0.0461923
 augmentation part        0.2313282 magnetization      -0.0448900

 Broyden mixing:
  rms(total) = 0.71870E-01    rms(broyden)= 0.71696E-01
  rms(prec ) = 0.83298E-01
  weight for this iteration     100.00

 eigenvalues of (default mixing * dielectric matrix)
  average eigenvalue GAMMA=   1.2410
  1.9600  0.9861  0.7771

 Free energy of the ion-electron system (eV)
  ---------------------------------------------------
  alpha Z        PSCENC =        37.04766603
  Ewald energy   TEWEN  =      -460.60042082
  -1/2 Hartree   DENC   =      -176.95284777
  -exchange  EXHF       =         0.00000000
  -V(xc)+E(xc)   XCENC  =        57.28706116
  PAW double counting   =       258.98764214     -263.19709094
  entropy T*S    EENTRO =         0.00004450
  eigenvalues    EBANDS =       -70.40590740
  atomic energy  EATOM  =       581.96510429
  ---------------------------------------------------
  free energy    TOTEN  =       -35.86874880 eV

  energy without entropy =      -35.86879330  energy(sigma->0) =      -35.86876363


--------------------------------------------------------------------------------------------------------




----------------------------------------- Iteration    1(   9)  ---------------------------------------


    POTLOK:  cpu time    0.11: real time    0.12
    SETDIJ:  cpu time    0.04: real time    0.04
     EDDAV:  cpu time    4.13: real time    4.14
       DOS:  cpu time    0.01: real time    0.02
    CHARGE:  cpu time    0.28: real time    0.28
    MIXING:  cpu time    0.00: real time    0.00
    --------------------------------------------
      LOOP:  cpu time    4.59: real time    4.65

 eigenvalue-minimisations  :  5436
 total energy-change (2. order) :-0.1241282E-01  (-0.1517314E-02)
 number of electron      15.9999987 magnetization       0.0093897
 augmentation part        0.2304438 magnetization       0.0101013

 Broyden mixing:
  rms(total) = 0.30387E-01    rms(broyden)= 0.30362E-01
  rms(prec ) = 0.35514E-01
  weight for this iteration     100.00

 eigenvalues of (default mixing * dielectric matrix)
  average eigenvalue GAMMA=   1.3138
  2.3357  1.3340  0.9030  0.6824

 Free energy of the ion-electron system (eV)
  ---------------------------------------------------
  alpha Z        PSCENC =        37.04766603
  Ewald energy   TEWEN  =      -460.60042082
  -1/2 Hartree   DENC   =      -177.70910284
  -exchange  EXHF       =         0.00000000
  -V(xc)+E(xc)   XCENC  =        57.33058588
  PAW double counting   =       263.24425709     -267.41394137
  entropy T*S    EENTRO =         0.00004207
  eigenvalues    EBANDS =       -69.74535194
  atomic energy  EATOM  =       581.96510429
  ---------------------------------------------------
  free energy    TOTEN  =       -35.88116162 eV

  energy without entropy =      -35.88120369  energy(sigma->0) =      -35.88117564


--------------------------------------------------------------------------------------------------------




----------------------------------------- Iteration    1(  10)  ---------------------------------------


    POTLOK:  cpu time    0.11: real time    0.11
    SETDIJ:  cpu time    0.04: real time    0.04
     EDDAV:  cpu time    4.24: real time    4.25
       DOS:  cpu time    0.01: real time    0.01
    CHARGE:  cpu time    0.28: real time    0.28
    MIXING:  cpu time    0.00: real time    0.00
    --------------------------------------------
      LOOP:  cpu time    4.70: real time    4.72

 eigenvalue-minimisations  :  5658
 total energy-change (2. order) : 0.4509861E-03  (-0.1044931E-03)
 number of electron      15.9999987 magnetization       0.0061247
 augmentation part        0.2303310 magnetization       0.0059068

 Broyden mixing:
  rms(total) = 0.10121E-01    rms(broyden)= 0.10114E-01
  rms(prec ) = 0.12832E-01
  weight for this iteration     100.00

 eigenvalues of (default mixing * dielectric matrix)
  average eigenvalue GAMMA=   1.2458
  2.4121  1.4159  0.9294  0.8140  0.6575

 Free energy of the ion-electron system (eV)
  ---------------------------------------------------
  alpha Z        PSCENC =        37.04766603
  Ewald energy   TEWEN  =      -460.60042082
  -1/2 Hartree   DENC   =      -177.88027183
  -exchange  EXHF       =         0.00000000
  -V(xc)+E(xc)   XCENC  =        57.34687482
  PAW double counting   =       264.58296481     -268.73020857
  entropy T*S    EENTRO =         0.00004326
  eigenvalues    EBANDS =       -69.61246261
  atomic energy  EATOM  =       581.96510429
  ---------------------------------------------------
  free energy    TOTEN  =       -35.88071063 eV

  energy without entropy =      -35.88075389  energy(sigma->0) =      -35.88072505


--------------------------------------------------------------------------------------------------------




----------------------------------------- Iteration    1(  11)  ---------------------------------------


    POTLOK:  cpu time    0.11: real time    0.11
    SETDIJ:  cpu time    0.04: real time    0.04
     EDDAV:  cpu time    4.10: real time    4.10
       DOS:  cpu time    0.02: real time    0.02
    --------------------------------------------
      LOOP:  cpu time    4.27: real time    4.28

 eigenvalue-minimisations  :  5412
 total energy-change (2. order) :-0.4938022E-04  (-0.3892802E-04)
 number of electron      15.9999987 magnetization       0.0061247
 augmentation part        0.2303310 magnetization       0.0059068

 Free energy of the ion-electron system (eV)
  ---------------------------------------------------
  alpha Z        PSCENC =        37.04766603
  Ewald energy   TEWEN  =      -460.60042082
  -1/2 Hartree   DENC   =      -177.85318737
  -exchange  EXHF       =         0.00000000
  -V(xc)+E(xc)   XCENC  =        57.34698882
  PAW double counting   =       264.61261733     -268.75132934
  entropy T*S    EENTRO =         0.00004292
  eigenvalues    EBANDS =       -69.64824187
  atomic energy  EATOM  =       581.96510429
  ---------------------------------------------------
  free energy    TOTEN  =       -35.88076001 eV

  energy without entropy =      -35.88080293  energy(sigma->0) =      -35.88077432


--------------------------------------------------------------------------------------------------------




 average (electrostatic) potential at core
  the test charge radii are     0.6991
  (the norm of the test charge is              1.0000)
       1 -52.0229       2 -52.0572       3 -52.0572       4 -52.0229
 
 
 
 E-fermi :   4.5746     XC(G=0): -10.3464     alpha+bet :-11.4114


 spin component 1

 k-point   1 :       0.0000    0.0000    0.0000
  band No.  band energies     occupation 
      1     -15.3219      1.00000
      2     -15.0430      1.00000
      3      -3.8109      1.00000
      4      -1.6181      1.00000
      5       2.2409      1.00000
      6       2.2412      1.00000
      7       2.3212      1.00000
      8       2.3215      1.00000
      9       9.0758      0.00000
     10      13.5609      0.00000
     11      13.5612      0.00000
     12      13.7722      0.00000
     13      13.7725      0.00000
     14      15.6432      0.00000

 k-point   2 :       0.1000    0.0000    0.0000
  band No.  band energies     occupation 
      1     -15.0788      1.00000
      2     -14.8049      1.00000
      3      -3.5022      1.00000
      4      -1.2814      1.00000
      5       1.2230      1.00000
      6       1.3398      1.00000
      7       1.7611      1.00000
      8       1.8645      1.00000
      9       9.3771      0.00000
     10      13.5411      0.00000
     11      13.7941      0.00000
     12      14.6065      0.00000
     13      14.8535      0.00000
     14      15.8971      0.00000

 k-point   3 :       0.2000    0.0000    0.0000
  band No.  band energies     occupation 
      1     -14.3544      1.00000
      2     -14.0942      1.00000
      3      -2.5439      1.00000
      4      -1.2056      1.00000
      5      -1.0204      1.00000
      6      -0.4574      1.00000
      7       0.7826      1.00000
      8       0.9155      1.00000
      9      10.2719      0.00000
     10      13.2077      0.00000
     11      13.4024      0.00000
     12      13.9785      0.00000
     13      14.3947      0.00000
     14      16.6962      0.00000

 k-point   4 :       0.3000    0.0000    0.0000
  band No.  band energies     occupation 
      1     -13.1847      1.00000
      2     -12.9286      1.00000
      3      -4.2036      1.00000
      4      -3.9416      1.00000
      5      -1.1426      1.00000
      6      -0.4241      1.00000
      7      -0.2857      1.00000
      8       0.6953      1.00000
      9      10.7480      0.00000
     10      11.6013      0.00000
     11      11.7251      0.00000
     12      12.4780      0.00000
     13      12.7564      0.00000
     14      17.6772      0.00000

 k-point   5 :       0.4000    0.0000    0.0000
  band No.  band energies     occupation 
      1     -11.5657      1.00000
      2     -11.3351      1.00000
      3      -6.8252      1.00000
      4      -6.6329      1.00000
      5      -1.1580      1.00000
      6      -1.0991      1.00000
      7       0.6908      1.00000
      8       2.2253      1.00000
      9       7.8512      0.00000
     10       8.9142      0.00000
     11      11.9994      0.00000
     12      12.3330      0.00000
     13      13.8016      0.00000
     14      18.8182      0.00000

 k-point   6 :       0.5000    0.0000    0.0000
  band No.  band energies     occupation 
      1      -9.9566      1.00000
      2      -9.8697      1.00000
      3      -8.6563      1.00000
      4      -8.5942      1.00000
      5      -1.4070      1.00000
      6      -1.1588      1.00000
      7       2.1430      1.00000
      8       2.9085      1.00000
      9       6.5383      0.00000
     10       7.2997      0.00000
     11      11.8151      0.00000
     12      12.2322      0.00000
     13      16.2775      0.00000
     14      16.4519      0.00000

 k-point   7 :       0.1000    0.1000    0.0000
  band No.  band energies     occupation 
      1     -14.5965      1.00000
      2     -14.3305      1.00000
      3      -2.8817      1.00000
      4      -0.7565      1.00000
      5      -0.1847      1.00000
      6      -0.1704      1.00000
      7       0.8056      1.00000
      8       0.8497      1.00000
      9       9.9735      0.00000
     10      14.0970      0.00000
     11      14.2324      0.00000
     12      14.5430      0.00000
     13      15.0246      0.00000
     14      15.4046      0.00000

 k-point   8 :       0.2000    0.1000    0.0000
  band No.  band energies     occupation 
      1     -13.6486      1.00000
      2     -13.3905      1.00000
      3      -2.6705      1.00000
      4      -2.5939      1.00000
      5      -1.6960      1.00000
      6      -0.5543      1.00000
      7      -0.4974      1.00000
      8       0.2658      1.00000
      9      11.1570      0.00000
     10      12.0847      0.00000
     11      12.6688      0.00000
     12      13.9081      0.00000
     13      14.1939      0.00000
     14      17.3165      0.00000

 k-point   9 :       0.3000    0.1000    0.0000
  band No.  band energies     occupation 
      1     -12.2481      1.00000
      2     -12.0087      1.00000
      3      -5.4845      1.00000
      4      -5.2371      1.00000
      5      -1.5609      1.00000
      6      -1.4955      1.00000
      7      -0.0523      1.00000
      8       1.6678      1.00000
      9       9.1868      0.00000
     10      10.0289      0.00000
     11      12.9021      0.00000
     12      13.3759      0.00000
     13      13.7164      0.00000
     14      17.9478      0.00000

 k-point  10 :       0.4000    0.1000    0.0000
  band No.  band energies     occupation 
      1     -10.4687      1.00000
      2     -10.2685      1.00000
      3      -7.8754      1.00000
      4      -7.7076      1.00000
      5      -2.0694      1.00000
      6      -2.0454      1.00000
      7       1.8389      1.00000
      8       3.0302      1.00000
      9       6.8719      0.00000
     10       7.6869      0.00000
     11      13.0159      0.00000
     12      13.4010      0.00000
     13      15.2113      0.00000
     14      17.8168      0.00000

 k-point  11 :       0.2000    0.2000    0.0000
  band No.  band energies     occupation 
      1     -12.4758      1.00000
      2     -12.2366      1.00000
      3      -4.3291      1.00000
      4      -4.2079      1.00000
      5      -2.4741      1.00000
      6      -2.4248      1.00000
      7      -0.2597      1.00000
      8       1.5575      1.00000
      9       9.9769      0.00000
     10      10.5328      0.00000
     11      12.6245      0.00000
     12      15.9146      0.00000
     13      16.1914      0.00000
     14      17.1173      0.00000

 k-point  12 :       0.3000    0.2000    0.0000
  band No.  band energies     occupation 
      1     -10.8795      1.00000
      2     -10.6655      1.00000
      3      -6.4226      1.00000
      4      -6.3129      1.00000
      5      -3.6589      1.00000
      6      -3.6188      1.00000
      7       1.5527      1.00000
      8       3.0494      1.00000
      9       7.5069      0.00000
     10       8.2570      0.00000
     11      14.6246      0.00000
     12      15.7916      0.00000
     13      16.3916      0.00000
     14      17.2215      0.00000

 k-point  13 :       0.4000    0.2000    0.0000
  band No.  band energies     occupation 
      1      -9.3275      1.00000
      2      -9.2209      1.00000
      3      -8.1072      1.00000
      4      -8.0575      1.00000
      5      -4.0132      1.00000
      6      -3.9309      1.00000
      7       3.0805      1.00000
      8       3.7998      1.00000
      9       6.4692      0.00000
     10       6.5563      0.00000
     11      15.6835      0.00000
     12      16.2108      0.00000
     13      16.8620      0.00000
     14      17.0582      0.00000

 k-point  14 :       0.3000    0.3000    0.0000
  band No.  band energies     occupation 
      1      -9.1922      1.00000
      2      -9.0131      1.00000
      3      -7.3816      1.00000
      4      -7.2940      1.00000
      5      -5.3048      1.00000
      6      -5.2258      1.00000
      7       3.4350      1.00000
      8       4.4742      1.00782
      9       5.8296      0.00000
     10       6.5809      0.00000
     11      16.2809      0.00000
     12      16.2954      0.00000
     13      16.6562      0.00000
     14      17.8394      0.00000

 k-point  15 :       0.0000    0.0000    0.1000
  band No.  band energies     occupation 
      1     -15.3154      1.00000
      2     -15.0503      1.00000
      3      -3.7553      1.00000
      4      -1.6251      1.00000
      5       2.2551      1.00000
      6       2.2554      1.00000
      7       2.3598      1.00000
      8       2.3601      1.00000
      9       9.2120      0.00000
     10      13.5682      0.00000
     11      13.5685      0.00000
     12      13.7868      0.00000
     13      13.7871      0.00000
     14      15.3934      0.00000

 k-point  16 :       0.1000    0.0000    0.1000
  band No.  band energies     occupation 
      1     -15.0728      1.00000
      2     -14.8122      1.00000
      3      -3.4685      1.00000
      4      -1.3749      1.00000
      5       1.2518      1.00000
      6       1.3052      1.00000
      7       1.7575      1.00000
      8       1.8486      1.00000
      9       9.5067      0.00000
     10      13.5391      0.00000
     11      13.7685      0.00000
     12      14.6045      0.00000
     13      14.8318      0.00000
     14      15.6132      0.00000

 k-point  17 :       0.2000    0.0000    0.1000
  band No.  band energies     occupation 
      1     -14.3522      1.00000
      2     -14.0997      1.00000
      3      -2.5077      1.00000
      4      -1.1006      1.00000
      5      -1.0427      1.00000
      6      -0.5771      1.00000
      7       0.7676      1.00000
      8       0.8464      1.00000
      9      10.3934      0.00000
     10      13.1959      0.00000
     11      13.3937      0.00000
     12      13.9834      0.00000
     13      14.3573      0.00000
     14      16.4316      0.00000

 k-point  18 :       0.3000    0.0000    0.1000
  band No.  band energies     occupation 
      1     -13.1778      1.00000
      2     -12.9345      1.00000
      3      -4.2002      1.00000
      4      -3.9415      1.00000
      5      -1.1026      1.00000
      6      -0.4182      1.00000
      7      -0.2588      1.00000
      8       0.6513      1.00000
      9      10.8272      0.00000
     10      11.5757      0.00000
     11      11.8501      0.00000
     12      12.4873      0.00000
     13      12.7573      0.00000
     14      17.4623      0.00000

 k-point  19 :       0.4000    0.0000    0.1000
  band No.  band energies     occupation 
      1     -11.5545      1.00000
      2     -11.3413      1.00000
      3      -6.8185      1.00000
      4      -6.6782      1.00000
      5      -1.1578      1.00000
      6      -1.0994      1.00000
      7       0.7228      1.00000
      8       2.2260      1.00000
      9       7.8459      0.00000
     10       8.8801      0.00000
     11      12.0006      0.00000
     12      12.3505      0.00000
     13      13.9235      0.00000
     14      18.6200      0.00000

 k-point  20 :       0.5000    0.0000    0.1000
  band No.  band energies     occupation 
      1      -9.9535      1.00000
      2      -9.8718      1.00000
      3      -8.6547      1.00000
      4      -8.5966      1.00000
      5      -1.4047      1.00000
      6      -1.1595      1.00000
      7       2.1669      1.00000
      8       2.9019      1.00000
      9       6.5325      0.00000
     10       7.2625      0.00000
     11      11.8241      0.00000
     12      12.2239      0.00000
     13      16.3800      0.00000
     14      16.5258      0.00000

 k-point  21 :       0.1000    0.1000    0.1000
  band No.  band energies     occupation 
      1     -14.5912      1.00000
      2     -14.3370      1.00000
      3      -2.8351      1.00000
      4      -0.8224      1.00000
      5      -0.1758      1.00000
      6      -0.1486      1.00000
      7       0.8172      1.00000
      8       0.8736      1.00000
      9      10.1005      0.00000
     10      14.0946      0.00000
     11      14.2165      0.00000
     12      14.7679      0.00000
     13      15.1031      0.00000
     14      15.4080      0.00000

 k-point  22 :       0.2000    0.1000    0.1000
  band No.  band energies     occupation 
      1     -13.6450      1.00000
      2     -13.3982      1.00000
      3      -2.7121      1.00000
      4      -2.6074      1.00000
      5      -1.6577      1.00000
      6      -0.5436      1.00000
      7      -0.5017      1.00000
      8       0.1771      1.00000
      9      11.2715      0.00000
     10      12.0831      0.00000
     11      12.6722      0.00000
     12      13.9097      0.00000
     13      14.1773      0.00000
     14      16.9149      0.00000

 k-point  23 :       0.3000    0.1000    0.1000
  band No.  band energies     occupation 
      1     -12.2423      1.00000
      2     -12.0145      1.00000
      3      -5.4756      1.00000
      4      -5.2381      1.00000
      5      -1.5484      1.00000
      6      -1.4572      1.00000
      7       0.0083      1.00000
      8       1.6222      1.00000
      9       9.2081      0.00000
     10      10.0101      0.00000
     11      13.0077      0.00000
     12      13.3867      0.00000
     13      13.7156      0.00000
     14      17.8035      0.00000

 k-point  24 :       0.4000    0.1000    0.1000
  band No.  band energies     occupation 
      1     -10.4590      1.00000
      2     -10.2760      1.00000
      3      -7.8695      1.00000
      4      -7.6877      1.00000
      5      -2.0556      1.00000
      6      -2.0238      1.00000
      7       1.8902      1.00000
      8       3.0224      1.00000
      9       6.8471      0.00000
     10       7.6569      0.00000
     11      13.0336      0.00000
     12      13.4139      0.00000
     13      15.3082      0.00000
     14      17.8069      0.00000

 k-point  25 :       0.2000    0.2000    0.1000
  band No.  band energies     occupation 
      1     -12.4727      1.00000
      2     -12.2422      1.00000
      3      -4.3208      1.00000
      4      -4.1999      1.00000
      5      -2.4570      1.00000
      6      -2.3821      1.00000
      7      -0.2284      1.00000
      8       1.4168      1.00000
      9       9.9122      0.00000
     10      10.4913      0.00000
     11      12.7295      0.00000
     12      15.9156      0.00000
     13      16.1892      0.00000
     14      17.1296      0.00000

 k-point  26 :       0.3000    0.2000    0.1000
  band No.  band energies     occupation 
      1     -10.8721      1.00000
      2     -10.6707      1.00000
      3      -6.4176      1.00000
      4      -6.3101      1.00000
      5      -3.6384      1.00000
      6      -3.6044      1.00000
      7       1.5904      1.00000
      8       3.0587      1.00000
      9       7.5572      0.00000
     10       8.2713      0.00000
     11      14.6939      0.00000
     12      15.8250      0.00000
     13      16.3875      0.00000
     14      17.1271      0.00000

 k-point  27 :       0.4000    0.2000    0.1000
  band No.  band energies     occupation 
      1      -9.3240      1.00000
      2      -9.2190      1.00000
      3      -8.1159      1.00000
      4      -8.0435      1.00000
      5      -3.9988      1.00000
      6      -3.9159      1.00000
      7       3.1195      1.00000
      8       3.7838      1.00000
      9       6.4494      0.00000
     10       6.5824      0.00000
     11      15.6907      0.00000
     12      16.1537      0.00000
     13      16.6127      0.00000
     14      16.7892      0.00000

 k-point  28 :       0.3000    0.3000    0.1000
  band No.  band energies     occupation 
      1      -9.1869      1.00000
      2      -9.0243      1.00000
      3      -7.3795      1.00000
      4      -7.2858      1.00000
      5      -5.3071      1.00000
      6      -5.2278      1.00000
      7       3.4577      1.00000
      8       4.5325      1.00004
      9       5.8272      0.00000
     10       6.4940      0.00000
     11      16.0069      0.00000
     12      16.1470      0.00000
     13      16.9752      0.00000
     14      17.9961      0.00000

 k-point  29 :       0.0000    0.0000    0.2000
  band No.  band energies     occupation 
      1     -15.2963      1.00000
      2     -15.0714      1.00000
      3      -3.6362      1.00000
      4      -1.8039      1.00000
      5       2.2572      1.00000
      6       2.2575      1.00000
      7       2.3564      1.00000
      8       2.3567      1.00000
      9       9.5969      0.00000
     10      13.5732      0.00000
     11      13.5734      0.00000
     12      13.7840      0.00000
     13      13.7842      0.00000
     14      14.6868      0.00000

 k-point  30 :       0.1000    0.0000    0.2000
  band No.  band energies     occupation 
      1     -15.0539      1.00000
      2     -14.8331      1.00000
      3      -3.3425      1.00000
      4      -1.5225      1.00000
      5       1.2553      1.00000
      6       1.3129      1.00000
      7       1.7662      1.00000
      8       1.8707      1.00000
      9       9.8906      0.00000
     10      13.5443      0.00000
     11      13.7643      0.00000
     12      14.6107      0.00000
     13      14.8306      0.00000
     14      14.9384      0.00000

 k-point  31 :       0.2000    0.0000    0.2000
  band No.  band energies     occupation 
      1     -14.3354      1.00000
      2     -14.1206      1.00000
      3      -2.4346      1.00000
      4      -1.0980      1.00000
      5      -1.0762      1.00000
      6      -0.7544      1.00000
      7       0.7707      1.00000
      8       0.8120      1.00000
      9      10.7532      0.00000
     10      13.1448      0.00000
     11      13.3536      0.00000
     12      13.8949      0.00000
     13      14.4007      0.00000
     14      15.7524      0.00000

 k-point  32 :       0.3000    0.0000    0.2000
  band No.  band energies     occupation 
      1     -13.1541      1.00000
      2     -12.9506      1.00000
      3      -4.1103      1.00000
      4      -3.9453      1.00000
      5      -0.9896      1.00000
      6      -0.4118      1.00000
      7      -0.2514      1.00000
      8       0.5694      1.00000
      9      10.8683      0.00000
     10      11.5244      0.00000
     11      12.1846      0.00000
     12      12.5268      0.00000
     13      12.7865      0.00000
     14      16.8933      0.00000

 k-point  33 :       0.4000    0.0000    0.2000
  band No.  band energies     occupation 
      1     -11.5381      1.00000
      2     -11.3552      1.00000
      3      -6.8071      1.00000
      4      -6.6913      1.00000
      5      -1.0974      1.00000
      6      -1.0365      1.00000
      7       0.8248      1.00000
      8       2.1252      1.00000
      9       7.9262      0.00000
     10       8.7725      0.00000
     11      12.0266      0.00000
     12      12.3255      0.00000
     13      14.2489      0.00000
     14      18.1914      0.00000

 k-point  34 :       0.5000    0.0000    0.2000
  band No.  band energies     occupation 
      1      -9.9447      1.00000
      2      -9.8690      1.00000
      3      -8.6498      1.00000
      4      -8.6030      1.00000
      5      -1.3981      1.00000
      6      -1.1615      1.00000
      7       2.2386      1.00000
      8       2.8807      1.00000
      9       6.5974      0.00000
     10       7.1601      0.00000
     11      11.8630      0.00000
     12      12.1992      0.00000
     13      16.6802      0.00000
     14      16.7428      0.00000

 k-point  35 :       0.1000    0.1000    0.2000
  band No.  band energies     occupation 
      1     -14.5732      1.00000
      2     -14.3576      1.00000
      3      -2.7023      1.00000
      4      -1.0127      1.00000
      5      -0.1770      1.00000
      6      -0.1713      1.00000
      7       0.8242      1.00000
      8       0.8679      1.00000
      9      10.4688      0.00000
     10      14.0405      0.00000
     11      14.1871      0.00000
     12      14.6912      0.00000
     13      15.0440      0.00000
     14      15.4832      0.00000

 k-point  36 :       0.2000    0.1000    0.2000
  band No.  band energies     occupation 
      1     -13.6250      1.00000
      2     -13.4176      1.00000
      3      -2.7079      1.00000
      4      -2.6090      1.00000
      5      -1.5408      1.00000
      6      -0.5334      1.00000
      7      -0.4796      1.00000
      8       0.0525      1.00000
      9      11.6008      0.00000
     10      12.1518      0.00000
     11      12.6347      0.00000
     12      13.9344      0.00000
     13      14.1674      0.00000
     14      16.3333      0.00000

 k-point  37 :       0.3000    0.1000    0.2000
  band No.  band energies     occupation 
      1     -12.2213      1.00000
      2     -12.0319      1.00000
      3      -5.4648      1.00000
      4      -5.2813      1.00000
      5      -1.5738      1.00000
      6      -1.4462      1.00000
      7       0.1102      1.00000
      8       1.5375      1.00000
      9       9.2206      0.00000
     10       9.9692      0.00000
     11      13.2953      0.00000
     12      13.4122      0.00000
     13      13.7327      0.00000
     14      17.3617      0.00000

 k-point  38 :       0.4000    0.1000    0.2000
  band No.  band energies     occupation 
      1     -10.4466      1.00000
      2     -10.2924      1.00000
      3      -7.8585      1.00000
      4      -7.7003      1.00000
      5      -2.0914      1.00000
      6      -2.0147      1.00000
      7       1.9753      1.00000
      8       2.9543      1.00000
      9       6.8792      0.00000
     10       7.6135      0.00000
     11      13.0479      0.00000
     12      13.3858      0.00000
     13      15.5646      0.00000
     14      17.7635      0.00000

 k-point  39 :       0.2000    0.2000    0.2000
  band No.  band energies     occupation 
      1     -12.4531      1.00000
      2     -12.2595      1.00000
      3      -4.3147      1.00000
      4      -4.2046      1.00000
      5      -2.4533      1.00000
      6      -2.3801      1.00000
      7      -0.1200      1.00000
      8       1.2942      1.00000
      9       9.9522      0.00000
     10      10.4519      0.00000
     11      13.0455      0.00000
     12      15.9218      0.00000
     13      16.2299      0.00000
     14      16.9125      0.00000

 k-point  40 :       0.3000    0.2000    0.2000
  band No.  band energies     occupation 
      1     -10.8597      1.00000
      2     -10.6874      1.00000
      3      -6.4065      1.00000
      4      -6.3249      1.00000
      5      -3.6263      1.00000
      6      -3.5969      1.00000
      7       1.6815      1.00000
      8       2.8916      1.00000
      9       7.5487      0.00000
     10       8.1923      0.00000
     11      14.8753      0.00000
     12      15.8461      0.00000
     13      16.3414      0.00000
     14      16.9035      0.00000

 k-point  41 :       0.4000    0.2000    0.2000
  band No.  band energies     occupation 
      1      -9.3155      1.00000
      2      -9.2162      1.00000
      3      -8.1141      1.00000
      4      -8.0496      1.00000
      5      -4.0059      1.00000
      6      -3.9056      1.00000
      7       3.1921      1.00000
      8       3.7659      1.00000
      9       6.4992      0.00000
     10       6.5387      0.00000
     11      15.7007      0.00000
     12      15.9995      0.00000
     13      16.3963      0.00000
     14      16.6914      0.00000

 k-point  42 :       0.3000    0.3000    0.2000
  band No.  band energies     occupation 
      1      -9.1756      1.00000
      2      -9.0261      1.00000
      3      -7.3733      1.00000
      4      -7.2976      1.00000
      5      -5.2867      1.00000
      6      -5.2441      1.00000
      7       3.5711      1.00000
      8       4.4374      1.00036
      9       5.8324      0.00000
     10       6.4651      0.00000
     11      15.6562      0.00000
     12      15.8587      0.00000
     13      17.4364      0.00000
     14      18.3040      0.00000

 k-point  43 :       0.0000    0.0000    0.3000
  band No.  band energies     occupation 
      1     -15.2664      1.00000
      2     -15.1040      1.00000
      3      -3.4446      1.00000
      4      -2.1314      1.00000
      5       2.2616      1.00000
      6       2.2619      1.00000
      7       2.3543      1.00000
      8       2.3546      1.00000
      9      10.1978      0.00000
     10      13.5815      0.00000
     11      13.5818      0.00000
     12      13.7652      0.00000
     13      13.7811      0.00000
     14      13.7813      0.00000

 k-point  44 :       0.1000    0.0000    0.3000
  band No.  band energies     occupation 
      1     -15.0274      1.00000
      2     -14.8651      1.00000
      3      -3.1095      1.00000
      4      -1.9040      1.00000
      5       1.2700      1.00000
      6       1.2978      1.00000
      7       1.8178      1.00000
      8       1.8380      1.00000
      9      10.4703      0.00000
     10      13.5972      0.00000
     11      13.7079      0.00000
     12      14.1129      0.00000
[...]
      3      -4.3212      1.00000
      4      -4.2909      1.00000
      5      -2.4338      1.00000
      6      -2.4202      1.00000
      7       0.2456      1.00000
      8       0.7968      1.00000
      9      10.2154      0.00000
     10      10.3945      0.00000
     11      14.1288      0.00000
     12      15.4565      0.00000
     13      16.2462      0.00000
     14      16.2545      0.00000

 k-point  68 :       0.3000    0.2000    0.4000
  band No.  band energies     occupation 
      1     -10.8099      1.00000
      2     -10.7399      1.00000
      3      -6.3447      1.00000
      4      -6.3313      1.00000
      5      -3.5862      1.00000
      6      -3.5666      1.00000
      7       2.0187      1.00000
      8       2.4323      1.00000
      9       7.7621      0.00000
     10       8.0107      0.00000
     11      15.4092      0.00000
     12      15.8150      0.00000
     13      16.2957      0.00000
     14      16.4686      0.00000

 k-point  69 :       0.4000    0.2000    0.4000
  band No.  band energies     occupation 
      1      -9.2852      1.00000
      2      -9.2522      1.00000
      3      -8.0976      1.00000
      4      -8.0789      1.00000
      5      -3.9451      1.00000
      6      -3.9164      1.00000
      7       3.3452      1.00000
      8       3.6376      1.00000
      9       6.3923      0.00000
     10       6.4069      0.00000
     11      15.6278      0.00000
     12      15.6827      0.00000
     13      16.3907      0.00000
     14      16.4775      0.00000

 k-point  70 :       0.3000    0.3000    0.4000
  band No.  band energies     occupation 
      1      -9.1302      1.00000
      2      -9.0778      1.00000
      3      -7.3396      1.00000
      4      -7.3128      1.00000
      5      -5.2392      1.00000
      6      -5.2268      1.00000
      7       3.8151      1.00000
      8       4.2299      1.00000
      9       5.9943      0.00000
     10       6.2766      0.00000
     11      15.2701      0.00000
     12      15.3667      0.00000
     13      18.4678      0.00000
     14      19.2695      0.00000

 k-point  71 :       0.0000    0.0000    0.5000
  band No.  band energies     occupation 
      1     -15.1831      1.00000
      2     -15.1831      1.00000
      3      -2.7458      1.00000
      4      -2.7458      1.00000
      5       2.3867      1.00000
      6       2.3867      1.00000
      7       2.3870      1.00000
      8       2.3870      1.00000
      9      11.8848      0.00000
     10      11.8848      0.00000
     11      13.7785      0.00000
     12      13.7785      0.00000
     13      13.7787      0.00000
     14      13.7787      0.00000

 k-point  72 :       0.1000    0.0000    0.5000
  band No.  band energies     occupation 
      1     -14.9460      1.00000
      2     -14.9460      1.00000
      3      -2.5184      1.00000
      4      -2.5184      1.00000
      5       1.2784      1.00000
      6       1.2784      1.00000
      7       1.8223      1.00000
      8       1.8223      1.00000
      9      12.1132      0.00000
     10      12.1132      0.00000
     11      13.6874      0.00000
     12      13.6874      0.00000
     13      14.7682      0.00000
     14      14.7682      0.00000

 k-point  73 :       0.2000    0.0000    0.5000
  band No.  band energies     occupation 
      1     -14.2287      1.00000
      2     -14.2287      1.00000
      3      -1.6693      1.00000
      4      -1.6693      1.00000
      5      -1.0569      1.00000
      6      -1.0569      1.00000
      7       0.7865      1.00000
      8       0.7865      1.00000
      9      12.8213      0.00000
     10      12.8213      0.00000
     11      13.3139      0.00000
     12      13.3139      0.00000
     13      14.2731      0.00000
     14      14.2731      0.00000

 k-point  74 :       0.3000    0.0000    0.5000
  band No.  band energies     occupation 
      1     -13.0548      1.00000
      2     -13.0548      1.00000
      3      -4.0716      1.00000
      4      -4.0716      1.00000
      5      -0.3104      1.00000
      6      -0.3104      1.00000
      7      -0.3026      1.00000
      8      -0.3026      1.00000
      9      11.1712      0.00000
     10      11.1712      0.00000
     11      12.5881      0.00000
     12      12.5881      0.00000
     13      14.3660      0.00000
     14      14.3660      0.00000

 k-point  75 :       0.4000    0.0000    0.5000
  band No.  band energies     occupation 
      1     -11.4437      1.00000
      2     -11.4437      1.00000
      3      -6.7675      1.00000
      4      -6.7675      1.00000
      5      -1.0098      1.00000
      6      -1.0098      1.00000
      7       1.4612      1.00000
      8       1.4612      1.00000
      9       8.3127      0.00000
     10       8.3127      0.00000
     11      12.1863      0.00000
     12      12.1863      0.00000
     13      16.1687      0.00000
     14      16.1687      0.00000

 k-point  76 :       0.5000    0.0000    0.5000
  band No.  band energies     occupation 
      1      -9.9151      1.00000
      2      -9.9151      1.00000
      3      -8.6659      1.00000
      4      -8.6659      1.00000
      5      -1.3455      1.00000
      6      -1.3455      1.00000
      7       2.5160      1.00000
      8       2.5160      1.00000
      9       6.7338      0.00000
     10       6.7338      0.00000
     11      12.0025      0.00000
     12      12.0025      0.00000
     13      17.7950      0.00000
     14      17.7950      0.00000

 k-point  77 :       0.1000    0.1000    0.5000
  band No.  band energies     occupation 
      1     -14.4678      1.00000
      2     -14.4678      1.00000
      3      -1.9741      1.00000
      4      -1.9741      1.00000
      5      -0.2181      1.00000
      6      -0.2181      1.00000
      7       0.8696      1.00000
      8       0.8696      1.00000
      9      12.6315      0.00000
     10      12.6315      0.00000
     11      14.1303      0.00000
     12      14.1303      0.00000
     13      15.0178      0.00000
     14      15.0180      0.00000

 k-point  78 :       0.2000    0.1000    0.5000
  band No.  band energies     occupation 
      1     -13.5236      1.00000
      2     -13.5236      1.00000
      3      -2.6662      1.00000
      4      -2.6662      1.00000
      5      -0.8623      1.00000
      6      -0.8623      1.00000
      7      -0.5161      1.00000
      8      -0.5161      1.00000
      9      12.4302      0.00000
     10      12.4302      0.00000
     11      13.6310      0.00000
     12      13.6310      0.00000
     13      14.1543      0.00000
     14      14.1543      0.00000

 k-point  79 :       0.3000    0.1000    0.5000
  band No.  band energies     occupation 
      1     -12.1224      1.00000
      2     -12.1224      1.00000
      3      -5.3368      1.00000
      4      -5.3368      1.00000
      5      -1.4716      1.00000
      6      -1.4716      1.00000
      7       0.7726      1.00000
      8       0.7726      1.00000
      9       9.6409      0.00000
     10       9.6409      0.00000
     11      13.5652      0.00000
     12      13.5652      0.00000
     13      15.2886      0.00000
     14      15.2886      0.00000

 k-point  80 :       0.4000    0.1000    0.5000
  band No.  band energies     occupation 
      1     -10.3714      1.00000
      2     -10.3714      1.00000
      3      -7.7858      1.00000
      4      -7.7858      1.00000
      5      -2.0155      1.00000
      6      -2.0155      1.00000
      7       2.4259      1.00000
      8       2.4259      1.00000
      9       7.2047      0.00000
     10       7.2047      0.00000
     11      13.2350      0.00000
     12      13.2350      0.00000
     13      16.9061      0.00000
     14      16.9061      0.00000

 k-point  81 :       0.2000    0.2000    0.5000
  band No.  band energies     occupation 
      1     -12.3605      1.00000
      2     -12.3605      1.00000
      3      -4.3184      1.00000
      4      -4.3184      1.00000
      5      -2.4323      1.00000
      6      -2.4323      1.00000
      7       0.4943      1.00000
      8       0.4943      1.00000
      9      10.2213      0.00000
     10      10.2213      0.00000
     11      14.7939      0.00000
     12      14.7939      0.00000
     13      16.2115      0.00000
     14      16.2115      0.00000

 k-point  82 :       0.3000    0.2000    0.5000
  band No.  band energies     occupation 
      1     -10.7781      1.00000
      2     -10.7781      1.00000
      3      -6.3507      1.00000
      4      -6.3507      1.00000
      5      -3.5838      1.00000
      6      -3.5838      1.00000
      7       2.2270      1.00000
      8       2.2270      1.00000
      9       7.9661      0.00000
     10       7.9661      0.00000
     11      15.6647      0.00000
     12      15.6647      0.00000
     13      16.3366      0.00000
     14      16.3366      0.00000

 k-point  83 :       0.4000    0.2000    0.5000
  band No.  band energies     occupation 
      1      -9.2685      1.00000
      2      -9.2685      1.00000
      3      -8.0900      1.00000
      4      -8.0900      1.00000
      5      -3.9295      1.00000
      6      -3.9295      1.00000
      7       3.4396      1.00000
      8       3.4396      1.00000
      9       6.3968      0.00000
     10       6.3968      0.00000
     11      15.6449      0.00000
     12      15.6449      0.00000
     13      16.4192      0.00000
     14      16.4192      0.00000

 k-point  84 :       0.3000    0.3000    0.5000
  band No.  band energies     occupation 
      1      -9.1044      1.00000
      2      -9.1044      1.00000
      3      -7.3261      1.00000
      4      -7.3261      1.00000
      5      -5.2316      1.00000
      6      -5.2316      1.00000
      7       4.0033      1.00000
      8       4.0033      1.00000
      9       6.2059      0.00000
     10       6.2059      0.00000
     11      15.2649      0.00000
     12      15.2649      0.00000
     13      18.9123      0.00000
     14      18.9124      0.00000


--------------------------------------------------------------------------------------------------------


 soft charge-density along one line, spin component           1
         0         1         2         3         4         5         6         7         8         9
 total charge-density along one line
 
 soft charge-density along one line, spin component           2
         0         1         2         3         4         5         6         7         8         9
 total charge-density along one line
 
 pseudopotential strength for first ion, spin component:           1
  9.772   0.007   0.000   0.000   0.000   0.000   0.000   0.000
  0.007  -0.002   0.000   0.000   0.000   0.000   0.000   0.000
  0.000   0.000  -4.051   0.000   0.000  -0.008   0.000   0.000
  0.000   0.000   0.000  -4.042   0.000   0.000  -0.005   0.000
  0.000   0.000   0.000   0.000  -4.051   0.000   0.000  -0.008
  0.000   0.000  -0.008   0.000   0.000  -0.767   0.000   0.000
  0.000   0.000   0.000  -0.005   0.000   0.000  -0.767   0.000
  0.000   0.000   0.000   0.000  -0.008   0.000   0.000  -0.767
 pseudopotential strength for first ion, spin component:           2
  9.771   0.007   0.000   0.000   0.000   0.000   0.000   0.000
  0.007  -0.002   0.000   0.000   0.000   0.000   0.000   0.000
  0.000   0.000  -4.055   0.000   0.000  -0.006   0.000   0.000
  0.000   0.000   0.000  -4.046   0.000   0.000  -0.003   0.000
  0.000   0.000   0.000   0.000  -4.055   0.000   0.000  -0.006
  0.000   0.000  -0.006   0.000   0.000  -0.767   0.000   0.000
  0.000   0.000   0.000  -0.003   0.000   0.000  -0.767   0.000
  0.000   0.000   0.000   0.000  -0.006   0.000   0.000  -0.767
 total augmentation occupancy for first ion, spin component:           1
  1.526  -0.240   0.000   0.000   0.000   0.000   0.000   0.000
 -0.240   0.379   0.000   0.000   0.000   0.000   0.000   0.000
  0.000   0.000   1.003   0.000   0.000   0.427   0.000   0.000
  0.000   0.000   0.000   0.772   0.000   0.000   0.261   0.000
  0.000   0.000   0.000   0.000   1.003   0.000   0.000   0.427
  0.000   0.000   0.427   0.000   0.000   0.183   0.000   0.000
  0.000   0.000   0.000   0.261   0.000   0.000   0.089   0.000
  0.000   0.000   0.000   0.000   0.427   0.000   0.000   0.183
 total augmentation occupancy for first ion, spin component:           2
  0.000   0.002   0.000   0.000   0.000   0.000   0.000   0.000
  0.002   0.000   0.000   0.000   0.000   0.000   0.000   0.000
  0.000   0.000   0.000   0.000   0.000   0.000   0.000   0.000
  0.000   0.000   0.000   0.000   0.000   0.000   0.000   0.000
  0.000   0.000   0.000   0.000   0.000   0.000   0.000   0.000
  0.000   0.000   0.000   0.000   0.000   0.000   0.000   0.000
  0.000   0.000   0.000   0.000   0.000   0.000   0.000   0.000
  0.000   0.000   0.000   0.000   0.000   0.000   0.000   0.000


------------------------ aborting loop because EDIFF is reached ----------------------------------------


 


 total charge     
 
# of ion     s       p       d       tot
----------------------------------------
  1        0.827   1.789   0.000   2.616
  2        0.829   1.785   0.000   2.613
  3        0.829   1.785   0.000   2.613
  4        0.827   1.789   0.000   2.616
------------------------------------------------
tot        3.312   7.147   0.000  10.459
 


 magnetization (x)
 
# of ion     s       p       d       tot
----------------------------------------
  1        0.000   0.000   0.000   0.000
  2        0.000   0.000   0.000   0.000
  3        0.000   0.000   0.000   0.000
  4        0.000   0.000   0.000   0.000
------------------------------------------------
tot        0.000  -0.001   0.000  -0.001
 
    CHARGE:  cpu time    0.28: real time    0.29
    FORLOC:  cpu time    0.00: real time    0.00
    FORNL :  cpu time    0.42: real time    0.42
    STRESS:  cpu time    0.51: real time    0.51
    FORHAR:  cpu time    0.01: real time    0.01
    MIXING:  cpu time    0.00: real time    0.00

  FORCE on cell =-STRESS in cart. coord.  units (eV):
  Direction    XX          YY          ZZ          XY          YZ          ZX
  --------------------------------------------------------------------------------------
  Alpha Z    37.04767    37.04767    37.04767
  Ewald      78.34827    78.34827  -617.29730     0.00000     0.00000     0.00000
  Hartree   156.93157   156.93157  -136.03555     0.00000     0.00000     0.00000
  E(xc)     -58.21482   -58.21475   -60.39074     0.00005     0.00000     0.00000
  Local    -451.55052  -451.55064   502.57747    -0.00010     0.00000     0.00000
  n-local   -10.06376   -10.80274    -8.64024    -0.68571     0.04203     0.03209
  augment    -0.84849    -0.84843    -0.81651     0.00005     0.00000     0.00000
  Kinetic   229.41655   238.20846   269.22639     6.84687    -0.39605    -0.32668
  Fock        0.00000     0.00000     0.00000     0.00000     0.00000     0.00000
  -------------------------------------------------------------------------------------
  Total     -14.90705   -14.90705   -14.32883     0.00000     0.00000     0.00000
  in kB    -678.72116  -678.72116  -652.39452     0.00000     0.00000     0.00000
  external pressure =     -669.95 kB  Pullay stress =        0.00 kB


 VOLUME and BASIS-vectors are now :
 -----------------------------------------------------------------------------
  energy-cutoff  :      200.00
  volume of cell :       35.19
      direct lattice vectors                 reciprocal lattice vectors
     2.461200000  0.000000000  0.000000000     0.406305867  0.234580802  0.000000000
    -1.230600000  2.131461724  0.000000000     0.000000000  0.469161603  0.000000000
     0.000000000  0.000000000  6.707900000     0.000000000  0.000000000  0.149077953

  length of vectors
     2.461200000  2.461200000  6.707900000     0.469161603  0.469161603  0.149077953


 FORCES acting on ions
    electron-ion (+dipol)            ewald-force                    non-local-force                 convergence-correction
 -----------------------------------------------------------------------------------------------
   -.316E-05 0.183E-05 0.224E-13   0.624E-11 -.358E-11 -.182E-13   0.194E-15 -.555E-16 0.000E+00   -.167E-04 0.962E-05 -.528E-13
   0.313E-05 -.181E-05 -.569E-12   -.624E-11 0.358E-11 -.182E-13   0.250E-15 0.555E-16 0.000E+00   0.140E-04 -.806E-05 -.541E-13
   -.313E-05 0.181E-05 -.492E-12   -.126E-10 0.731E-11 0.182E-13   -.208E-15 -.555E-16 0.000E+00   -.140E-04 0.806E-05 0.661E-13
   0.316E-05 -.183E-05 -.167E-11   0.126E-10 -.731E-11 0.182E-13   -.194E-15 0.555E-16 0.000E+00   0.167E-04 -.962E-05 0.667E-13
 -----------------------------------------------------------------------------------------------
   0.872E-11 -.512E-11 -.271E-11   0.658E-14 -.737E-15 0.316E-29   0.416E-16 0.000E+00 0.000E+00   -.198E-13 0.603E-15 0.259E-13
 
 
 POSITION                                       TOTAL-FORCE (eV/Angst)
 -----------------------------------------------------------------------------------
      0.00000      0.00000      0.00000         0.000000      0.000000      0.000000
      0.00000      1.42097      0.00000         0.000000      0.000000      0.000000
      0.00000      1.42097      3.35395         0.000000      0.000000      0.000000
      1.23060      0.71049      3.35395         0.000000      0.000000      0.000000
 -----------------------------------------------------------------------------------
    total drift:                                0.000000      0.000000      0.000000


--------------------------------------------------------------------------------------------------------



  FREE ENERGIE OF THE ION-ELECTRON SYSTEM (eV)
  ---------------------------------------------------
  free  energy   TOTEN  =       -35.880760 eV

  energy  without entropy=      -35.880803  energy(sigma->0) =      -35.880774
 


--------------------------------------------------------------------------------------------------------


    POTLOK:  cpu time    0.15: real time    0.15


--------------------------------------------------------------------------------------------------------


 writing wavefunctions
     LOOP+:  cpu time   51.08: real time   51.99
    4ORBIT:  cpu time    0.00: real time    0.00
 


 total charge     
 
# of ion     s       p       d       tot
----------------------------------------
  1        0.827   1.789   0.000   2.616
  2        0.829   1.785   0.000   2.613
  3        0.829   1.785   0.000   2.613
  4        0.827   1.789   0.000   2.616
------------------------------------------------
tot        3.312   7.147   0.000  10.459
 


 magnetization (x)
 
# of ion     s       p       d       tot
----------------------------------------
  1        0.000   0.000   0.000   0.000
  2        0.000   0.000   0.000   0.000
  3        0.000   0.000   0.000   0.000
  4        0.000   0.000   0.000   0.000
------------------------------------------------
tot        0.000  -0.001   0.000  -0.001
 

 total amount of memory used by VASP on root node    45775. kBytes
========================================================================

   base      :      30000. kBytes
   nonl-proj :       1283. kBytes
   fftplans  :       1292. kBytes
   grid      :       3091. kBytes
   one-center:         24. kBytes
   wavefun   :      10085. kBytes
 
  
  
 General timing and accounting informations for this job:
 ========================================================
  
                  Total CPU time used (sec):       52.147
                            User time (sec):       51.749
                          System time (sec):        0.398
                         Elapsed time (sec):       53.235
  
                   Maximum memory used (kb):           0.
                   Average memory used (kb):           0.
  
                          Minor page faults:        18346
                          Major page faults:            0
                 Voluntary context switches:         8295
