PROCAR lm decomposed
# of k-points:   84         # of bands:  14         # of ions:   4

 k-point    1 :    0.00000000 0.00000000 0.00000000     weight = 0.00100000

band   1 # energy  -15.32192776 # occ.  1.00000000
 
ion      s     py     pz     px    dxy    dyz    dz2    dxz    dx2    tot
  1  0.152  0.000  0.000  0.000  0.000  0.000  0.000  0.000  0.000  0.152
  2  0.153  0.000  0.000  0.000  0.000  0.000  0.000  0.000  0.000  0.153
  3  0.153  0.000  0.000  0.000  0.000  0.000  0.000  0.000  0.000  0.153
  4  0.152  0.000  0.000  0.000  0.000  0.000  0.000  0.000  0.000  0.152
tot  0.611  0.000  0.000  0.000  0.000  0.000  0.000  0.000  0.000  0.611
 
band   2 # energy  -15.04295571 # occ.  1.00000000
 
ion      s     py     pz     px    dxy    dyz    dz2    dxz    dx2    tot
  1  0.159  0.000  0.000  0.000  0.000  0.000  0.000  0.000  0.000  0.159
  2  0.159  0.000  0.000  0.000  0.000  0.000  0.000  0.000  0.000  0.159
  3  0.159  0.000  0.000  0.000  0.000  0.000  0.000  0.000  0.000  0.159
  4  0.159  0.000  0.000  0.000  0.000  0.000  0.000  0.000  0.000  0.159
tot  0.636  0.000  0.000  0.000  0.000  0.000  0.000  0.000  0.000  0.636
 
band   3 # energy   -3.81085208 # occ.  1.00000000
 
ion      s     py     pz     px    dxy    dyz    dz2    dxz    dx2    tot
  1  0.000  0.000  0.098  0.000  0.000  0.000  0.000  0.000  0.000  0.098
  2  0.000  0.000  0.099  0.000  0.000  0.000  0.000  0.000  0.000  0.099
  3  0.000  0.000  0.099  0.000  0.000  0.000  0.000  0.000  0.000  0.099
  4  0.000  0.000  0.098  0.000  0.000  0.000  0.000  0.000  0.000  0.098
tot  0.000  0.000  0.392  0.000  0.000  0.000  0.000  0.000  0.000  0.392
 
band   4 # energy   -1.61814865 # occ.  1.00000000
 
ion      s     py     pz     px    dxy    dyz    dz2    dxz    dx2    tot
  1  0.000  0.000  0.125  0.000  0.000  0.000  0.000  0.000  0.000  0.125
  2  0.000  0.000  0.124  0.000  0.000  0.000  0.000  0.000  0.000  0.124
  3  0.000  0.000  0.124  0.000  0.000  0.000  0.000  0.000  0.000  0.124
  4  0.000  0.000  0.125  0.000  0.000  0.000  0.000  0.000  0.000  0.125
tot  0.000  0.000  0.499  0.000  0.000  0.000  0.000  0.000  0.000  0.499
 
band   5 # energy    2.24089967 # occ.  1.00000000
 
ion      s     py     pz     px    dxy    dyz    dz2    dxz    dx2    tot
  1  0.000  0.157  0.000  0.052  0.000  0.000  0.000  0.000  0.000  0.209
  2  0.000  0.159  0.000  0.053  0.000  0.000  0.000  0.000  0.000  0.212
  3  0.000  0.159  0.000  0.053  0.000  0.000  0.000  0.000  0.000  0.212
  4  0.000  0.157  0.000  0.052  0.000  0.000  0.000  0.000  0.000  0.209
tot  0.000  0.631  0.000  0.210  0.000  0.000  0.000  0.000  0.000  0.842
 
band   6 # energy    2.24118371 # occ.  1.00000000
 
ion      s     py     pz     px    dxy    dyz    dz2    dxz    dx2    tot
  1  0.000  0.052  0.000  0.157  0.000  0.000  0.000  0.000  0.000  0.209
  2  0.000  0.053  0.000  0.159  0.000  0.000  0.000  0.000  0.000  0.212
  3  0.000  0.053  0.000  0.159  0.000  0.000  0.000  0.000  0.000  0.212
  4  0.000  0.052  0.000  0.157  0.000  0.000  0.000  0.000  0.000  0.209
tot  0.000  0.210  0.000  0.631  0.000  0.000  0.000  0.000  0.000  0.842
 
band   7 # energy    2.32119233 # occ.  1.00000000
 
ion      s     py     pz     px    dxy    dyz    dz2    dxz    dx2    tot
  1  0.000  0.159  0.000  0.053  0.000  0.000  0.000  0.000  0.000  0.211
  2  0.000  0.157  0.000  0.052  0.000  0.000  0.000  0.000  0.000  0.209
  3  0.000  0.157  0.000  0.052  0.000  0.000  0.000  0.000  0.000  0.209
  4  0.000  0.159  0.000  0.053  0.000  0.000  0.000  0.000  0.000  0.211
tot  0.000  0.631  0.000  0.210  0.000  0.000  0.000  0.000  0.000  0.842
 
band   8 # energy    2.32146459 # occ.  1.00000000
 
ion      s     py     pz     px    dxy    dyz    dz2    dxz    dx2    tot
  1  0.000  0.053  0.000  0.159  0.000  0.000  0.000  0.000  0.000  0.211
  2  0.000  0.052  0.000  0.157  0.000  0.000  0.000  0.000  0.000  0.209
  3  0.000  0.052  0.000  0.157  0.000  0.000  0.000  0.000  0.000  0.209
  4  0.000  0.053  0.000  0.159  0.000  0.000  0.000  0.000  0.000  0.211
tot  0.000  0.210  0.000  0.631  0.000  0.000  0.000  0.000  0.000  0.842
 
band   9 # energy    9.07583924 # occ.  0.00000000
 
ion      s     py     pz     px    dxy    dyz    dz2    dxz    dx2    tot
  1  0.019  0.000  0.000  0.000  0.000  0.000  0.000  0.000  0.000  0.019
  2  0.019  0.000  0.000  0.000  0.000  0.000  0.000  0.000  0.000  0.019
  3  0.019  0.000  0.000  0.000  0.000  0.000  0.000  0.000  0.000  0.019
  4  0.019  0.000  0.000  0.000  0.000  0.000  0.000  0.000  0.000  0.019
tot  0.075  0.000  0.000  0.000  0.000  0.000  0.000  0.000  0.000  0.075
 
band  10 # energy   13.56088979 # occ.  0.00000000
 
ion      s     py     pz     px    dxy    dyz    dz2    dxz    dx2    tot
  1  0.000  0.096  0.000  0.032  0.000  0.000  0.000  0.000  0.000  0.128
  2  0.000  0.099  0.000  0.033  0.000  0.000  0.000  0.000  0.000  0.132
  3  0.000  0.099  0.000  0.033  0.000  0.000  0.000  0.000  0.000  0.132
  4  0.000  0.096  0.000  0.032  0.000  0.000  0.000  0.000  0.000  0.128
tot  0.000  0.390  0.000  0.130  0.000  0.000  0.000  0.000  0.000  0.519
 
band  11 # energy   13.56117680 # occ.  0.00000000
 
ion      s     py     pz     px    dxy    dyz    dz2    dxz    dx2    tot
  1  0.000  0.032  0.000  0.096  0.000  0.000  0.000  0.000  0.000  0.128
  2  0.000  0.033  0.000  0.099  0.000  0.000  0.000  0.000  0.000  0.132
  3  0.000  0.033  0.000  0.099  0.000  0.000  0.000  0.000  0.000  0.132
  4  0.000  0.032  0.000  0.096  0.000  0.000  0.000  0.000  0.000  0.128
tot  0.000  0.130  0.000  0.390  0.000  0.000  0.000  0.000  0.000  0.519
 
band  12 # energy   13.77224338 # occ.  0.00000000
 
ion      s     py     pz     px    dxy    dyz    dz2    dxz    dx2    tot
  1  0.000  0.098  0.000  0.033  0.000  0.000  0.000  0.000  0.000  0.131
  2  0.000  0.095  0.000  0.032  0.000  0.000  0.000  0.000  0.000  0.127
  3  0.000  0.095  0.000  0.032  0.000  0.000  0.000  0.000  0.000  0.127
  4  0.000  0.098  0.000  0.033  0.000  0.000  0.000  0.000  0.000  0.131
tot  0.000  0.386  0.000  0.129  0.000  0.000  0.000  0.000  0.000  0.515
 
band  13 # energy   13.77249167 # occ.  0.00000000
 
ion      s     py     pz     px    dxy    dyz    dz2    dxz    dx2    tot
  1  0.000  0.033  0.000  0.098  0.000  0.000  0.000  0.000  0.000  0.131
  2  0.000  0.032  0.000  0.095  0.000  0.000  0.000  0.000  0.000  0.127
  3  0.000  0.032  0.000  0.095  0.000  0.000  0.000  0.000  0.000  0.127
  4  0.000  0.033  0.000  0.098  0.000  0.000  0.000  0.000  0.000  0.131
tot  0.000  0.129  0.000  0.386  0.000  0.000  0.000  0.000  0.000  0.515
 
band  14 # energy   15.64324210 # occ.  0.00000000
 
ion      s     py     pz     px    dxy    dyz    dz2    dxz    dx2    tot
  1  0.000  0.000  0.064  0.000  0.000  0.000  0.000  0.000  0.000  0.064
  2  0.000  0.000  0.086  0.000  0.000  0.000  0.000  0.000  0.000  0.086
  3  0.000  0.000  0.087  0.000  0.000  0.000  0.000  0.000  0.000  0.087
  4  0.000  0.000  0.064  0.000  0.000  0.000  0.000  0.000  0.000  0.064
tot  0.000  0.000  0.301  0.000  0.000  0.000  0.000  0.000  0.000  0.301
 

 k-point    2 :    0.10000000 0.00000000 0.00000000     weight = 0.00600000

band   1 # energy  -15.07875483 # occ.  1.00000000
 
ion      s     py     pz     px    dxy    dyz    dz2    dxz    dx2    tot
  1  0.150  0.001  0.000  0.002  0.000  0.000  0.000  0.000  0.000  0.153
  2  0.151  0.001  0.000  0.002  0.000  0.000  0.000  0.000  0.000  0.153
  3  0.151  0.001  0.000  0.002  0.000  0.000  0.000  0.000  0.000  0.153
  4  0.150  0.001  0.000  0.002  0.000  0.000  0.000  0.000  0.000  0.153
tot  0.602  0.002  0.000  0.007  0.000  0.000  0.000  0.000  0.000  0.612
 
band   2 # energy  -14.80485921 # occ.  1.00000000
 
ion      s     py     pz     px    dxy    dyz    dz2    dxz    dx2    tot
  1  0.157  0.001  0.000  0.002  0.000  0.000  0.000  0.000  0.000  0.159
  2  0.156  0.001  0.000  0.002  0.000  0.000  0.000  0.000  0.000  0.159
  3  0.156  0.001  0.000  0.002  0.000  0.000  0.000  0.000  0.000  0.159
  4  0.157  0.001  0.000  0.002  0.000  0.000  0.000  0.000  0.000  0.159
tot  0.627  0.003  0.000  0.008  0.000  0.000  0.000  0.000  0.000  0.637
 
band   3 # energy   -3.50223864 # occ.  1.00000000
 
ion      s     py     pz     px    dxy    dyz    dz2    dxz    dx2    tot
  1  0.000  0.000  0.099  0.000  0.000  0.000  0.000  0.000  0.000  0.099
  2  0.000  0.000  0.097  0.000  0.000  0.000  0.000  0.000  0.000  0.097
  3  0.000  0.000  0.097  0.000  0.000  0.000  0.000  0.000  0.000  0.097
  4  0.000  0.000  0.099  0.000  0.000  0.000  0.000  0.000  0.000  0.099
tot  0.000  0.000  0.393  0.000  0.000  0.000  0.000  0.000  0.000  0.393
 
band   4 # energy   -1.28144747 # occ.  1.00000000
 
ion      s     py     pz     px    dxy    dyz    dz2    dxz    dx2    tot
  1  0.000  0.000  0.123  0.000  0.000  0.000  0.000  0.000  0.000  0.123
  2  0.000  0.000  0.126  0.000  0.000  0.000  0.000  0.000  0.000  0.126
  3  0.000  0.000  0.126  0.000  0.000  0.000  0.000  0.000  0.000  0.126
  4  0.000  0.000  0.123  0.000  0.000  0.000  0.000  0.000  0.000  0.123
tot  0.000  0.000  0.497  0.000  0.000  0.000  0.000  0.000  0.000  0.497
 
band   5 # energy    1.22296876 # occ.  1.00000000
 
ion      s     py     pz     px    dxy    dyz    dz2    dxz    dx2    tot
  1  0.015  0.047  0.000  0.141  0.000  0.000  0.000  0.000  0.000  0.203
  2  0.015  0.048  0.000  0.144  0.000  0.000  0.000  0.000  0.000  0.207
  3  0.015  0.048  0.000  0.144  0.000  0.000  0.000  0.000  0.000  0.207
  4  0.015  0.047  0.000  0.141  0.000  0.000  0.000  0.000  0.000  0.203
tot  0.061  0.190  0.000  0.570  0.000  0.000  0.000  0.000  0.000  0.821
 
band   6 # energy    1.33979034 # occ.  1.00000000
 
ion      s     py     pz     px    dxy    dyz    dz2    dxz    dx2    tot
  1  0.015  0.048  0.000  0.144  0.000  0.000  0.000  0.000  0.000  0.207
  2  0.014  0.047  0.000  0.142  0.000  0.000  0.000  0.000  0.000  0.203
  3  0.014  0.047  0.000  0.142  0.000  0.000  0.000  0.000  0.000  0.203
  4  0.015  0.048  0.000  0.144  0.000  0.000  0.000  0.000  0.000  0.207
tot  0.058  0.190  0.000  0.571  0.000  0.000  0.000  0.000  0.000  0.819
 
band   7 # energy    1.76114620 # occ.  1.00000000
 
ion      s     py     pz     px    dxy    dyz    dz2    dxz    dx2    tot
  1  0.000  0.154  0.000  0.051  0.000  0.000  0.000  0.000  0.000  0.205
  2  0.000  0.157  0.000  0.052  0.000  0.000  0.000  0.000  0.000  0.209
  3  0.000  0.157  0.000  0.052  0.000  0.000  0.000  0.000  0.000  0.209
  4  0.000  0.154  0.000  0.051  0.000  0.000  0.000  0.000  0.000  0.205
tot  0.000  0.621  0.000  0.207  0.000  0.000  0.000  0.000  0.000  0.829
 
band   8 # energy    1.86453950 # occ.  1.00000000
 
ion      s     py     pz     px    dxy    dyz    dz2    dxz    dx2    tot
  1  0.000  0.156  0.000  0.052  0.000  0.000  0.000  0.000  0.000  0.209
  2  0.000  0.154  0.000  0.051  0.000  0.000  0.000  0.000  0.000  0.206
  3  0.000  0.154  0.000  0.051  0.000  0.000  0.000  0.000  0.000  0.206
  4  0.000  0.156  0.000  0.052  0.000  0.000  0.000  0.000  0.000  0.209
tot  0.000  0.621  0.000  0.207  0.000  0.000  0.000  0.000  0.000  0.828
 
band   9 # energy    9.37705446 # occ.  0.00000000
 
ion      s     py     pz     px    dxy    dyz    dz2    dxz    dx2    tot
  1  0.018  0.000  0.000  0.001  0.000  0.000  0.000  0.000  0.000  0.019
  2  0.018  0.000  0.000  0.001  0.000  0.000  0.000  0.000  0.000  0.019
  3  0.018  0.000  0.000  0.001  0.000  0.000  0.000  0.000  0.000  0.019
  4  0.018  0.000  0.000  0.001  0.000  0.000  0.000  0.000  0.000  0.019
tot  0.072  0.001  0.000  0.003  0.000  0.000  0.000  0.000  0.000  0.076
 
band  10 # energy   13.54106157 # occ.  0.00000000
 
ion      s     py     pz     px    dxy    dyz    dz2    dxz    dx2    tot
  1  0.013  0.027  0.000  0.082  0.000  0.000  0.000  0.000  0.000  0.123
  2  0.012  0.029  0.000  0.086  0.000  0.000  0.000  0.000  0.000  0.127
  3  0.012  0.029  0.000  0.086  0.000  0.000  0.000  0.000  0.000  0.127
  4  0.013  0.027  0.000  0.082  0.000  0.000  0.000  0.000  0.000  0.123
tot  0.051  0.112  0.000  0.336  0.000  0.000  0.000  0.000  0.000  0.500
 
band  11 # energy   13.79411557 # occ.  0.00000000
 
ion      s     py     pz     px    dxy    dyz    dz2    dxz    dx2    tot
  1  0.012  0.029  0.000  0.086  0.000  0.000  0.000  0.000  0.000  0.127
  2  0.014  0.027  0.000  0.081  0.000  0.000  0.000  0.000  0.000  0.122
  3  0.014  0.027  0.000  0.081  0.000  0.000  0.000  0.000  0.000  0.122
  4  0.012  0.029  0.000  0.086  0.000  0.000  0.000  0.000  0.000  0.127
tot  0.052  0.111  0.000  0.333  0.000  0.000  0.000  0.000  0.000  0.497
 
band  12 # energy   14.60645741 # occ.  0.00000000
 
ion      s     py     pz     px    dxy    dyz    dz2    dxz    dx2    tot
  1  0.000  0.099  0.000  0.033  0.000  0.000  0.000  0.000  0.000  0.132
  2  0.000  0.102  0.000  0.034  0.000  0.000  0.000  0.000  0.000  0.136
  3  0.000  0.102  0.000  0.034  0.000  0.000  0.000  0.000  0.000  0.136
  4  0.000  0.099  0.000  0.033  0.000  0.000  0.000  0.000  0.000  0.132
tot  0.000  0.401  0.000  0.134  0.000  0.000  0.000  0.000  0.000  0.535
 
band  13 # energy   14.85349817 # occ.  0.00000000
 
ion      s     py     pz     px    dxy    dyz    dz2    dxz    dx2    tot
  1  0.000  0.101  0.000  0.034  0.000  0.000  0.000  0.000  0.000  0.135
  2  0.000  0.098  0.000  0.033  0.000  0.000  0.000  0.000  0.000  0.130
  3  0.000  0.098  0.000  0.033  0.000  0.000  0.000  0.000  0.000  0.130
  4  0.000  0.101  0.000  0.034  0.000  0.000  0.000  0.000  0.000  0.135
tot  0.000  0.397  0.000  0.132  0.000  0.000  0.000  0.000  0.000  0.530
 
band  14 # energy   15.89711274 # occ.  0.00000000
 
ion      s     py     pz     px    dxy    dyz    dz2    dxz    dx2    tot
  1  0.000  0.000  0.098  0.000  0.000  0.000  0.000  0.000  0.000  0.098
  2  0.000  0.000  0.055  0.000  0.000  0.000  0.000  0.000  0.000  0.055
  3  0.000  0.000  0.058  0.000  0.000  0.000  0.000  0.000  0.000  0.058
  4  0.000  0.000  0.094  0.000  0.000  0.000  0.000  0.000  0.000  0.094
tot  0.000  0.000  0.305  0.000  0.000  0.000  0.000  0.000  0.000  0.305
 

 k-point    3 :    0.20000000 0.00000000 0.00000000     weight = 0.00600000

band   1 # energy  -14.35438530 # occ.  1.00000000
 
ion      s     py     pz     px    dxy    dyz    dz2    dxz    dx2    tot
  1  0.144  0.002  0.000  0.007  0.000  0.000  0.000  0.000  0.000  0.154
  2  0.145  0.002  0.000  0.007  0.000  0.000  0.000  0.000  0.000  0.154
  3  0.145  0.002  0.000  0.007  0.000  0.000  0.000  0.000  0.000  0.154
  4  0.144  0.002  0.000  0.007  0.000  0.000  0.000  0.000  0.000  0.154
tot  0.577  0.010  0.000  0.029  0.000  0.000  0.000  0.000  0.000  0.615
 
band   2 # energy  -14.09419143 # occ.  1.00000000
 
ion      s     py     pz     px    dxy    dyz    dz2    dxz    dx2    tot
  1  0.150  0.002  0.000  0.007  0.000  0.000  0.000  0.000  0.000  0.160
  2  0.150  0.002  0.000  0.007  0.000  0.000  0.000  0.000  0.000  0.160
  3  0.150  0.002  0.000  0.007  0.000  0.000  0.000  0.000  0.000  0.160
  4  0.150  0.002  0.000  0.007  0.000  0.000  0.000  0.000  0.000  0.160
tot  0.602  0.010  0.000  0.030  0.000  0.000  0.000  0.000  0.000  0.642
 
band   3 # energy   -2.54385151 # occ.  1.00000000
 
ion      s     py     pz     px    dxy    dyz    dz2    dxz    dx2    tot
  1  0.000  0.000  0.098  0.000  0.000  0.000  0.000  0.000  0.000  0.098
  2  0.000  0.000  0.098  0.000  0.000  0.000  0.000  0.000  0.000  0.098
  3  0.000  0.000  0.098  0.000  0.000  0.000  0.000  0.000  0.000  0.098
  4  0.000  0.000  0.098  0.000  0.000  0.000  0.000  0.000  0.000  0.098
tot  0.000  0.000  0.393  0.000  0.000  0.000  0.000  0.000  0.000  0.393
 
band   4 # energy   -1.20555217 # occ.  1.00000000
 
ion      s     py     pz     px    dxy    dyz    dz2    dxz    dx2    tot
  1  0.038  0.038  0.000  0.115  0.000  0.000  0.000  0.000  0.000  0.192
  2  0.039  0.038  0.000  0.115  0.000  0.000  0.000  0.000  0.000  0.192
  3  0.039  0.038  0.000  0.115  0.000  0.000  0.000  0.000  0.000  0.192
  4  0.038  0.038  0.000  0.115  0.000  0.000  0.000  0.000  0.000  0.192
tot  0.153  0.154  0.000  0.462  0.000  0.000  0.000  0.000  0.000  0.769
 
band   5 # energy   -1.02044464 # occ.  1.00000000
 
ion      s     py     pz     px    dxy    dyz    dz2    dxz    dx2    tot
  1  0.042  0.039  0.000  0.116  0.000  0.000  0.000  0.000  0.000  0.196
  2  0.041  0.039  0.000  0.116  0.000  0.000  0.000  0.000  0.000  0.196
  3  0.041  0.039  0.000  0.116  0.000  0.000  0.000  0.000  0.000  0.196
  4  0.042  0.039  0.000  0.116  0.000  0.000  0.000  0.000  0.000  0.196
tot  0.165  0.154  0.000  0.463  0.000  0.000  0.000  0.000  0.000  0.783
 
band   6 # energy   -0.45742820 # occ.  1.00000000
 
ion      s     py     pz     px    dxy    dyz    dz2    dxz    dx2    tot
  1  0.000  0.000  0.125  0.000  0.000  0.000  0.000  0.000  0.000  0.125
  2  0.000  0.000  0.125  0.000  0.000  0.000  0.000  0.000  0.000  0.125
  3  0.000  0.000  0.125  0.000  0.000  0.000  0.000  0.000  0.000  0.125
  4  0.000  0.000  0.125  0.000  0.000  0.000  0.000  0.000  0.000  0.125
tot  0.000  0.000  0.501  0.000  0.000  0.000  0.000  0.000  0.000  0.501
 
band   7 # energy    0.78262506 # occ.  1.00000000
 
ion      s     py     pz     px    dxy    dyz    dz2    dxz    dx2    tot
  1  0.000  0.152  0.000  0.051  0.000  0.000  0.000  0.000  0.000  0.203
  2  0.000  0.152  0.000  0.051  0.000  0.000  0.000  0.000  0.000  0.203
  3  0.000  0.152  0.000  0.051  0.000  0.000  0.000  0.000  0.000  0.203
  4  0.000  0.152  0.000  0.051  0.000  0.000  0.000  0.000  0.000  0.203
tot  0.000  0.609  0.000  0.203  0.000  0.000  0.000  0.000  0.000  0.812
 
band   8 # energy    0.91550853 # occ.  1.00000000
 
ion      s     py     pz     px    dxy    dyz    dz2    dxz    dx2    tot
  1  0.000  0.151  0.000  0.050  0.000  0.000  0.000  0.000  0.000  0.201
  2  0.000  0.151  0.000  0.050  0.000  0.000  0.000  0.000  0.000  0.201
  3  0.000  0.151  0.000  0.050  0.000  0.000  0.000  0.000  0.000  0.201
  4  0.000  0.151  0.000  0.050  0.000  0.000  0.000  0.000  0.000  0.201
tot  0.000  0.602  0.000  0.201  0.000  0.000  0.000  0.000  0.000  0.803
 
band   9 # energy   10.27188504 # occ.  0.00000000
 
ion      s     py     pz     px    dxy    dyz    dz2    dxz    dx2    tot
  1  0.015  0.001  0.000  0.003  0.000  0.000  0.000  0.000  0.000  0.019
  2  0.015  0.001  0.000  0.003  0.000  0.000  0.000  0.000  0.000  0.019
  3  0.015  0.001  0.000  0.003  0.000  0.000  0.000  0.000  0.000  0.019
  4  0.015  0.001  0.000  0.003  0.000  0.000  0.000  0.000  0.000  0.019
tot  0.060  0.004  0.000  0.012  0.000  0.000  0.000  0.000  0.000  0.077
 
band  10 # energy   13.20773883 # occ.  0.00000000
 
ion      s     py     pz     px    dxy    dyz    dz2    dxz    dx2    tot
  1  0.042  0.017  0.000  0.050  0.000  0.000  0.000  0.000  0.000  0.108
  2  0.048  0.017  0.000  0.051  0.000  0.000  0.000  0.000  0.000  0.116
  3  0.048  0.017  0.000  0.051  0.000  0.000  0.000  0.000  0.000  0.116
  4  0.042  0.017  0.000  0.050  0.000  0.000  0.000  0.000  0.000  0.108
tot  0.180  0.067  0.000  0.201  0.000  0.000  0.000  0.000  0.000  0.448
 
band  11 # energy   13.40244298 # occ.  0.00000000
 
ion      s     py     pz     px    dxy    dyz    dz2    dxz    dx2    tot
  1  0.050  0.018  0.000  0.053  0.000  0.000  0.000  0.000  0.000  0.121
  2  0.044  0.017  0.000  0.052  0.000  0.000  0.000  0.000  0.000  0.113
  3  0.044  0.017  0.000  0.052  0.000  0.000  0.000  0.000  0.000  0.113
  4  0.050  0.018  0.000  0.053  0.000  0.000  0.000  0.000  0.000  0.121
tot  0.188  0.070  0.000  0.209  0.000  0.000  0.000  0.000  0.000  0.468
 
band  12 # energy   13.97850137 # occ.  0.00000000
 
ion      s     py     pz     px    dxy    dyz    dz2    dxz    dx2    tot
  1  0.000  0.000  0.144  0.000  0.000  0.000  0.000  0.000  0.000  0.144
  2  0.000  0.000  0.161  0.000  0.000  0.000  0.000  0.000  0.000  0.161
  3  0.000  0.000  0.161  0.000  0.000  0.000  0.000  0.000  0.000  0.161
  4  0.000  0.000  0.144  0.000  0.000  0.000  0.000  0.000  0.000  0.144
tot  0.000  0.000  0.609  0.000  0.000  0.000  0.000  0.000  0.000  0.609
 
band  13 # energy   14.39466854 # occ.  0.00000000
 
ion      s     py     pz     px    dxy    dyz    dz2    dxz    dx2    tot
  1  0.000  0.000  0.168  0.000  0.000  0.000  0.000  0.000  0.000  0.168
  2  0.000  0.000  0.160  0.000  0.000  0.000  0.000  0.000  0.000  0.160
  3  0.000  0.000  0.160  0.000  0.000  0.000  0.000  0.000  0.000  0.160
  4  0.000  0.000  0.168  0.000  0.000  0.000  0.000  0.000  0.000  0.168
tot  0.000  0.000  0.655  0.000  0.000  0.000  0.000  0.000  0.000  0.655
 
band  14 # energy   16.69623455 # occ.  0.00000000
 
ion      s     py     pz     px    dxy    dyz    dz2    dxz    dx2    tot
  1  0.000  0.000  0.087  0.000  0.000  0.000  0.000  0.000  0.000  0.087
  2  0.000  0.000  0.069  0.000  0.000  0.000  0.000  0.000  0.000  0.069
  3  0.000  0.000  0.069  0.000  0.000  0.000  0.000  0.000  0.000  0.069
  4  0.000  0.000  0.087  0.000  0.000  0.000  0.000  0.000  0.000  0.087
tot  0.000  0.000  0.313  0.000  0.000  0.000  0.000  0.000  0.000  0.313
 

 k-point    4 :    0.30000000 0.00000000 0.00000000     weight = 0.00600000

band   1 # energy  -13.18468936 # occ.  1.00000000
 
ion      s     py     pz     px    dxy    dyz    dz2    dxz    dx2    tot
  1  0.138  0.005  0.000  0.016  0.000  0.000  0.000  0.000  0.000  0.159
  2  0.137  0.005  0.000  0.016  0.000  0.000  0.000  0.000  0.000  0.158
  3  0.137  0.005  0.000  0.016  0.000  0.000  0.000  0.000  0.000  0.158
  4  0.138  0.005  0.000  0.016  0.000  0.000  0.000  0.000  0.000  0.159
tot  0.551  0.021  0.000  0.064  0.000  0.000  0.000  0.000  0.000  0.636
 
band   2 # energy  -12.92858754 # occ.  1.00000000
 
ion      s     py     pz     px    dxy    dyz    dz2    dxz    dx2    tot
  1  0.141  0.005  0.000  0.016  0.000  0.000  0.000  0.000  0.000  0.162
  2  0.142  0.005  0.000  0.016  0.000  0.000  0.000  0.000  0.000  0.164
  3  0.142  0.005  0.000  0.016  0.000  0.000  0.000  0.000  0.000  0.164
  4  0.141  0.005  0.000  0.016  0.000  0.000  0.000  0.000  0.000  0.162
tot  0.565  0.022  0.000  0.065  0.000  0.000  0.000  0.000  0.000  0.652
 
band   3 # energy   -4.20355371 # occ.  1.00000000
 
ion      s     py     pz     px    dxy    dyz    dz2    dxz    dx2    tot
  1  0.057  0.031  0.000  0.093  0.000  0.000  0.000  0.000  0.000  0.181
  2  0.057  0.031  0.000  0.093  0.000  0.000  0.000  0.000  0.000  0.181
  3  0.057  0.031  0.000  0.093  0.000  0.000  0.000  0.000  0.000  0.181
  4  0.057  0.031  0.000  0.093  0.000  0.000  0.000  0.000  0.000  0.181
tot  0.229  0.124  0.000  0.371  0.000  0.000  0.000  0.000  0.000  0.724
 
band   4 # energy   -3.94159991 # occ.  1.00000000
 
ion      s     py     pz     px    dxy    dyz    dz2    dxz    dx2    tot
  1  0.058  0.031  0.000  0.093  0.000  0.000  0.000  0.000  0.000  0.182
  2  0.058  0.031  0.000  0.093  0.000  0.000  0.000  0.000  0.000  0.182
  3  0.058  0.031  0.000  0.093  0.000  0.000  0.000  0.000  0.000  0.182
  4  0.058  0.031  0.000  0.093  0.000  0.000  0.000  0.000  0.000  0.182
tot  0.233  0.124  0.000  0.371  0.000  0.000  0.000  0.000  0.000  0.727
 
band   5 # energy   -1.14256952 # occ.  1.00000000
 
ion      s     py     pz     px    dxy    dyz    dz2    dxz    dx2    tot
  1  0.000  0.000  0.100  0.000  0.000  0.000  0.000  0.000  0.000  0.100
  2  0.000  0.000  0.103  0.000  0.000  0.000  0.000  0.000  0.000  0.103
  3  0.000  0.000  0.103  0.000  0.000  0.000  0.000  0.000  0.000  0.103
  4  0.000  0.000  0.100  0.000  0.000  0.000  0.000  0.000  0.000  0.100
tot  0.000  0.000  0.406  0.000  0.000  0.000  0.000  0.000  0.000  0.406
 
band   6 # energy   -0.42411730 # occ.  1.00000000
 
ion      s     py     pz     px    dxy    dyz    dz2    dxz    dx2    tot
  1  0.000  0.151  0.000  0.050  0.000  0.000  0.000  0.000  0.000  0.201
  2  0.000  0.151  0.000  0.050  0.000  0.000  0.000  0.000  0.000  0.202
  3  0.000  0.151  0.000  0.050  0.000  0.000  0.000  0.000  0.000  0.202
  4  0.000  0.151  0.000  0.050  0.000  0.000  0.000  0.000  0.000  0.201
tot  0.000  0.605  0.000  0.202  0.000  0.000  0.000  0.000  0.000  0.806
 
band   7 # energy   -0.28571737 # occ.  1.00000000
 
ion      s     py     pz     px    dxy    dyz    dz2    dxz    dx2    tot
  1  0.000  0.149  0.000  0.050  0.000  0.000  0.000  0.000  0.000  0.199
  2  0.000  0.149  0.000  0.050  0.000  0.000  0.000  0.000  0.000  0.199
  3  0.000  0.149  0.000  0.050  0.000  0.000  0.000  0.000  0.000  0.199
  4  0.000  0.149  0.000  0.050  0.000  0.000  0.000  0.000  0.000  0.199
tot  0.000  0.597  0.000  0.199  0.000  0.000  0.000  0.000  0.000  0.796
 
band   8 # energy    0.69525619 # occ.  1.00000000
 
ion      s     py     pz     px    dxy    dyz    dz2    dxz    dx2    tot
  1  0.000  0.000  0.131  0.000  0.000  0.000  0.000  0.000  0.000  0.131
  2  0.000  0.000  0.129  0.000  0.000  0.000  0.000  0.000  0.000  0.129
  3  0.000  0.000  0.129  0.000  0.000  0.000  0.000  0.000  0.000  0.129
  4  0.000  0.000  0.131  0.000  0.000  0.000  0.000  0.000  0.000  0.131
tot  0.000  0.000  0.519  0.000  0.000  0.000  0.000  0.000  0.000  0.519
 
band   9 # energy   10.74802321 # occ.  0.00000000
 
ion      s     py     pz     px    dxy    dyz    dz2    dxz    dx2    tot
  1  0.000  0.000  0.117  0.000  0.000  0.000  0.000  0.000  0.000  0.117
  2  0.000  0.000  0.138  0.000  0.000  0.000  0.000  0.000  0.000  0.138
  3  0.000  0.000  0.138  0.000  0.000  0.000  0.000  0.000  0.000  0.138
  4  0.000  0.000  0.117  0.000  0.000  0.000  0.000  0.000  0.000  0.117
tot  0.000  0.000  0.509  0.000  0.000  0.000  0.000  0.000  0.000  0.509
 
band  10 # energy   11.60125761 # occ.  0.00000000
 
ion      s     py     pz     px    dxy    dyz    dz2    dxz    dx2    tot
  1  0.000  0.000  0.159  0.000  0.000  0.000  0.000  0.000  0.000  0.159
  2  0.000  0.000  0.142  0.000  0.000  0.000  0.000  0.000  0.000  0.142
  3  0.000  0.000  0.142  0.000  0.000  0.000  0.000  0.000  0.000  0.142
  4  0.000  0.000  0.159  0.000  0.000  0.000  0.000  0.000  0.000  0.159
tot  0.000  0.000  0.602  0.000  0.000  0.000  0.000  0.000  0.000  0.602
 
band  11 # energy   11.72508234 # occ.  0.00000000
 
ion      s     py     pz     px    dxy    dyz    dz2    dxz    dx2    tot
  1  0.012  0.003  0.000  0.010  0.000  0.000  0.000  0.000  0.000  0.025
  2  0.008  0.003  0.000  0.009  0.000  0.000  0.000  0.000  0.000  0.021
  3  0.008  0.003  0.000  0.009  0.000  0.000  0.000  0.000  0.000  0.021
  4  0.012  0.003  0.000  0.010  0.000  0.000  0.000  0.000  0.000  0.025
tot  0.040  0.013  0.000  0.039  0.000  0.000  0.000  0.000  0.000  0.092
 
band  12 # energy   12.47797957 # occ.  0.00000000
 
ion      s     py     pz     px    dxy    dyz    dz2    dxz    dx2    tot
  1  0.062  0.009  0.000  0.028  0.000  0.000  0.000  0.000  0.000  0.100
  2  0.075  0.010  0.000  0.029  0.000  0.000  0.000  0.000  0.000  0.113
  3  0.075  0.010  0.000  0.029  0.000  0.000  0.000  0.000  0.000  0.113
  4  0.062  0.009  0.000  0.028  0.000  0.000  0.000  0.000  0.000  0.100
tot  0.274  0.038  0.000  0.114  0.000  0.000  0.000  0.000  0.000  0.425
 
band  13 # energy   12.75637701 # occ.  0.00000000
 
ion      s     py     pz     px    dxy    dyz    dz2    dxz    dx2    tot
  1  0.078  0.009  0.000  0.028  0.000  0.000  0.000  0.000  0.000  0.116
  2  0.068  0.009  0.000  0.028  0.000  0.000  0.000  0.000  0.000  0.105
  3  0.068  0.009  0.000  0.028  0.000  0.000  0.000  0.000  0.000  0.105
  4  0.078  0.009  0.000  0.028  0.000  0.000  0.000  0.000  0.000  0.116
tot  0.293  0.037  0.000  0.112  0.000  0.000  0.000  0.000  0.000  0.443
 
band  14 # energy   17.67717150 # occ.  0.00000000
 
ion      s     py     pz     px    dxy    dyz    dz2    dxz    dx2    tot
  1  0.000  0.000  0.087  0.000  0.000  0.000  0.000  0.000  0.000  0.087
  2  0.000  0.000  0.071  0.000  0.000  0.000  0.000  0.000  0.000  0.071
  3  0.000  0.000  0.071  0.000  0.000  0.000  0.000  0.000  0.000  0.071
  4  0.000  0.000  0.087  0.000  0.000  0.000  0.000  0.000  0.000  0.087
tot  0.000  0.000  0.316  0.000  0.000  0.000  0.000  0.000  0.000  0.316
 

 k-point    5 :    0.40000000 0.00000000 0.00000000     weight = 0.00600000

band   1 # energy  -11.56565163 # occ.  1.00000000
 
ion      s     py     pz     px    dxy    dyz    dz2    dxz    dx2    tot
  1  0.127  0.009  0.000  0.026  0.000  0.000  0.000  0.000  0.000  0.162
  2  0.128  0.009  0.000  0.026  0.000  0.000  0.000  0.000  0.000  0.163
  3  0.128  0.009  0.000  0.026  0.000  0.000  0.000  0.000  0.000  0.163
  4  0.127  0.009  0.000  0.026  0.000  0.000  0.000  0.000  0.000  0.162
tot  0.510  0.035  0.000  0.104  0.000  0.000  0.000  0.000  0.000  0.649
 
band   2 # energy  -11.33508819 # occ.  1.00000000
 
ion      s     py     pz     px    dxy    dyz    dz2    dxz    dx2    tot
  1  0.131  0.009  0.000  0.026  0.000  0.000  0.000  0.000  0.000  0.167
  2  0.131  0.009  0.000  0.027  0.000  0.000  0.000  0.000  0.000  0.166
  3  0.131  0.009  0.000  0.027  0.000  0.000  0.000  0.000  0.000  0.166
  4  0.131  0.009  0.000  0.026  0.000  0.000  0.000  0.000  0.000  0.167
tot  0.524  0.035  0.000  0.106  0.000  0.000  0.000  0.000  0.000  0.665
 
band   3 # energy   -6.82516453 # occ.  1.00000000
 
ion      s     py     pz     px    dxy    dyz    dz2    dxz    dx2    tot
  1  0.074  0.024  0.000  0.073  0.000  0.000  0.000  0.000  0.000  0.171
  2  0.075  0.024  0.000  0.073  0.000  0.000  0.000  0.000  0.000  0.172
  3  0.075  0.024  0.000  0.073  0.000  0.000  0.000  0.000  0.000  0.172
  4  0.074  0.024  0.000  0.073  0.000  0.000  0.000  0.000  0.000  0.171
tot  0.297  0.097  0.000  0.291  0.000  0.000  0.000  0.000  0.000  0.686
 
band   4 # energy   -6.63286734 # occ.  1.00000000
 