<?xml version="1.0" encoding="ISO-8859-1"?>
<modeling>
 <generator>
  <i name="program" type="string">vasp </i>
  <i name="version" type="string">5.2.12  </i>
  <i name="subversion" type="string">11Nov11 complex                                                      parallel </i>
  <i name="platform" type="string">LinuxIFC </i>
  <i name="date" type="string">2012 10 17 </i>
  <i name="time" type="string">09:36:46 </i>
 </generator>
 <incar>
  <i type="string" name="PREC">accurate</i>
  <i type="int" name="ISPIN">     2</i>
  <i name="ENCUT">    200.00000000</i>
  <i type="logical" name="LREAL"> F  </i>
  <i type="int" name="ISMEAR">     1</i>
  <i name="SIGMA">      0.05000000</i>
  <i type="logical" name="LORBIT"> F  </i>
 </incar>
 <kpoints>
  <generation param="Gamma">
   <v type="int" name="divisions">      10       10       10 </v>
   <v name="usershift">      0.00000000       0.00000000       0.00000000 </v>
   <v name="genvec1">      0.10000000       0.00000000       0.00000000 </v>
   <v name="genvec2">      0.00000000       0.10000000       0.00000000 </v>
   <v name="genvec3">      0.00000000       0.00000000       0.10000000 </v>
   <v name="shift">      0.00000000       0.00000000       0.00000000 </v>
  </generation>
  <varray name="kpointlist" >
   <v>       0.00000000       0.00000000       0.00000000 </v>
   <v>       0.10000000       0.00000000       0.00000000 </v>
   <v>       0.20000000       0.00000000       0.00000000 </v>
   <v>       0.30000000       0.00000000       0.00000000 </v>
   <v>       0.40000000       0.00000000       0.00000000 </v>
   <v>       0.50000000       0.00000000       0.00000000 </v>
   <v>       0.10000000       0.10000000       0.00000000 </v>
   <v>       0.20000000       0.10000000       0.00000000 </v>
   <v>       0.30000000       0.10000000       0.00000000 </v>
   <v>       0.40000000       0.10000000       0.00000000 </v>
   <v>       0.20000000       0.20000000       0.00000000 </v>
   <v>       0.30000000       0.20000000       0.00000000 </v>
   <v>       0.40000000       0.20000000       0.00000000 </v>
   <v>       0.30000000       0.30000000       0.00000000 </v>
   <v>       0.00000000       0.00000000       0.10000000 </v>
   <v>       0.10000000       0.00000000       0.10000000 </v>
   <v>       0.20000000       0.00000000       0.10000000 </v>
   <v>       0.30000000       0.00000000       0.10000000 </v>
   <v>       0.40000000       0.00000000       0.10000000 </v>
   <v>       0.50000000       0.00000000       0.10000000 </v>
   <v>       0.10000000       0.10000000       0.10000000 </v>
   <v>       0.20000000       0.10000000       0.10000000 </v>
   <v>       0.30000000       0.10000000       0.10000000 </v>
   <v>       0.40000000       0.10000000       0.10000000 </v>
   <v>       0.20000000       0.20000000       0.10000000 </v>
   <v>       0.30000000       0.20000000       0.10000000 </v>
   <v>       0.40000000       0.20000000       0.10000000 </v>
   <v>       0.30000000       0.30000000       0.10000000 </v>
   <v>       0.00000000       0.00000000       0.20000000 </v>
   <v>       0.10000000       0.00000000       0.20000000 </v>
   <v>       0.20000000       0.00000000       0.20000000 </v>
   <v>       0.30000000       0.00000000       0.20000000 </v>
   <v>       0.40000000       0.00000000       0.20000000 </v>
   <v>       0.50000000       0.00000000       0.20000000 </v>
   <v>       0.10000000       0.10000000       0.20000000 </v>
   <v>       0.20000000       0.10000000       0.20000000 </v>
   <v>       0.30000000       0.10000000       0.20000000 </v>
   <v>       0.40000000       0.10000000       0.20000000 </v>
   <v>       0.20000000       0.20000000       0.20000000 </v>
   <v>       0.30000000       0.20000000       0.20000000 </v>
   <v>       0.40000000       0.20000000       0.20000000 </v>
   <v>       0.30000000       0.30000000       0.20000000 </v>
   <v>       0.00000000       0.00000000       0.30000000 </v>
   <v>       0.10000000       0.00000000       0.30000000 </v>
   <v>       0.20000000       0.00000000       0.30000000 </v>
   <v>       0.30000000       0.00000000       0.30000000 </v>
   <v>       0.40000000       0.00000000       0.30000000 </v>
   <v>       0.50000000       0.00000000       0.30000000 </v>
   <v>       0.10000000       0.10000000       0.30000000 </v>
   <v>       0.20000000       0.10000000       0.30000000 </v>
   <v>       0.30000000       0.10000000       0.30000000 </v>
   <v>       0.40000000       0.10000000       0.30000000 </v>
   <v>       0.20000000       0.20000000       0.30000000 </v>
   <v>       0.30000000       0.20000000       0.30000000 </v>
   <v>       0.40000000       0.20000000       0.30000000 </v>
   <v>       0.30000000       0.30000000       0.30000000 </v>
   <v>       0.00000000       0.00000000       0.40000000 </v>
   <v>       0.10000000       0.00000000       0.40000000 </v>
   <v>       0.20000000       0.00000000       0.40000000 </v>
   <v>       0.30000000       0.00000000       0.40000000 </v>
   <v>       0.40000000       0.00000000       0.40000000 </v>
   <v>       0.50000000       0.00000000       0.40000000 </v>
   <v>       0.10000000       0.10000000       0.40000000 </v>
   <v>       0.20000000       0.10000000       0.40000000 </v>
   <v>       0.30000000       0.10000000       0.40000000 </v>
   <v>       0.40000000       0.10000000       0.40000000 </v>
   <v>       0.20000000       0.20000000       0.40000000 </v>
   <v>       0.30000000       0.20000000       0.40000000 </v>
   <v>       0.40000000       0.20000000       0.40000000 </v>
   <v>       0.30000000       0.30000000       0.40000000 </v>
   <v>       0.00000000       0.00000000       0.50000000 </v>
   <v>       0.10000000       0.00000000       0.50000000 </v>
   <v>       0.20000000       0.00000000       0.50000000 </v>
   <v>       0.30000000       0.00000000       0.50000000 </v>
   <v>       0.40000000       0.00000000       0.50000000 </v>
   <v>       0.50000000       0.00000000       0.50000000 </v>
   <v>       0.10000000       0.10000000       0.50000000 </v>
   <v>       0.20000000       0.10000000       0.50000000 </v>
   <v>       0.30000000       0.10000000       0.50000000 </v>
   <v>       0.40000000       0.10000000       0.50000000 </v>
   <v>       0.20000000       0.20000000       0.50000000 </v>
   <v>       0.30000000       0.20000000       0.50000000 </v>
   <v>       0.40000000       0.20000000       0.50000000 </v>
   <v>       0.30000000       0.30000000       0.50000000 </v>
  </varray>
  <varray name="weights" >
   <v>       0.00100000 </v>
   <v>       0.00600000 </v>
   <v>       0.00600000 </v>
   <v>       0.00600000 </v>
   <v>       0.00600000 </v>
   <v>       0.00300000 </v>
   <v>       0.00600000 </v>
   <v>       0.01200000 </v>
   <v>       0.01200000 </v>
   <v>       0.01200000 </v>
   <v>       0.00600000 </v>
   <v>       0.01200000 </v>
   <v>       0.00600000 </v>
   <v>       0.00600000 </v>
   <v>       0.00200000 </v>
   <v>       0.01200000 </v>
   <v>       0.01200000 </v>
   <v>       0.01200000 </v>
   <v>       0.01200000 </v>
   <v>       0.00600000 </v>
   <v>       0.01200000 </v>
   <v>       0.02400000 </v>
   <v>       0.02400000 </v>
   <v>       0.02400000 </v>
   <v>       0.01200000 </v>
   <v>       0.02400000 </v>
   <v>       0.01200000 </v>
   <v>       0.01200000 </v>
   <v>       0.00200000 </v>
   <v>       0.01200000 </v>
   <v>       0.01200000 </v>
   <v>       0.01200000 </v>
   <v>       0.01200000 </v>
   <v>       0.00600000 </v>
   <v>       0.01200000 </v>
   <v>       0.02400000 </v>
   <v>       0.02400000 </v>
   <v>       0.02400000 </v>
   <v>       0.01200000 </v>
   <v>       0.02400000 </v>
   <v>       0.01200000 </v>
   <v>       0.01200000 </v>
   <v>       0.00200000 </v>
   <v>       0.01200000 </v>
   <v>       0.01200000 </v>
   <v>       0.01200000 </v>
   <v>       0.01200000 </v>
   <v>       0.00600000 </v>
   <v>       0.01200000 </v>
   <v>       0.02400000 </v>
   <v>       0.02400000 </v>
   <v>       0.02400000 </v>
   <v>       0.01200000 </v>
   <v>       0.02400000 </v>
   <v>       0.01200000 </v>
   <v>       0.01200000 </v>
   <v>       0.00200000 </v>
   <v>       0.01200000 </v>
   <v>       0.01200000 </v>
   <v>       0.01200000 </v>
   <v>       0.01200000 </v>
   <v>       0.00600000 </v>
   <v>       0.01200000 </v>
   <v>       0.02400000 </v>
   <v>       0.02400000 </v>
   <v>       0.02400000 </v>
   <v>       0.01200000 </v>
   <v>       0.02400000 </v>
   <v>       0.01200000 </v>
   <v>       0.01200000 </v>
   <v>       0.00100000 </v>
   <v>       0.00600000 </v>
   <v>       0.00600000 </v>
   <v>       0.00600000 </v>
   <v>       0.00600000 </v>
   <v>       0.00300000 </v>
   <v>       0.00600000 </v>
   <v>       0.01200000 </v>
   <v>       0.01200000 </v>
   <v>       0.01200000 </v>
   <v>       0.00600000 </v>
   <v>       0.01200000 </v>
   <v>       0.00600000 </v>
   <v>       0.00600000 </v>
  </varray>
 </kpoints>
 <parameters>
  <separator name="general" >
   <i type="string" name="SYSTEM">unknown system</i>
   <i type="logical" name="LCOMPAT"> F  </i>
  </separator>
  <separator name="electronic" >
   <i type="string" name="PREC">accura</i>
   <i name="ENMAX">    200.00000000</i>
   <i name="ENAUG">    644.87300000</i>
   <i name="EDIFF">      0.00010000</i>
   <i type="int" name="IALGO">    38</i>
   <i type="int" name="IWAVPR">    10</i>
   <i type="int" name="NBANDS">    14</i>
   <i name="NELECT">     16.00000000</i>
   <i type="int" name="TURBO">     0</i>
   <i type="int" name="IRESTART">     0</i>
   <i type="int" name="NREBOOT">     0</i>
   <i type="int" name="NMIN">     0</i>
   <i name="EREF">      0.00000000</i>
   <separator name="electronic smearing" >
    <i type="int" name="ISMEAR">     1</i>
    <i name="SIGMA">      0.05000000</i>
    <i name="KSPACING">      0.50000000</i>
    <i type="logical" name="KGAMMA"> T  </i>
   </separator>
   <separator name="electronic projectors" >
    <i type="logical" name="LREAL"> F  </i>
    <v name="ROPT">      0.00000000</v>
    <i type="int" name="LMAXPAW">  -100</i>
    <i type="int" name="LMAXMIX">     2</i>
    <i type="logical" name="NLSPLINE"> F  </i>
   </separator>
   <separator name="electronic startup" >
    <i type="int" name="ISTART">     0</i>
    <i type="int" name="ICHARG">     2</i>
    <i type="int" name="INIWAV">     1</i>
   </separator>
   <separator name="electronic spin" >
    <i type="int" name="ISPIN">     2</i>
    <i type="logical" name="LNONCOLLINEAR"> F  </i>
    <v name="MAGMOM">      1.00000000      1.00000000      1.00000000      1.00000000</v>
    <i name="NUPDOWN">     -1.00000000</i>
    <i type="logical" name="LSORBIT"> F  </i>
    <v name="SAXIS">      0.00000000      0.00000000      1.00000000</v>
    <i type="logical" name="LSPIRAL"> F  </i>
    <v name="QSPIRAL">      0.00000000      0.00000000      0.00000000</v>
    <i type="logical" name="LZEROZ"> F  </i>
   </separator>
   <separator name="electronic exchange-correlation" >
    <i type="logical" name="LASPH"> F  </i>
    <i type="logical" name="LMETAGGA"> F  </i>
   </separator>
   <separator name="electronic convergence" >
    <i type="int" name="NELM">    60</i>
    <i type="int" name="NELMDL">    -5</i>
    <i type="int" name="NELMIN">     2</i>
    <i name="ENINI">    200.00000000</i>
    <separator name="electronic convergence detail" >
     <i type="logical" name="LDIAG"> T  </i>
     <i type="logical" name="LSUBROT"> T  </i>
     <i name="WEIMIN">      0.00000000</i>
     <i name="EBREAK">      0.00000179</i>
     <i name="DEPER">      0.30000000</i>
     <i type="int" name="NRMM">     4</i>
     <i name="TIME">      0.40000000</i>
    </separator>
   </separator>
   <separator name="electronic mixer" >
    <i name="AMIX">      0.40000000</i>
    <i name="BMIX">      1.00000000</i>
    <i name="AMIN">      0.10000000</i>
    <i name="AMIX_MAG">      1.60000000</i>
    <i name="BMIX_MAG">      1.00000000</i>
    <separator name="electronic mixer details" >
     <i type="int" name="IMIX">     4</i>
     <i type="int" name="MAXMIX">   -45</i>
     <i name="WC">    100.00000000</i>
     <i type="int" name="INIMIX">     1</i>
     <i type="int" name="MIXPRE">     1</i>
     <i type="int" name="MREMOVE">     5</i>
    </separator>
   </separator>
   <separator name="electronic dipolcorrection" >
    <i type="logical" name="LDIPOL"> F  </i>
    <i type="logical" name="LMONO"> F  </i>
    <i type="int" name="IDIPOL">     0</i>
    <i name="EPSILON">      1.00000000</i>
    <v name="DIPOL">   -100.00000000   -100.00000000   -100.00000000</v>
    <i name="EFIELD">      0.00000000</i>
   </separator>
  </separator>
  <separator name="grids" >
   <i type="int" name="NGX">    12</i>
   <i type="int" name="NGY">    12</i>
   <i type="int" name="NGZ">    32</i>
   <i type="int" name="NGXF">    24</i>
   <i type="int" name="NGYF">    24</i>
   <i type="int" name="NGZF">    64</i>
   <i type="logical" name="ADDGRID"> F  </i>
  </separator>
  <separator name="ionic" >
   <i type="int" name="NSW">     0</i>
   <i type="int" name="IBRION">    -1</i>
   <i type="int" name="ISIF">     2</i>
   <i name="PSTRESS">      0.00000000</i>
   <i name="EDIFFG">      0.00100000</i>
   <i type="int" name="NFREE">     0</i>
   <i name="POTIM">      0.50000000</i>
   <i name="SMASS">     -3.00000000</i>
   <i name="SCALEE">      1.00000000</i>
  </separator>
  <separator name="ionic md" >
   <i name="TEBEG">      0.00010000</i>
   <i name="TEEND">      0.00010000</i>
   <i type="int" name="NBLOCK">     1</i>
   <i type="int" name="KBLOCK">     1</i>
   <i type="int" name="NPACO">   256</i>
   <i name="APACO">     16.00000000</i>
  </separator>
  <separator name="symmetry" >
   <i type="int" name="ISYM">     2</i>
   <i name="SYMPREC">      0.00001000</i>
  </separator>
  <separator name="dos" >
   <i type="logical" name="LORBIT"> F  </i>
   <v name="RWIGS">     -1.00000000</v>
   <i type="int" name="NEDOS">   301</i>
   <i name="EMIN">     10.00000000</i>
   <i name="EMAX">    -10.00000000</i>
   <i name="EFERMI">      0.00000000</i>
  </separator>
  <separator name="writing" >
   <i type="int" name="NWRITE">     2</i>
   <i type="logical" name="LWAVE"> T  </i>
   <i type="logical" name="LCHARG"> T  </i>
   <i type="logical" name="LPARD"> F  </i>
   <i type="logical" name="LVTOT"> F  </i>
   <i type="logical" name="LVHAR"> F  </i>
   <i type="logical" name="LELF"> F  </i>
   <i type="logical" name="LOPTICS"> F  </i>
   <v name="STM">      0.00000000      0.00000000      0.00000000      0.00000000      0.00000000      0.00000000      0.00000000</v>
  </separator>
  <separator name="performance" >
   <i type="int" name="NPAR">     1</i>
   <i type="int" name="NSIM">     4</i>
   <i type="int" name="NBLK">    -1</i>
   <i type="logical" name="LPLANE"> T  </i>
   <i type="logical" name="LSCALAPACK"> F  </i>
   <i type="logical" name="LSCAAWARE"> F  </i>
   <i type="logical" name="LSCALU"> F  </i>
   <i type="logical" name="LASYNC"> F  </i>
   <i type="logical" name="LORBITALREAL"> F  </i>
  </separator>
  <separator name="miscellaneous" >
   <i type="int" name="IDIOT">     3</i>
   <i type="logical" name="LMUSIC"> F  </i>
   <v name="POMASS">     12.01100000</v>
   <v name="DARWINR">      0.00000000</v>
   <v name="DARWINV">      1.00000000</v>
   <i type="logical" name="LCORR"> T  </i>
  </separator>
  <i type="logical" name="GGA_COMPAT"> T  </i>
  <i type="logical" name="LBERRY"> F  </i>
  <i type="int" name="ICORELEVEL">     0</i>
  <i type="logical" name="LDAU"> F  </i>
  <i type="int" name="I_CONSTRAINED_M">     0</i>
  <separator name="electronic exchange-correlation" >
   <i type="string" name="GGA">--</i>
   <i type="int" name="VOSKOWN">     0</i>
   <i type="logical" name="LHFCALC"> F  </i>
   <i type="string" name="PRECFOCK"></i>
   <i type="logical" name="LHFONE"> F  </i>
   <i type="logical" name="LRHFCALC"> F  </i>
   <i type="logical" name="LTHOMAS"> F  </i>
   <i type="logical" name="LMODELHF"> F  </i>
   <i name="ENCUT4O">     -1.00000000</i>
   <i type="int" name="EXXOEP">     0</i>
   <i type="int" name="FOURORBIT">     0</i>
   <i name="AEXX">      0.00000000</i>
   <i name="HFALPHA">      0.00000000</i>
   <i name="ALDAX">      1.00000000</i>
   <i name="AGGAX">      1.00000000</i>
   <i name="ALDAC">      1.00000000</i>
   <i name="AGGAC">      1.00000000</i>
   <i type="int" name="NKREDX">     1</i>
   <i type="int" name="NKREDY">     1</i>
   <i type="int" name="NKREDZ">     1</i>
   <i type="logical" name="SHIFTRED"> F  </i>
   <i type="logical" name="ODDONLY"> F  </i>
   <i type="logical" name="EVENONLY"> F  </i>
   <i type="int" name="LMAXFOCK">     0</i>
   <i type="int" name="NMAXFOCKAE">     0</i>
   <i type="logical" name="LFOCKAEDFT"> F  </i>
   <i name="HFSCREEN">      0.00000000</i>
   <i name="HFSCREENC">      0.00000000</i>
  </separator>
  <separator name="vdW DFT" >
   <i type="logical" name="LUSE_VDW"> F  </i>
   <i name="Zab_VDW">     -0.84910000</i>
   <i name="PARAM1">      0.12340000</i>
   <i name="PARAM2">      1.00000000</i>
   <i name="PARAM3">      0.00000000</i>
  </separator>
  <separator name="model GW" >
   <i type="int" name="MODEL_GW">     0</i>
   <i name="MODEL_EPS0">      5.27839982</i>
   <i name="MODEL_ALPHA">      1.00000000</i>
  </separator>
  <separator name="linear response parameters" >
   <i type="logical" name="LEPSILON"> F  </i>
   <i type="logical" name="LRPA"> F  </i>
   <i type="logical" name="LNABLA"> F  </i>
   <i type="logical" name="LVEL"> F  </i>
   <i type="int" name="KINTER">     0</i>
   <i name="CSHIFT">      0.10000000</i>
   <i name="OMEGAMAX">     -1.00000000</i>
  </separator>
  <separator name="orbital magnetization" >
   <i type="logical" name="NUCIND"> F  </i>
   <v name="MAGPOS">      0.00000000      0.00000000      0.00000000</v>
   <i type="logical" name="LNICSALL"> T  </i>
   <i type="logical" name="ORBITALMAG"> F  </i>
   <i type="logical" name="LMAGBLOCH"> F  </i>
   <i type="logical" name="LCHIMAG"> F  </i>
   <i type="logical" name="LGAUGE"> T  </i>
   <i type="int" name="MAGATOM">     0</i>
   <v name="MAGDIPOL">      0.00000000      0.00000000      0.00000000</v>
   <v name="AVECCONST">      0.00000000      0.00000000      0.00000000</v>
  </separator>
  <separator name="response functions" >
   <i type="logical" name="LADDER"> F  </i>
   <i type="logical" name="LHARTREE"> T  </i>
   <i type="int" name="IBSE">     0</i>
   <i type="logical" name="LTCTE"> F  </i>
   <i type="logical" name="LTETE"> F  </i>
   <i type="logical" name="LFXCEPS"> F  </i>
   <i type="logical" name="L2ORDER"> F  </i>
   <i type="logical" name="LUSEW"> F  </i>
   <i name="ENCUTGW">     -2.00000000</i>
   <i name="ENCUTGWSOFT">     -2.00000000</i>
   <i name="ENCUTLF">     -1.00000000</i>
   <i type="int" name="LMAXMP2">    -1</i>
   <i name="SCISSOR">      0.00000000</i>
   <i type="int" name="NOMEGA">     0</i>
   <i type="int" name="NOMEGAR">     0</i>
   <i type="int" name="NBANDSGW">    -1</i>
   <i type="int" name="NBANDSO">    -1</i>
   <i type="int" name="NBANDSV">    -1</i>
   <i name="OPTEMAX">      0.00000000</i>
   <i type="int" name="NELM">     1</i>
   <i type="int" name="DIM">     3</i>
   <i type="int" name="ANTIRES">     0</i>
   <i name="OMEGAMAX">    -30.00000000</i>
   <i name="OMEGATL">   -200.00000000</i>
   <i type="int" name="OMEGAGRID">     0</i>
   <i name="CSHIFT">     -0.10000000</i>
   <i type="logical" name="SELFENERGY"> F  </i>
   <i type="logical" name="LSPECTRAL"> F  </i>
   <i type="logical" name="ODDONLYGW"> F  </i>
   <i type="logical" name="EVENONLYGW"> F  </i>
   <i type="int" name="NKREDLFX">     1</i>
   <i type="int" name="NKREDLFY">     1</i>
   <i type="int" name="NKREDLFZ">     1</i>
   <i type="int" name="MAXMEM">  1800</i>
   <i type="int" name="TELESCOPE">     0</i>
  </separator>
 </parameters>
 <atominfo>
  <atoms>       4 </atoms>
  <types>       1 </types>
  <array name="atoms" >
   <dimension dim="1">ion</dimension>
   <field type="string">element</field>
   <field type="int">atomtype</field>
   <set>
    <rc><c>C </c><c>   1</c></rc>
    <rc><c>C </c><c>   1</c></rc>
    <rc><c>C </c><c>   1</c></rc>
    <rc><c>C </c><c>   1</c></rc>
   </set>
  </array>
  <array name="atomtypes" >
   <dimension dim="1">type</dimension>
   <field type="int">atomspertype</field>
   <field type="string">element</field>
   <field>mass</field>
   <field>valence</field>
   <field type="string">pseudopotential</field>
   <set>
    <rc><c>   4</c><c>C </c><c>     12.01100000</c><c>      4.00000000</c><c> PAW_PBE C 08Apr2002                    </c></rc>
   </set>
  </array>
 </atominfo>
 <structure name="initialpos" >
  <crystal>
   <varray name="basis" >
    <v>       2.46120000       0.00000000       0.00000000 </v>
    <v>      -1.23060000       2.13146172       0.00000000 </v>
    <v>       0.00000000       0.00000000       6.70790000 </v>
   </varray>
   <i name="volume">     35.18933212 </i>
   <varray name="rec_basis" >
    <v>       0.40630587       0.23458080       0.00000000 </v>
    <v>       0.00000000       0.46916160       0.00000000 </v>
    <v>       0.00000000       0.00000000       0.14907795 </v>
   </varray>
  </crystal>
  <varray name="positions" >
   <v>       0.00000000       0.00000000       0.00000000 </v>
   <v>       0.33333333       0.66666667       0.00000000 </v>
   <v>       0.33333333       0.66666667       0.50000000 </v>
   <v>       0.66666667       0.33333333       0.50000000 </v>
  </varray>
 </structure>
 <calculation>
  <scstep>
   <time name="dav">    3.98    3.99</time>
   <time name="total">    4.17    4.18</time>
   <energy>
    <i name="alphaZ">     37.04766603 </i>
    <i name="ewald">   -460.60042082 </i>
    <i name="hartreedc">   -148.78490797 </i>
    <i name="XCdc">     56.10990824 </i>
    <i name="pawpsdc">    150.95130483 </i>
    <i name="pawaedc">   -155.51722924 </i>
    <i name="eentropy">     -0.00015217 </i>
    <i name="bandstr">    -61.30605291 </i>
    <i name="atom">    581.96510429 </i>
    <i name="e_fr_energy">     -0.13477972 </i>
    <i name="e_wo_entrp">     -0.13462755 </i>
    <i name="e_0_energy">     -0.13472900 </i>
   </energy>
  </scstep>
  <scstep>
   <time name="dav">    4.63    4.63</time>
   <time name="total">    4.64    4.65</time>
   <energy>
    <i name="e_fr_energy">    -34.62996315 </i>
    <i name="e_wo_entrp">    -34.62994513 </i>
    <i name="e_0_energy">    -34.62995715 </i>
   </energy>
  </scstep>
  <scstep>
   <time name="dav">    4.52    4.52</time>
   <time name="total">    4.54    4.56</time>
   <energy>
    <i name="e_fr_energy">    -35.50663566 </i>
    <i name="e_wo_entrp">    -35.50659275 </i>
    <i name="e_0_energy">    -35.50662136 </i>
   </energy>
  </scstep>
  <scstep>
   <time name="dav">    4.29    4.30</time>
   <time name="total">    4.31    4.32</time>
   <energy>
    <i name="e_fr_energy">    -35.51338684 </i>
    <i name="e_wo_entrp">    -35.51334638 </i>
    <i name="e_0_energy">    -35.51337335 </i>
   </energy>
  </scstep>
  <scstep>
   <time name="dav">    4.51    4.51</time>
   <time name="total">    4.82    4.83</time>
   <energy>
    <i name="e_fr_energy">    -35.51350318 </i>
    <i name="e_wo_entrp">    -35.51346278 </i>
    <i name="e_0_energy">    -35.51348971 </i>
   </energy>
  </scstep>
  <scstep>
   <time name="dav">    3.92    3.93</time>
   <time name="total">    4.38    4.41</time>
   <energy>
    <i name="e_fr_energy">    -35.56790204 </i>
    <i name="e_wo_entrp">    -35.56792235 </i>
    <i name="e_0_energy">    -35.56790881 </i>
   </energy>
  </scstep>
  <scstep>
   <time name="dav">    3.88    3.88</time>
   <time name="total">    4.34    4.36</time>
   <energy>
    <i name="e_fr_energy">    -35.92317013 </i>
    <i name="e_wo_entrp">    -35.92321564 </i>
    <i name="e_0_energy">    -35.92318530 </i>
   </energy>
  </scstep>
  <scstep>
   <time name="dav">    4.22    4.23</time>
   <time name="total">    4.68    4.70</time>
   <energy>
    <i name="e_fr_energy">    -35.86874880 </i>
    <i name="e_wo_entrp">    -35.86879330 </i>
    <i name="e_0_energy">    -35.86876363 </i>
   </energy>
  </scstep>
  <scstep>
   <time name="dav">    4.13    4.14</time>
   <time name="total">    4.59    4.65</time>
   <energy>
    <i name="e_fr_energy">    -35.88116162 </i>
    <i name="e_wo_entrp">    -35.88120369 </i>
    <i name="e_0_energy">    -35.88117564 </i>
   </energy>
  </scstep>
  <scstep>
   <time name="dav">    4.24    4.25</time>
   <time name="total">    4.70    4.72</time>
   <energy>
    <i name="e_fr_energy">    -35.88071063 </i>
    <i name="e_wo_entrp">    -35.88075389 </i>
    <i name="e_0_energy">    -35.88072505 </i>
   </energy>
  </scstep>
  <scstep>
   <time name="dav">    4.10    4.10</time>
   <time name="total">    4.27    4.28</time>
   <energy>
    <i name="alphaZ">     37.04766603 </i>
    <i name="ewald">   -460.60042082 </i>
    <i name="hartreedc">   -177.85318737 </i>
    <i name="XCdc">     57.34698882 </i>
    <i name="pawpsdc">    264.61261733 </i>
    <i name="pawaedc">   -268.75132934 </i>
    <i name="eentropy">      0.00004292 </i>
    <i name="bandstr">    -69.64824187 </i>
    <i name="atom">    581.96510429 </i>
    <i name="e_fr_energy">    -35.88076001 </i>
    <i name="e_wo_entrp">    -35.88080293 </i>
    <i name="e_0_energy">    -35.88077432 </i>
   </energy>
  </scstep>
  <parameters_embedded>
   <separator name="dft+d2" >
    <i type="logical" name="LVDW"> F  </i>
   </separator>
  </parameters_embedded>
  <structure>
   <crystal>
    <varray name="basis" >
     <v>       2.46120000       0.00000000       0.00000000 </v>
     <v>      -1.23060000       2.13146172       0.00000000 </v>
     <v>       0.00000000       0.00000000       6.70790000 </v>
    </varray>
    <i name="volume">     35.18933212 </i>
    <varray name="rec_basis" >
     <v>       0.40630587       0.23458080       0.00000000 </v>
     <v>       0.00000000       0.46916160       0.00000000 </v>
     <v>       0.00000000       0.00000000       0.14907795 </v>
    </varray>
   </crystal>
   <varray name="positions" >
    <v>       0.00000000       0.00000000       0.00000000 </v>
    <v>       0.33333333       0.66666667       0.00000000 </v>
    <v>       0.33333333       0.66666667       0.50000000 </v>
    <v>       0.66666667       0.33333333       0.50000000 </v>
   </varray>
  </structure>
  <varray name="forces" >
   <v>       0.00000000       0.00000000       0.00000000 </v>
   <v>       0.00000000       0.00000000       0.00000000 </v>
   <v>       0.00000000       0.00000000       0.00000000 </v>
   <v>       0.00000000       0.00000000       0.00000000 </v>
  </varray>
  <varray name="stress" >
   <v>    -678.72115559       0.00000000       0.00000000 </v>
   <v>       0.00000000    -678.72115559       0.00000000 </v>
   <v>       0.00000000       0.00000000    -652.39452437 </v>
  </varray>
  <energy>
   <i name="e_fr_energy">    -35.88076001 </i>
   <i name="e_wo_entrp">    -35.88077432 </i>
   <i name="e_0_energy">      0.00004292 </i>
  </energy>
  <time name="totalsc">   51.08   51.99</time>
  <eigenvalues>
   <array>
    <dimension dim="1">band</dimension>
    <dimension dim="2">kpoint</dimension>
    <dimension dim="3">spin</dimension>
    <field>eigene</field>
    <field>occ</field>
    <set>
     <set comment="spin 1">
      <set comment="kpoint 1">
       <r>  -15.3219    1.0000 </r>
       <r>  -15.0430    1.0000 </r>
       <r>   -3.8109    1.0000 </r>
       <r>   -1.6181    1.0000 </r>
       <r>    2.2409    1.0000 </r>
       <r>    2.2412    1.0000 </r>
       <r>    2.3212    1.0000 </r>
       <r>    2.3215    1.0000 </r>
       <r>    9.0758    0.0000 </r>
       <r>   13.5609    0.0000 </r>
       <r>   13.5612    0.0000 </r>
       <r>   13.7722    0.0000 </r>
       <r>   13.7725    0.0000 </r>
       <r>   15.6432    0.0000 </r>
      </set>
      <set comment="kpoint 2">
       <r>  -15.0788    1.0000 </r>
       <r>  -14.8049    1.0000 </r>
       <r>   -3.5022    1.0000 </r>
       <r>   -1.2814    1.0000 </r>
       <r>    1.2230    1.0000 </r>
       <r>    1.3398    1.0000 </r>
       <r>    1.7611    1.0000 </r>
       <r>    1.8645    1.0000 </r>
       <r>    9.3771    0.0000 </r>
       <r>   13.5411    0.0000 </r>
       <r>   13.7941    0.0000 </r>
       <r>   14.6065    0.0000 </r>
       <r>   14.8535    0.0000 </r>
       <r>   15.8971    0.0000 </r>
      </set>
      <set comment="kpoint 3">
       <r>  -14.3544    1.0000 </r>
       <r>  -14.0942    1.0000 </r>
       <r>   -2.5439    1.0000 </r>
       <r>   -1.2056    1.0000 </r>
       <r>   -1.0204    1.0000 </r>
       <r>   -0.4574    1.0000 </r>
       <r>    0.7826    1.0000 </r>
       <r>    0.9155    1.0000 </r>
       <r>   10.2719    0.0000 </r>
       <r>   13.2077    0.0000 </r>
       <r>   13.4024    0.0000 </r>
       <r>   13.9785    0.0000 </r>
       <r>   14.3947    0.0000 </r>
       <r>   16.6962    0.0000 </r>
      </set>
      <set comment="kpoint 4">
       <r>  -13.1847    1.0000 </r>
       <r>  -12.9286    1.0000 </r>
       <r>   -4.2036    1.0000 </r>
       <r>   -3.9416    1.0000 </r>
       <r>   -1.1426    1.0000 </r>
       <r>   -0.4241    1.0000 </r>
       <r>   -0.2857    1.0000 </r>
       <r>    0.6953    1.0000 </r>
       <r>   10.7480    0.0000 </r>
       <r>   11.6013    0.0000 </r>
       <r>   11.7251    0.0000 </r>
       <r>   12.4780    0.0000 </r>
       <r>   12.7564    0.0000 </r>
       <r>   17.6772    0.0000 </r>
      </set>
      <set comment="kpoint 5">
       <r>  -11.5657    1.0000 </r>
       <r>  -11.3351    1.0000 </r>
       <r>   -6.8252    1.0000 </r>
       <r>   -6.6329    1.0000 </r>
       <r>   -1.1580    1.0000 </r>
       <r>   -1.0991    1.0000 </r>
       <r>    0.6908    1.0000 </r>
       <r>    2.2253    1.0000 </r>
       <r>    7.8512    0.0000 </r>
       <r>    8.9142    0.0000 </r>
       <r>   11.9994    0.0000 </r>
       <r>   12.3330    0.0000 </r>
       <r>   13.8016    0.0000 </r>
       <r>   18.8182    0.0000 </r>
      </set>
      <set comment="kpoint 6">
       <r>   -9.9566    1.0000 </r>
       <r>   -9.8697    1.0000 </r>
       <r>   -8.6563    1.0000 </r>
       <r>   -8.5942    1.0000 </r>
       <r>   -1.4070    1.0000 </r>
       <r>   -1.1588    1.0000 </r>
       <r>    2.1430    1.0000 </r>
       <r>    2.9085    1.0000 </r>
       <r>    6.5383    0.0000 </r>
       <r>    7.2997    0.0000 </r>
       <r>   11.8151    0.0000 </r>
       <r>   12.2322    0.0000 </r>
       <r>   16.2775    0.0000 </r>
       <r>   16.4519    0.0000 </r>
      </set>
      <set comment="kpoint 7">
       <r>  -14.5965    1.0000 </r>
       <r>  -14.3305    1.0000 </r>
       <r>   -2.8817    1.0000 </r>
       <r>   -0.7565    1.0000 </r>
       <r>   -0.1847    1.0000 </r>
       <r>   -0.1704    1.0000 </r>
       <r>    0.8056    1.0000 </r>
       <r>    0.8497    1.0000 </r>
       <r>    9.9735    0.0000 </r>
       <r>   14.0970    0.0000 </r>
       <r>   14.2324    0.0000 </r>
       <r>   14.5430    0.0000 </r>
       <r>   15.0246    0.0000 </r>
       <r>   15.4046    0.0000 </r>
      </set>
      <set comment="kpoint 8">
       <r>  -13.6486    1.0000 </r>
       <r>  -13.3905    1.0000 </r>
       <r>   -2.6705    1.0000 </r>
       <r>   -2.5939    1.0000 </r>
       <r>   -1.6960    1.0000 </r>
       <r>   -0.5543    1.0000 </r>
       <r>   -0.4974    1.0000 </r>
       <r>    0.2658    1.0000 </r>
       <r>   11.1570    0.0000 </r>
       <r>   12.0847    0.0000 </r>
       <r>   12.6688    0.0000 </r>
       <r>   13.9081    0.0000 </r>
       <r>   14.1939    0.0000 </r>
       <r>   17.3165    0.0000 </r>
      </set>
      <set comment="kpoint 9">
       <r>  -12.2481    1.0000 </r>
       <r>  -12.0087    1.0000 </r>
       <r>   -5.4845    1.0000 </r>
       <r>   -5.2371    1.0000 </r>
       <r>   -1.5609    1.0000 </r>
       <r>   -1.4955    1.0000 </r>
       <r>   -0.0523    1.0000 </r>
       <r>    1.6678    1.0000 </r>
       <r>    9.1868    0.0000 </r>
       <r>   10.0289    0.0000 </r>
       <r>   12.9021    0.0000 </r>
       <r>   13.3759    0.0000 </r>
       <r>   13.7164    0.0000 </r>
       <r>   17.9478    0.0000 </r>
      </set>
      <set comment="kpoint 10">
       <r>  -10.4687    1.0000 </r>
       <r>  -10.2685    1.0000 </r>
       <r>   -7.8754    1.0000 </r>
       <r>   -7.7076    1.0000 </r>
       <r>   -2.0694    1.0000 </r>
       <r>   -2.0454    1.0000 </r>
       <r>    1.8389    1.0000 </r>
       <r>    3.0302    1.0000 </r>
       <r>    6.8719    0.0000 </r>
       <r>    7.6869    0.0000 </r>
       <r>   13.0159    0.0000 </r>
       <r>   13.4010    0.0000 </r>
       <r>   15.2113    0.0000 </r>
       <r>   17.8168    0.0000 </r>
      </set>
      <set comment="kpoint 11">
       <r>  -12.4758    1.0000 </r>
       <r>  -12.2366    1.0000 </r>
       <r>   -4.3291    1.0000 </r>
       <r>   -4.2079    1.0000 </r>
       <r>   -2.4741    1.0000 </r>
       <r>   -2.4248    1.0000 </r>
       <r>   -0.2597    1.0000 </r>
       <r>    1.5575    1.0000 </r>
       <r>    9.9769    0.0000 </r>
       <r>   10.5328    0.0000 </r>
       <r>   12.6245    0.0000 </r>
       <r>   15.9146    0.0000 </r>
       <r>   16.1914    0.0000 </r>
       <r>   17.1173    0.0000 </r>
      </set>
      <set comment="kpoint 12">
       <r>  -10.8795    1.0000 </r>
       <r>  -10.6655    1.0000 </r>
       <r>   -6.4226    1.0000 </r>
       <r>   -6.3129    1.0000 </r>
       <r>   -3.6589    1.0000 </r>
       <r>   -3.6188    1.0000 </r>
       <r>    1.5527    1.0000 </r>
       <r>    3.0494    1.0000 </r>
       <r>    7.5069    0.0000 </r>
       <r>    8.2570    0.0000 </r>
       <r>   14.6246    0.0000 </r>
       <r>   15.7916    0.0000 </r>
       <r>   16.3916    0.0000 </r>
       <r>   17.2215    0.0000 </r>
      </set>
      <set comment="kpoint 13">
       <r>   -9.3275    1.0000 </r>
       <r>   -9.2209    1.0000 </r>
       <r>   -8.1072    1.0000 </r>
       <r>   -8.0575    1.0000 </r>
       <r>   -4.0132    1.0000 </r>
       <r>   -3.9309    1.0000 </r>
       <r>    3.0805    1.0000 </r>
       <r>    3.7998    1.0000 </r>
       <r>    6.4692    0.0000 </r>
       <r>    6.5563    0.0000 </r>
       <r>   15.6835    0.0000 </r>
       <r>   16.2108    0.0000 </r>
       <r>   16.8620    0.0000 </r>
       <r>   17.0582    0.0000 </r>
      </set>
      <set comment="kpoint 14">
       <r>   -9.1922    1.0000 </r>
       <r>   -9.0131    1.0000 </r>
       <r>   -7.3816    1.0000 </r>
       <r>   -7.2940    1.0000 </r>
       <r>   -5.3048    1.0000 </r>
       <r>   -5.2258    1.0000 </r>
       <r>    3.4350    1.0000 </r>
       <r>    4.4742    1.0078 </r>
       <r>    5.8296    0.0000 </r>
       <r>    6.5809    0.0000 </r>
       <r>   16.2809    0.0000 </r>
       <r>   16.2954    0.0000 </r>
       <r>   16.6562    0.0000 </r>
       <r>   17.8394    0.0000 </r>
      </set>
      <set comment="kpoint 15">
       <r>  -15.3154    1.0000 </r>
       <r>  -15.0503    1.0000 </r>
       <r>   -3.7553    1.0000 </r>
       <r>   -1.6251    1.0000 </r>
       <r>    2.2551    1.0000 </r>
       <r>    2.2554    1.0000 </r>
       <r>    2.3598    1.0000 </r>
       <r>    2.3601    1.0000 </r>
       <r>    9.2120    0.0000 </r>
       <r>   13.5682    0.0000 </r>
       <r>   13.5685    0.0000 </r>
       <r>   13.7868    0.0000 </r>
       <r>   13.7871    0.0000 </r>
       <r>   15.3934    0.0000 </r>
      </set>
      <set comment="kpoint 16">
       <r>  -15.0728    1.0000 </r>
       <r>  -14.8122    1.0000 </r>
       <r>   -3.4685    1.0000 </r>
       <r>   -1.3749    1.0000 </r>
       <r>    1.2518    1.0000 </r>
       <r>    1.3052    1.0000 </r>
       <r>    1.7575    1.0000 </r>
       <r>    1.8486    1.0000 </r>
       <r>    9.5067    0.0000 </r>
       <r>   13.5391    0.0000 </r>
       <r>   13.7685    0.0000 </r>
       <r>   14.6045    0.0000 </r>
       <r>   14.8318    0.0000 </r>
       <r>   15.6132    0.0000 </r>
      </set>
      <set comment="kpoint 17">
       <r>  -14.3522    1.0000 </r>
       <r>  -14.0997    1.0000 </r>
       <r>   -2.5077    1.0000 </r>
       <r>   -1.1006    1.0000 </r>
       <r>   -1.0427    1.0000 </r>
       <r>   -0.5771    1.0000 </r>
       <r>    0.7676    1.0000 </r>
       <r>    0.8464    1.0000 </r>
       <r>   10.3934    0.0000 </r>
       <r>   13.1959    0.0000 </r>
       <r>   13.3937    0.0000 </r>
       <r>   13.9834    0.0000 </r>
       <r>   14.3573    0.0000 </r>
       <r>   16.4316    0.0000 </r>
      </set>
      <set comment="kpoint 18">
       <r>  -13.1778    1.0000 </r>
       <r>  -12.9345    1.0000 </r>
       <r>   -4.2002    1.0000 </r>
       <r>   -3.9415    1.0000 </r>
       <r>   -1.1026    1.0000 </r>
       <r>   -0.4182    1.0000 </r>
       <r>   -0.2588    1.0000 </r>
       <r>    0.6513    1.0000 </r>
       <r>   10.8272    0.0000 </r>
       <r>   11.5757    0.0000 </r>
       <r>   11.8501    0.0000 </r>
       <r>   12.4873    0.0000 </r>
       <r>   12.7573    0.0000 </r>
       <r>   17.4623    0.0000 </r>
      </set>
      <set comment="kpoint 19">
       <r>  -11.5545    1.0000 </r>
       <r>  -11.3413    1.0000 </r>
       <r>   -6.8185    1.0000 </r>
       <r>   -6.6782    1.0000 </r>
       <r>   -1.1578    1.0000 </r>
       <r>   -1.0994    1.0000 </r>
       <r>    0.7228    1.0000 </r>
       <r>    2.2260    1.0000 </r>
       <r>    7.8459    0.0000 </r>
       <r>    8.8801    0.0000 </r>
       <r>   12.0006    0.0000 </r>
       <r>   12.3505    0.0000 </r>
       <r>   13.9235    0.0000 </r>
       <r>   18.6200    0.0000 </r>
      </set>
      <set comment="kpoint 20">
       <r>   -9.9535    1.0000 </r>
       <r>   -9.8718    1.0000 </r>
       <r>   -8.6547    1.0000 </r>
       <r>   -8.5966    1.0000 </r>
       <r>   -1.4047    1.0000 </r>
       <r>   -1.1595    1.0000 </r>
       <r>    2.1669    1.0000 </r>
       <r>    2.9019    1.0000 </r>
       <r>    6.5325    0.0000 </r>
       <r>    7.2625    0.0000 </r>
       <r>   11.8241    0.0000 </r>
       <r>   12.2239    0.0000 </r>
       <r>   16.3800    0.0000 </r>
       <r>   16.5258    0.0000 </r>
      </set>
      <set comment="kpoint 21">
       <r>  -14.5912    1.0000 </r>
       <r>  -14.3370    1.0000 </r>
       <r>   -2.8351    1.0000 </r>
       <r>   -0.8224    1.0000 </r>
       <r>   -0.1758    1.0000 </r>
       <r>   -0.1486    1.0000 </r>
       <r>    0.8172    1.0000 </r>
       <r>    0.8736    1.0000 </r>
       <r>   10.1005    0.0000 </r>
       <r>   14.0946    0.0000 </r>
       <r>   14.2165    0.0000 </r>
       <r>   14.7679    0.0000 </r>
       <r>   15.1031    0.0000 </r>
       <r>   15.4080    0.0000 </r>
      </set>
      <set comment="kpoint 22">
       <r>  -13.6450    1.0000 </r>
       <r>  -13.3982    1.0000 </r>
       <r>   -2.7121    1.0000 </r>
       <r>   -2.6074    1.0000 </r>
       <r>   -1.6577    1.0000 </r>
       <r>   -0.5436    1.0000 </r>
       <r>   -0.5017    1.0000 </r>
       <r>    0.1771    1.0000 </r>
       <r>   11.2715    0.0000 </r>
       <r>   12.0831    0.0000 </r>
       <r>   12.6722    0.0000 </r>
       <r>   13.9097    0.0000 </r>
       <r>   14.1773    0.0000 </r>
       <r>   16.9149    0.0000 </r>
      </set>
      <set comment="kpoint 23">
       <r>  -12.2423    1.0000 </r>
       <r>  -12.0145    1.0000 </r>
       <r>   -5.4756    1.0000 </r>
       <r>   -5.2381    1.0000 </r>
       <r>   -1.5484    1.0000 </r>
       <r>   -1.4572    1.0000 </r>
       <r>    0.0083    1.0000 </r>
       <r>    1.6222    1.0000 </r>
       <r>    9.2081    0.0000 </r>
       <r>   10.0101    0.0000 </r>
       <r>   13.0077    0.0000 </r>
       <r>   13.3867    0.0000 </r>
       <r>   13.7156    0.0000 </r>
       <r>   17.8035    0.0000 </r>
      </set>
      <set comment="kpoint 24">
       <r>  -10.4590    1.0000 </r>
       <r>  -10.2760    1.0000 </r>
       <r>   -7.8695    1.0000 </r>
       <r>   -7.6877    1.0000 </r>
       <r>   -2.0556    1.0000 </r>
       <r>   -2.0238    1.0000 </r>
       <r>    1.8902    1.0000 </r>
       <r>    3.0224    1.0000 </r>
       <r>    6.8471    0.0000 </r>
       <r>    7.6569    0.0000 </r>
       <r>   13.0336    0.0000 </r>
       <r>   13.4139    0.0000 </r>
       <r>   15.3082    0.0000 </r>
       <r>   17.8069    0.0000 </r>
      </set>
      <set comment="kpoint 25">
       <r>  -12.4727    1.0000 </r>
       <r>  -12.2422    1.0000 </r>
       <r>   -4.3208    1.0000 </r>
       <r>   -4.1999    1.0000 </r>
       <r>   -2.4570    1.0000 </r>
       <r>   -2.3821    1.0000 </r>
       <r>   -0.2284    1.0000 </r>
       <r>    1.4168    1.0000 </r>
       <r>    9.9122    0.0000 </r>
       <r>   10.4913    0.0000 </r>
       <r>   12.7295    0.0000 </r>
       <r>   15.9156    0.0000 </r>
       <r>   16.1892    0.0000 </r>
       <r>   17.1296    0.0000 </r>
      </set>
      <set comment="kpoint 26">
       <r>  -10.8721    1.0000 </r>
       <r>  -10.6707    1.0000 </r>
       <r>   -6.4176    1.0000 </r>
       <r>   -6.3101    1.0000 </r>
       <r>   -3.6384    1.0000 </r>
       <r>   -3.6044    1.0000 </r>
       <r>    1.5904    1.0000 </r>
       <r>    3.0587    1.0000 </r>
       <r>    7.5572    0.0000 </r>
       <r>    8.2713    0.0000 </r>
       <r>   14.6939    0.0000 </r>
       <r>   15.8250    0.0000 </r>
       <r>   16.3875    0.0000 </r>
       <r>   17.1271    0.0000 </r>
      </set>
      <set comment="kpoint 27">
       <r>   -9.3240    1.0000 </r>
       <r>   -9.2190    1.0000 </r>
       <r>   -8.1159    1.0000 </r>
       <r>   -8.0435    1.0000 </r>
       <r>   -3.9988    1.0000 </r>
       <r>   -3.9159    1.0000 </r>
       <r>    3.1195    1.0000 </r>
       <r>    3.7838    1.0000 </r>
       <r>    6.4494    0.0000 </r>
       <r>    6.5824    0.0000 </r>
       <r>   15.6907    0.0000 </r>
       <r>   16.1537    0.0000 </r>
       <r>   16.6127    0.0000 </r>
       <r>   16.7892    0.0000 </r>
      </set>
      <set comment="kpoint 28">
       <r>   -9.1869    1.0000 </r>
       <r>   -9.0243    1.0000 </r>
       <r>   -7.3795    1.0000 </r>
       <r>   -7.2858    1.0000 </r>
       <r>   -5.3071    1.0000 </r>
       <r>   -5.2278    1.0000 </r>
       <r>    3.4577    1.0000 </r>
       <r>    4.5325    1.0000 </r>
       <r>    5.8272    0.0000 </r>
       <r>    6.4940    0.0000 </r>
       <r>   16.0069    0.0000 </r>
       <r>   16.1470    0.0000 </r>
       <r>   16.9752    0.0000 </r>
       <r>   17.9961    0.0000 </r>
      </set>
      <set comment="kpoint 29">
       <r>  -15.2963    1.0000 </r>
       <r>  -15.0714    1.0000 </r>
       <r>   -3.6362    1.0000 </r>
       <r>   -1.8039    1.0000 </r>
       <r>    2.2572    1.0000 </r>
       <r>    2.2575    1.0000 </r>
       <r>    2.3564    1.0000 </r>
       <r>    2.3567    1.0000 </r>
       <r>    9.5969    0.0000 </r>
       <r>   13.5732    0.0000 </r>
       <r>   13.5734    0.0000 </r>
       <r>   13.7840    0.0000 </r>
       <r>   13.7842    0.0000 </r>
       <r>   14.6868    0.0000 </r>
      </set>
      <set comment="kpoint 30">
       <r>  -15.0539    1.0000 </r>
       <r>  -14.8331    1.0000 </r>
       <r>   -3.3425    1.0000 </r>
       <r>   -1.5225    1.0000 </r>
       <r>    1.2553    1.0000 </r>
       <r>    1.3129    1.0000 </r>
       <r>    1.7662    1.0000 </r>
       <r>    1.8707    1.0000 </r>
       <r>    9.8906    0.0000 </r>
       <r>   13.5443    0.0000 </r>
       <r>   13.7643    0.0000 </r>
       <r>   14.6107    0.0000 </r>
       <r>   14.8306    0.0000 </r>
       <r>   14.9384    0.0000 </r>
      </set>
      <set comment="kpoint 31">
       <r>  -14.3354    1.0000 </r>
       <r>  -14.1206    1.0000 </r>
       <r>   -2.4346    1.0000 </r>
       <r>   -1.0980    1.0000 </r>
       <r>   -1.0762    1.0000 </r>
       <r>   -0.7544    1.0000 </r>
       <r>    0.7707    1.0000 </r>
       <r>    0.8120    1.0000 </r>
       <r>   10.7532    0.0000 </r>
       <r>   13.1448    0.0000 </r>
       <r>   13.3536    0.0000 </r>
       <r>   13.8949    0.0000 </r>
       <r>   14.4007    0.0000 </r>
       <r>   15.7524    0.0000 </r>
      </set>
      <set comment="kpoint 32">
       <r>  -13.1541    1.0000 </r>
       <r>  -12.9506    1.0000 </r>
       <r>   -4.1103    1.0000 </r>
       <r>   -3.9453    1.0000 </r>
       <r>   -0.9896    1.0000 </r>
       <r>   -0.4118    1.0000 </r>
       <r>   -0.2514    1.0000 </r>
       <r>    0.5694    1.0000 </r>
       <r>   10.8683    0.0000 </r>
       <r>   11.5244    0.0000 </r>
       <r>   12.1846    0.0000 </r>
       <r>   12.5268    0.0000 </r>
       <r>   12.7865    0.0000 </r>
       <r>   16.8933    0.0000 </r>
      </set>
      <set comment="kpoint 33">
       <r>  -11.5381    1.0000 </r>
       <r>  -11.3552    1.0000 </r>
       <r>   -6.8071    1.0000 </r>
       <r>   -6.6913    1.0000 </r>
       <r>   -1.0974    1.0000 </r>
       <r>   -1.0365    1.0000 </r>
       <r>    0.8248    1.0000 </r>
       <r>    2.1252    1.0000 </r>
       <r>    7.9262    0.0000 </r>
       <r>    8.7725    0.0000 </r>
       <r>   12.0266    0.0000 </r>
       <r>   12.3255    0.0000 </r>
       <r>   14.2489    0.0000 </r>
       <r>   18.1914    0.0000 </r>
      </set>
      <set comment="kpoint 34">
       <r>   -9.9447    1.0000 </r>
       <r>   -9.8690    1.0000 </r>
       <r>   -8.6498    1.0000 </r>
       <r>   -8.6030    1.0000 </r>
       <r>   -1.3981    1.0000 </r>
       <r>   -1.1615    1.0000 </r>
       <r>    2.2386    1.0000 </r>
       <r>    2.8807    1.0000 </r>
       <r>    6.5974    0.0000 </r>
       <r>    7.1601    0.0000 </r>
       <r>   11.8630    0.0000 </r>
       <r>   12.1992    0.0000 </r>
       <r>   16.6802    0.0000 </r>
       <r>   16.7428    0.0000 </r>
      </set>
      <set comment="kpoint 35">
       <r>  -14.5732    1.0000 </r>
       <r>  -14.3576    1.0000 </r>
       <r>   -2.7023    1.0000 </r>
       <r>   -1.0127    1.0000 </r>
       <r>   -0.1770    1.0000 </r>
       <r>   -0.1713    1.0000 </r>
       <r>    0.8242    1.0000 </r>
       <r>    0.8679    1.0000 </r>
       <r>   10.4688    0.0000 </r>
       <r>   14.0405    0.0000 </r>
       <r>   14.1871    0.0000 </r>
       <r>   14.6912    0.0000 </r>
       <r>   15.0440    0.0000 </r>
       <r>   15.4832    0.0000 </r>
      </set>
      <set comment="kpoint 36">
       <r>  -13.6250    1.0000 </r>
       <r>  -13.4176    1.0000 </r>
       <r>   -2.7079    1.0000 </r>
       <r>   -2.6090    1.0000 </r>
       <r>   -1.5408    1.0000 </r>
       <r>   -0.5334    1.0000 </r>
       <r>   -0.4796    1.0000 </r>
       <r>    0.0525    1.0000 </r>
       <r>   11.6008    0.0000 </r>
       <r>   12.1518    0.0000 </r>
       <r>   12.6347    0.0000 </r>
       <r>   13.9344    0.0000 </r>
       <r>   14.1674    0.0000 </r>
       <r>   16.3333    0.0000 </r>
      </set>
      <set comment="kpoint 37">
       <r>  -12.2213    1.0000 </r>
       <r>  -12.0319    1.0000 </r>
       <r>   -5.4648    1.0000 </r>
       <r>   -5.2813    1.0000 </r>
       <r>   -1.5738    1.0000 </r>
       <r>   -1.4462    1.0000 </r>
       <r>    0.1102    1.0000 </r>
       <r>    1.5375    1.0000 </r>
       <r>    9.2206    0.0000 </r>
       <r>    9.9692    0.0000 </r>
       <r>   13.2953    0.0000 </r>
       <r>   13.4122    0.0000 </r>
       <r>   13.7327    0.0000 </r>
       <r>   17.3617    0.0000 </r>
      </set>
      <set comment="kpoint 38">
       <r>  -10.4466    1.0000 </r>
       <r>  -10.2924    1.0000 </r>
       <r>   -7.8585    1.0000 </r>
       <r>   -7.7003    1.0000 </r>
       <r>   -2.0914    1.0000 </r>
       <r>   -2.0147    1.0000 </r>
       <r>    1.9753    1.0000 </r>
       <r>    2.9543    1.0000 </r>
       <r>    6.8792    0.0000 </r>
       <r>    7.6135    0.0000 </r>
       <r>   13.0479    0.0000 </r>
       <r>   13.3858    0.0000 </r>
       <r>   15.5646    0.0000 </r>
       <r>   17.7635    0.0000 </r>
      </set>
      <set comment="kpoint 39">
       <r>  -12.4531    1.0000 </r>
       <r>  -12.2595    1.0000 </r>
       <r>   -4.3147    1.0000 </r>
       <r>   -4.2046    1.0000 </r>
       <r>   -2.4533    1.0000 </r>
       <r>   -2.3801    1.0000 </r>
       <r>   -0.1200    1.0000 </r>
       <r>    1.2942    1.0000 </r>
       <r>    9.9522    0.0000 </r>
       <r>   10.4519    0.0000 </r>
       <r>   13.0455    0.0000 </r>
       <r>   15.9218    0.0000 </r>
       <r>   16.2299    0.0000 </r>
       <r>   16.9125    0.0000 </r>
      </set>
      <set comment="kpoint 40">
       <r>  -10.8597    1.0000 </r>
       <r>  -10.6874    1.0000 </r>
       <r>   -6.4065    1.0000 </r>
       <r>   -6.3249    1.0000 </r>
       <r>   -3.6263    1.0000 </r>
       <r>   -3.5969    1.0000 </r>
       <r>    1.6815    1.0000 </r>
       <r>    2.8916    1.0000 </r>
       <r>    7.5487    0.0000 </r>
       <r>    8.1923    0.0000 </r>
       <r>   14.8753    0.0000 </r>
       <r>   15.8461    0.0000 </r>
       <r>   16.3414    0.0000 </r>
       <r>   16.9035    0.0000 </r>
      </set>
      <set comment="kpoint 41">
       <r>   -9.3155    1.0000 </r>
       <r>   -9.2162    1.0000 </r>
       <r>   -8.1141    1.0000 </r>
       <r>   -8.0496    1.0000 </r>
       <r>   -4.0059    1.0000 </r>
       <r>   -3.9056    1.0000 </r>
       <r>    3.1921    1.0000 </r>
       <r>    3.7659    1.0000 </r>
       <r>    6.4992    0.0000 </r>
       <r>    6.5387    0.0000 </r>
       <r>   15.7007    0.0000 </r>
       <r>   15.9995    0.0000 </r>
       <r>   16.3963    0.0000 </r>
       <r>   16.6914    0.0000 </r>
      </set>
      <set comment="kpoint 42">
       <r>   -9.1756    1.0000 </r>
       <r>   -9.0261    1.0000 </r>
       <r>   -7.3733    1.0000 </r>
       <r>   -7.2976    1.0000 </r>
       <r>   -5.2867    1.0000 </r>
       <r>   -5.2441    1.0000 </r>
       <r>    3.5711    1.0000 </r>
       <r>    4.4374    1.0004 </r>
       <r>    5.8324    0.0000 </r>
       <r>    6.4651    0.0000 </r>
       <r>   15.6562    0.0000 </r>
       <r>   15.8587    0.0000 </r>
       <r>   17.4364    0.0000 </r>
       <r>   18.3040    0.0000 </r>
      </set>
      <set comment="kpoint 43">
       <r>  -15.2664    1.0000 </r>
       <r>  -15.1040    1.0000 </r>
       <r>   -3.4446    1.0000 </r>
       <r>   -2.1314    1.0000 </r>
       <r>    2.2616    1.0000 </r>
       <r>    2.2619    1.0000 </r>
       <r>    2.3543    1.0000 </r>
       <r>    2.3546    1.0000 </r>
       <r>   10.1978    0.0000 </r>
       <r>   13.5815    0.0000 </r>
       <r>   13.5818    0.0000 </r>
       <r>   13.7652    0.0000 </r>
       <r>   13.7811    0.0000 </r>
       <r>   13.7813    0.0000 </r>
      </set>
      <set comment="kpoint 44">
       <r>  -15.0274    1.0000 </r>
       <r>  -14.8651    1.0000 </r>
       <r>   -3.1095    1.0000 </r>
       <r>   -1.9040    1.0000 </r>
       <r>    1.2700    1.0000 </r>
       <r>    1.2978    1.0000 </r>
       <r>    1.8178    1.0000 </r>
       <r>    1.8380    1.0000 </r>
       <r>   10.4703    0.0000 </r>
       <r>   13.5972    0.0000 </r>
       <r>   13.7079    0.0000 </r>
       <r>   14.1129    0.0000 </r>
       <r>   14.6445    0.0000 </r>
       <r>   14.7814    0.0000 </r>
      </set>
      <set comment="kpoint 45">
       <r>  -14.3065    1.0000 </r>
       <r>  -14.1511    1.0000 </r>
       <r>   -2.2516    1.0000 </r>
       <r>   -1.1078    1.0000 </r>
       <r>   -1.0835    1.0000 </r>
       <r>   -1.0626    1.0000 </r>
       <r>    0.7717    1.0000 </r>
       <r>    0.8041    1.0000 </r>
       <r>   11.3147    0.0000 </r>
       <r>   13.1534    0.0000 </r>
       <r>   13.3045    0.0000 </r>
       <r>   13.9408    0.0000 </r>
       <r>   14.3022    0.0000 </r>
       <r>   14.9404    0.0000 </r>
      </set>
      <set comment="kpoint 46">
       <r>  -13.1259    1.0000 </r>
       <r>  -12.9780    1.0000 </r>
       <r>   -4.0918    1.0000 </r>
       <r>   -4.0178    1.0000 </r>
       <r>   -0.8130    1.0000 </r>
       <r>   -0.2939    1.0000 </r>
       <r>   -0.2513    1.0000 </r>
       <r>    0.3312    1.0000 </r>
       <r>   10.8976    0.0000 </r>
       <r>   11.4974    0.0000 </r>
       <r>   12.5072    0.0000 </r>
       <r>   12.6266    0.0000 </r>
       <r>   12.9640    0.0000 </r>
       <r>   16.1252    0.0000 </r>
      </set>
      <set comment="kpoint 47">
       <r>  -11.5144    1.0000 </r>
       <r>  -11.3799    1.0000 </r>
       <r>   -6.7827    1.0000 </r>
       <r>   -6.7080    1.0000 </r>
       <r>   -1.0362    1.0000 </r>
       <r>   -0.9877    1.0000 </r>
       <r>    0.9870    1.0000 </r>
       <r>    1.9630    1.0000 </r>
       <r>    8.0504    0.0000 </r>
       <r>    8.7365    0.0000 </r>
       <r>   12.0661    0.0000 </r>
       <r>   12.2922    0.0000 </r>
       <r>   14.7732    0.0000 </r>
       <r>   17.6128    0.0000 </r>
      </set>
      <set comment="kpoint 48">
       <r>   -9.9434    1.0000 </r>
       <r>   -9.8786    1.0000 </r>
       <r>   -8.6428    1.0000 </r>
       <r>   -8.6106    1.0000 </r>
       <r>   -1.3529    1.0000 </r>
       <r>   -1.3049    1.0000 </r>
       <r>    2.4092    1.0000 </r>
       <r>    2.8638    1.0000 </r>
       <r>    6.6262    0.0000 </r>
       <r>    7.1120    0.0000 </r>
       <r>   11.9054    0.0000 </r>
       <r>   12.1630    0.0000 </r>
       <r>   17.0972    0.0000 </r>
       <r>   17.1206    0.0000 </r>
      </set>
      <set comment="kpoint 49">
       <r>  -14.5468    1.0000 </r>
       <r>  -14.3887    1.0000 </r>
       <r>   -2.5150    1.0000 </r>
       <r>   -1.3721    1.0000 </r>
       <r>   -0.2263    1.0000 </r>
       <r>   -0.1991    1.0000 </r>
       <r>    0.8067    1.0000 </r>
       <r>    0.8634    1.0000 </r>
       <r>   11.0381    0.0000 </r>
       <r>   13.9961    0.0000 </r>
       <r>   14.1559    0.0000 </r>
       <r>   14.6231    0.0000 </r>
       <r>   14.8987    0.0000 </r>
       <r>   15.0482    0.0000 </r>
      </set>
      <set comment="kpoint 50">
       <r>  -13.5972    1.0000 </r>
       <r>  -13.4465    1.0000 </r>
       <r>   -2.6973    1.0000 </r>
       <r>   -2.6268    1.0000 </r>
       <r>   -1.3588    1.0000 </r>
       <r>   -0.5285    1.0000 </r>
       <r>   -0.4680    1.0000 </r>
       <r>   -0.1828    1.0000 </r>
       <r>   12.0387    0.0000 </r>
       <r>   12.3671    0.0000 </r>
       <r>   12.6089    0.0000 </r>
       <r>   13.9629    0.0000 </r>
       <r>   14.1576    0.0000 </r>
       <r>   15.5473    0.0000 </r>
      </set>
      <set comment="kpoint 51">
       <r>  -12.1973    1.0000 </r>
       <r>  -12.0587    1.0000 </r>
       <r>   -5.3786    1.0000 </r>
       <r>   -5.3012    1.0000 </r>
       <r>   -1.5758    1.0000 </r>
       <r>   -1.4556    1.0000 </r>
       <r>    0.2773    1.0000 </r>
       <r>    1.3253    1.0000 </r>
       <r>    9.2504    0.0000 </r>
       <r>    9.8564    0.0000 </r>
       <r>   13.4074    0.0000 </r>
       <r>   13.5923    0.0000 </r>
       <r>   13.9519    0.0000 </r>
       <r>   16.7419    0.0000 </r>
      </set>
      <set comment="kpoint 52">
       <r>  -10.4253    1.0000 </r>
       <r>  -10.3122    1.0000 </r>
       <r>   -7.8400    1.0000 </r>
       <r>   -7.7159    1.0000 </r>
       <r>   -2.0816    1.0000 </r>
       <r>   -2.0240    1.0000 </r>
       <r>    2.1141    1.0000 </r>
       <r>    2.8421    1.0000 </r>
       <r>    6.9577    0.0000 </r>
       <r>    7.4851    0.0000 </r>
       <r>   13.0981    0.0000 </r>
       <r>   13.3415    0.0000 </r>
       <r>   15.9536    0.0000 </r>
       <r>   17.6233    0.0000 </r>
      </set>
      <set comment="kpoint 53">
       <r>  -12.4280    1.0000 </r>
       <r>  -12.2874    1.0000 </r>
       <r>   -4.3085    1.0000 </r>
       <r>   -4.2107    1.0000 </r>
       <r>   -2.4604    1.0000 </r>
       <r>   -2.3869    1.0000 </r>
       <r>    0.0073    1.0000 </r>
       <r>    1.0780    1.0000 </r>
       <r>   10.0184    0.0000 </r>
       <r>   10.3937    0.0000 </r>
       <r>   13.5220    0.0000 </r>
       <r>   15.8432    0.0000 </r>
       <r>   16.2361    0.0000 </r>
       <r>   16.4125    0.0000 </r>
      </set>
      <set comment="kpoint 54">
       <r>  -10.8347    1.0000 </r>
       <r>  -10.7107    1.0000 </r>
       <r>   -6.3891    1.0000 </r>
       <r>   -6.3368    1.0000 </r>
       <r>   -3.6021    1.0000 </r>
       <r>   -3.5522    1.0000 </r>
       <r>    1.8107    1.0000 </r>
       <r>    2.7188    1.0000 </r>
       <r>    7.6322    0.0000 </r>
       <r>    8.1202    0.0000 </r>
       <r>   15.1294    0.0000 </r>
       <r>   15.8429    0.0000 </r>
       <r>   16.3276    0.0000 </r>
       <r>   16.6535    0.0000 </r>
      </set>
      <set comment="kpoint 55">
       <r>   -9.2998    1.0000 </r>
       <r>   -9.2314    1.0000 </r>
       <r>   -8.1031    1.0000 </r>
       <r>   -8.0651    1.0000 </r>
       <r>   -3.8993    1.0000 </r>
       <r>   -3.8927    1.0000 </r>
       <r>    3.2510    1.0000 </r>
       <r>    3.7211    1.0000 </r>
       <r>    6.4520    0.0000 </r>
       <r>    6.4675    0.0000 </r>
       <r>   15.6922    0.0000 </r>
       <r>   15.8331    0.0000 </r>
       <r>   16.3828    0.0000 </r>
       <r>   16.5710    0.0000 </r>
      </set>
      <set comment="kpoint 56">
       <r>   -9.1572    1.0000 </r>
       <r>   -9.0525    1.0000 </r>
       <r>   -7.3638    1.0000 </r>
       <r>   -7.3077    1.0000 </r>
       <r>   -5.2893    1.0000 </r>
       <r>   -5.2506    1.0000 </r>
       <r>    3.6538    1.0000 </r>
       <r>    4.3231    1.0000 </r>
       <r>    5.8994    0.0000 </r>
       <r>    6.3698    0.0000 </r>
       <r>   15.4034    0.0000 </r>
       <r>   15.5682    0.0000 </r>
       <r>   17.9204    0.0000 </r>
       <r>   18.7842    0.0000 </r>
      </set>
      <set comment="kpoint 57">
       <r>  -15.2280    1.0000 </r>
       <r>  -15.1444    1.0000 </r>
       <r>   -3.1926    1.0000 </r>
       <r>   -2.4386    1.0000 </r>
       <r>    2.2682    1.0000 </r>
       <r>    2.2685    1.0000 </r>
       <r>    2.3535    1.0000 </r>
       <r>    2.3538    1.0000 </r>
       <r>   10.9743    0.0000 </r>
       <r>   12.7778    0.0000 </r>
       <r>   13.5927    0.0000 </r>
       <r>   13.5930    0.0000 </r>
       <r>   13.7788    0.0000 </r>
       <r>   13.7791    0.0000 </r>
      </set>
      <set comment="kpoint 58">
       <r>  -14.9898    1.0000 </r>
       <r>  -14.9049    1.0000 </r>
       <r>   -2.8601    1.0000 </r>
       <r>   -2.2087    1.0000 </r>
       <r>    1.2740    1.0000 </r>
       <r>    1.2895    1.0000 </r>
       <r>    1.8194    1.0000 </r>
       <r>    1.8317    1.0000 </r>
       <r>   11.2290    0.0000 </r>
       <r>   13.0307    0.0000 </r>
       <r>   13.6896    0.0000 </r>
       <r>   13.7090    0.0000 </r>
       <r>   14.6531    0.0000 </r>
       <r>   14.7760    0.0000 </r>
      </set>
      <set comment="kpoint 59">
       <r>  -14.2705    1.0000 </r>
       <r>  -14.1891    1.0000 </r>
       <r>   -2.0054    1.0000 </r>
       <r>   -1.3727    1.0000 </r>
       <r>   -1.0887    1.0000 </r>
       <r>   -1.0715    1.0000 </r>
       <r>    0.7753    1.0000 </r>
       <r>    0.7967    1.0000 </r>
       <r>   12.0376    0.0000 </r>
       <r>   13.1481    0.0000 </r>
       <r>   13.2751    0.0000 </r>
       <r>   13.7922    0.0000 </r>
       <r>   14.1874    0.0000 </r>
       <r>   14.4108    0.0000 </r>
      </set>
      <set comment="kpoint 60">
       <r>  -13.0926    1.0000 </r>
       <r>  -13.0130    1.0000 </r>
       <r>   -4.0777    1.0000 </r>
       <r>   -4.0459    1.0000 </r>
       <r>   -0.5829    1.0000 </r>
       <r>   -0.3274    1.0000 </r>
       <r>   -0.2988    1.0000 </r>
       <r>   -0.0195    1.0000 </r>
       <r>   10.9852    0.0000 </r>
       <r>   11.3486    0.0000 </r>
       <r>   12.5671    0.0000 </r>
       <r>   12.6585    0.0000 </r>
       <r>   13.5774    0.0000 </r>
       <r>   15.2481    0.0000 </r>
      </set>
      <set comment="kpoint 61">
       <r>  -11.4769    1.0000 </r>
       <r>  -11.4102    1.0000 </r>
       <r>   -6.7902    1.0000 </r>
       <r>   -6.7406    1.0000 </r>
       <r>   -1.0155    1.0000 </r>
       <r>   -0.9943    1.0000 </r>
       <r>    1.2420    1.0000 </r>
       <r>    1.7076    1.0000 </r>
       <r>    8.1504    0.0000 </r>
       <r>    8.5628    0.0000 </r>
       <r>   12.1284    0.0000 </r>
       <r>   12.2416    0.0000 </r>
       <r>   15.4315    0.0000 </r>
       <r>   16.9337    0.0000 </r>
      </set>
      <set comment="kpoint 62">
       <r>   -9.9273    1.0000 </r>
       <r>   -9.8931    1.0000 </r>
       <r>   -8.6308    1.0000 </r>
       <r>   -8.6221    1.0000 </r>
       <r>   -1.3418    1.0000 </r>
       <r>   -1.3197    1.0000 </r>
       <r>    2.5358    1.0000 </r>
       <r>    2.7907    1.0000 </r>
       <r>    6.6733    0.0000 </r>
       <r>    6.9464    0.0000 </r>
       <r>   11.9580    0.0000 </r>
       <r>   12.1123    0.0000 </r>
       <r>   17.4899    0.0000 </r>
       <r>   17.6307    0.0000 </r>
      </set>
      <set comment="kpoint 63">
       <r>  -14.5103    1.0000 </r>
       <r>  -14.4273    1.0000 </r>
       <r>   -2.2697    1.0000 </r>
       <r>   -1.6713    1.0000 </r>
       <r>   -0.2215    1.0000 </r>
       <r>   -0.2073    1.0000 </r>
       <r>    0.8117    1.0000 </r>
       <r>    0.8589    1.0000 </r>
       <r>   11.7755    0.0000 </r>
       <r>   13.5254    0.0000 </r>
       <r>   14.1373    0.0000 </r>
       <r>   14.1462    0.0000 </r>
       <r>   14.9375    0.0000 </r>
       <r>   15.0009    0.0000 </r>
      </set>
      <set comment="kpoint 64">
       <r>  -13.5646    1.0000 </r>
       <r>  -13.4839    1.0000 </r>
       <r>   -2.6970    1.0000 </r>
       <r>   -2.6527    1.0000 </r>
       <r>   -1.1220    1.0000 </r>
       <r>   -0.5859    1.0000 </r>
       <r>   -0.5346    1.0000 </r>
       <r>   -0.5117    1.0000 </r>
       <r>   12.2913    0.0000 </r>
       <r>   12.4998    0.0000 </r>
       <r>   12.9099    0.0000 </r>
       <r>   13.9679    0.0000 </r>
       <r>   14.1099    0.0000 </r>
       <r>   14.6933    0.0000 </r>
      </set>
      <set comment="kpoint 65">
       <r>  -12.1609    1.0000 </r>
       <r>  -12.0898    1.0000 </r>
       <r>   -5.3605    1.0000 </r>
       <r>   -5.3277    1.0000 </r>
       <r>   -1.5191    1.0000 </r>
       <r>   -1.4564    1.0000 </r>
       <r>    0.4977    1.0000 </r>
       <r>    1.0005    1.0000 </r>
       <r>    9.3897    0.0000 </r>
       <r>    9.7711    0.0000 </r>
       <r>   13.4836    0.0000 </r>
       <r>   13.5900    0.0000 </r>
       <r>   14.5484    0.0000 </r>
       <r>   16.0292    0.0000 </r>
      </set>
      <set comment="kpoint 66">
       <r>  -10.4024    1.0000 </r>
       <r>  -10.3389    1.0000 </r>
       <r>   -7.8179    1.0000 </r>
       <r>   -7.7488    1.0000 </r>
       <r>   -2.0720    1.0000 </r>
       <r>   -2.0277    1.0000 </r>
       <r>    2.2750    1.0000 </r>
       <r>    2.6943    1.0000 </r>
       <r>    7.0380    0.0000 </r>
       <r>    7.3841    0.0000 </r>
       <r>   13.1502    0.0000 </r>
       <r>   13.2845    0.0000 </r>
       <r>   16.4348    0.0000 </r>
       <r>   17.3353    0.0000 </r>
      </set>
      <set comment="kpoint 67">
       <r>  -12.3952    1.0000 </r>
       <r>  -12.3217    1.0000 </r>
       <r>   -4.3191    1.0000 </r>
       <r>   -4.2887    1.0000 </r>
       <r>   -2.4317    1.0000 </r>
       <r>   -2.4181    1.0000 </r>
       <r>    0.2427    1.0000 </r>
       <r>    0.7940    1.0000 </r>
       <r>   10.2140    0.0000 </r>
       <r>   10.3932    0.0000 </r>
       <r>   14.1281    0.0000 </r>
       <r>   15.4560    0.0000 </r>
       <r>   16.2436    0.0000 </r>
       <r>   16.2521    0.0000 </r>
      </set>
      <set comment="kpoint 68">
       <r>  -10.8100    1.0000 </r>
       <r>  -10.7400    1.0000 </r>
       <r>   -6.3435    1.0000 </r>
       <r>   -6.3300    1.0000 </r>
       <r>   -3.5846    1.0000 </r>
       <r>   -3.5649    1.0000 </r>
       <r>    2.0162    1.0000 </r>
       <r>    2.4299    1.0000 </r>
       <r>    7.7603    0.0000 </r>
       <r>    8.0090    0.0000 </r>
       <r>   15.4078    0.0000 </r>
       <r>   15.8135    0.0000 </r>
       <r>   16.2941    0.0000 </r>
       <r>   16.4664    0.0000 </r>
      </set>
      <set comment="kpoint 69">
       <r>   -9.2845    1.0000 </r>
       <r>   -9.2514    1.0000 </r>
       <r>   -8.0974    1.0000 </r>
       <r>   -8.0787    1.0000 </r>
       <r>   -3.9435    1.0000 </r>
       <r>   -3.9148    1.0000 </r>
       <r>    3.3431    1.0000 </r>
       <r>    3.6355    1.0000 </r>
       <r>    6.3900    0.0000 </r>
       <r>    6.4048    0.0000 </r>
       <r>   15.6260    0.0000 </r>
       <r>   15.6804    0.0000 </r>
       <r>   16.3878    0.0000 </r>
       <r>   16.4743    0.0000 </r>
      </set>
      <set comment="kpoint 70">
       <r>   -9.1297    1.0000 </r>
       <r>   -9.0772    1.0000 </r>
       <r>   -7.3383    1.0000 </r>
       <r>   -7.3115    1.0000 </r>
       <r>   -5.2390    1.0000 </r>
       <r>   -5.2267    1.0000 </r>
       <r>    3.8129    1.0000 </r>
       <r>    4.2277    1.0000 </r>
       <r>    5.9925    0.0000 </r>
       <r>    6.2748    0.0000 </r>
       <r>   15.2654    0.0000 </r>
       <r>   15.3619    0.0000 </r>
       <r>   18.4675    0.0000 </r>
       <r>   19.2504    0.0000 </r>
      </set>
      <set comment="kpoint 71">
       <r>  -15.1845    1.0000 </r>
       <r>  -15.1845    1.0000 </r>
       <r>   -2.7492    1.0000 </r>
       <r>   -2.7492    1.0000 </r>
       <r>    2.3912    1.0000 </r>
       <r>    2.3912    1.0000 </r>
       <r>    2.3914    1.0000 </r>
       <r>    2.3914    1.0000 </r>
       <r>   11.8842    0.0000 </r>
       <r>   11.8842    0.0000 </r>
       <r>   13.7821    0.0000 </r>
       <r>   13.7821    0.0000 </r>
       <r>   13.7823    0.0000 </r>
       <r>   13.7823    0.0000 </r>
      </set>
      <set comment="kpoint 72">
       <r>  -14.9474    1.0000 </r>
       <r>  -14.9474    1.0000 </r>
       <r>   -2.5217    1.0000 </r>
       <r>   -2.5217    1.0000 </r>
       <r>    1.2823    1.0000 </r>
       <r>    1.2823    1.0000 </r>
       <r>    1.8267    1.0000 </r>
       <r>    1.8267    1.0000 </r>
       <r>   12.1127    0.0000 </r>
       <r>   12.1127    0.0000 </r>
       <r>   13.6894    0.0000 </r>
       <r>   13.6894    0.0000 </r>
       <r>   14.7722    0.0000 </r>
       <r>   14.7722    0.0000 </r>
      </set>
      <set comment="kpoint 73">
       <r>  -14.2298    1.0000 </r>
       <r>  -14.2298    1.0000 </r>
       <r>   -1.6725    1.0000 </r>
       <r>   -1.6725    1.0000 </r>
       <r>   -1.0542    1.0000 </r>
       <r>   -1.0542    1.0000 </r>
       <r>    0.7907    1.0000 </r>
       <r>    0.7907    1.0000 </r>
       <r>   12.8208    0.0000 </r>
       <r>   12.8208    0.0000 </r>
       <r>   13.3131    0.0000 </r>
       <r>   13.3131    0.0000 </r>
       <r>   14.2727    0.0000 </r>
       <r>   14.2727    0.0000 </r>
      </set>
      <set comment="kpoint 74">
       <r>  -13.0556    1.0000 </r>
       <r>  -13.0556    1.0000 </r>
       <r>   -4.0698    1.0000 </r>
       <r>   -4.0698    1.0000 </r>
       <r>   -0.3063    1.0000 </r>
       <r>   -0.3063    1.0000 </r>
       <r>   -0.3056    1.0000 </r>
       <r>   -0.3056    1.0000 </r>
       <r>   11.1698    0.0000 </r>
       <r>   11.1698    0.0000 </r>
       <r>   12.5857    0.0000 </r>
       <r>   12.5857    0.0000 </r>
       <r>   14.3653    0.0000 </r>
       <r>   14.3653    0.0000 </r>
      </set>
      <set comment="kpoint 75">
       <r>  -11.4440    1.0000 </r>
       <r>  -11.4440    1.0000 </r>
       <r>   -6.7667    1.0000 </r>
       <r>   -6.7667    1.0000 </r>
       <r>   -1.0058    1.0000 </r>
       <r>   -1.0058    1.0000 </r>
       <r>    1.4586    1.0000 </r>
       <r>    1.4586    1.0000 </r>
       <r>    8.3105    0.0000 </r>
       <r>    8.3105    0.0000 </r>
       <r>   12.1829    0.0000 </r>
       <r>   12.1829    0.0000 </r>
       <r>   16.1680    0.0000 </r>
       <r>   16.1680    0.0000 </r>
      </set>
      <set comment="kpoint 76">
       <r>   -9.9145    1.0000 </r>
       <r>   -9.9145    1.0000 </r>
       <r>   -8.6662    1.0000 </r>
       <r>   -8.6662    1.0000 </r>
       <r>   -1.3415    1.0000 </r>
       <r>   -1.3415    1.0000 </r>
       <r>    2.5141    1.0000 </r>
       <r>    2.5141    1.0000 </r>
       <r>    6.7309    0.0000 </r>
       <r>    6.7309    0.0000 </r>
       <r>   11.9987    0.0000 </r>
       <r>   11.9987    0.0000 </r>
       <r>   17.7946    0.0000 </r>
       <r>   17.7946    0.0000 </r>
      </set>
      <set comment="kpoint 77">
       <r>  -14.4690    1.0000 </r>
       <r>  -14.4690    1.0000 </r>
       <r>   -1.9773    1.0000 </r>
       <r>   -1.9773    1.0000 </r>
       <r>   -0.2150    1.0000 </r>
       <r>   -0.2150    1.0000 </r>
       <r>    0.8736    1.0000 </r>
       <r>    0.8736    1.0000 </r>
       <r>   12.6310    0.0000 </r>
       <r>   12.6310    0.0000 </r>
       <r>   14.1306    0.0000 </r>
       <r>   14.1306    0.0000 </r>
       <r>   15.0182    0.0000 </r>
       <r>   15.0186    0.0000 </r>
      </set>
      <set comment="kpoint 78">
       <r>  -13.5245    1.0000 </r>
       <r>  -13.5245    1.0000 </r>
       <r>   -2.6638    1.0000 </r>
       <r>   -2.6638    1.0000 </r>
       <r>   -0.8653    1.0000 </r>
       <r>   -0.8653    1.0000 </r>
       <r>   -0.5127    1.0000 </r>
       <r>   -0.5127    1.0000 </r>
       <r>   12.4292    0.0000 </r>
       <r>   12.4292    0.0000 </r>
       <r>   13.6308    0.0000 </r>
       <r>   13.6308    0.0000 </r>
       <r>   14.1528    0.0000 </r>
       <r>   14.1528    0.0000 </r>
      </set>
      <set comment="kpoint 79">
       <r>  -12.1230    1.0000 </r>
       <r>  -12.1230    1.0000 </r>
       <r>   -5.3354    1.0000 </r>
       <r>   -5.3354    1.0000 </r>
       <r>   -1.4684    1.0000 </r>
       <r>   -1.4684    1.0000 </r>
       <r>    0.7698    1.0000 </r>
       <r>    0.7698    1.0000 </r>
       <r>    9.6391    0.0000 </r>
       <r>    9.6391    0.0000 </r>
       <r>   13.5629    0.0000 </r>
       <r>   13.5629    0.0000 </r>
       <r>   15.2878    0.0000 </r>
       <r>   15.2878    0.0000 </r>
      </set>
      <set comment="kpoint 80">
       <r>  -10.3712    1.0000 </r>
       <r>  -10.3712    1.0000 </r>
       <r>   -7.7854    1.0000 </r>
       <r>   -7.7854    1.0000 </r>
       <r>   -2.0124    1.0000 </r>
       <r>   -2.0124    1.0000 </r>
       <r>    2.4236    1.0000 </r>
       <r>    2.4236    1.0000 </r>
       <r>    7.2022    0.0000 </r>
       <r>    7.2022    0.0000 </r>
       <r>   13.2322    0.0000 </r>
       <r>   13.2322    0.0000 </r>
       <r>   16.9049    0.0000 </r>
       <r>   16.9049    0.0000 </r>
      </set>
      <set comment="kpoint 81">
       <r>  -12.3611    1.0000 </r>
       <r>  -12.3611    1.0000 </r>
       <r>   -4.3162    1.0000 </r>
       <r>   -4.3162    1.0000 </r>
       <r>   -2.4302    1.0000 </r>
       <r>   -2.4302    1.0000 </r>
       <r>    0.4915    1.0000 </r>
       <r>    0.4915    1.0000 </r>
       <r>   10.2200    0.0000 </r>
       <r>   10.2200    0.0000 </r>
       <r>   14.7933    0.0000 </r>
       <r>   14.7933    0.0000 </r>
       <r>   16.2091    0.0000 </r>
       <r>   16.2091    0.0000 </r>
      </set>
      <set comment="kpoint 82">
       <r>  -10.7782    1.0000 </r>
       <r>  -10.7782    1.0000 </r>
       <r>   -6.3495    1.0000 </r>
       <r>   -6.3495    1.0000 </r>
       <r>   -3.5822    1.0000 </r>
       <r>   -3.5822    1.0000 </r>
       <r>    2.2245    1.0000 </r>
       <r>    2.2245    1.0000 </r>
       <r>    7.9642    0.0000 </r>
       <r>    7.9642    0.0000 </r>
       <r>   15.6631    0.0000 </r>
       <r>   15.6631    0.0000 </r>
       <r>   16.3348    0.0000 </r>
       <r>   16.3348    0.0000 </r>
      </set>
      <set comment="kpoint 83">
       <r>   -9.2678    1.0000 </r>
       <r>   -9.2678    1.0000 </r>
       <r>   -8.0899    1.0000 </r>
       <r>   -8.0899    1.0000 </r>
       <r>   -3.9279    1.0000 </r>
       <r>   -3.9279    1.0000 </r>
       <r>    3.4377    1.0000 </r>
       <r>    3.4377    1.0000 </r>
       <r>    6.3946    0.0000 </r>
       <r>    6.3946    0.0000 </r>
       <r>   15.6428    0.0000 </r>
       <r>   15.6428    0.0000 </r>
       <r>   16.4161    0.0000 </r>
       <r>   16.4161    0.0000 </r>
      </set>
      <set comment="kpoint 84">
       <r>   -9.1039    1.0000 </r>
       <r>   -9.1039    1.0000 </r>
       <r>   -7.3248    1.0000 </r>
       <r>   -7.3248    1.0000 </r>
       <r>   -5.2314    1.0000 </r>
       <r>   -5.2314    1.0000 </r>
       <r>    4.0012    1.0000 </r>
       <r>    4.0012    1.0000 </r>
       <r>    6.2039    0.0000 </r>
       <r>    6.2039    0.0000 </r>
       <r>   15.2601    0.0000 </r>
       <r>   15.2601    0.0000 </r>
       <r>   18.9133    0.0000 </r>
       <r>   18.9139    0.0000 </r>
      </set>
     </set>
     <set comment="spin 2">
      <set comment="kpoint 1">
       <r>  -15.3205    1.0000 </r>
       <r>  -15.0416    1.0000 </r>
       <r>   -3.8075    1.0000 </r>
       <r>   -1.6147    1.0000 </r>
       <r>    2.2363    1.0000 </r>
       <r>    2.2366    1.0000 </r>
       <r>    2.3167    1.0000 </r>
       <r>    2.3169    1.0000 </r>
       <r>    9.0769    0.0000 </r>
       <r>   13.5571    0.0000 </r>
       <r>   13.5573    0.0000 </r>
       <r>   13.7686    0.0000 </r>
       <r>   13.7688    0.0000 </r>
       <r>   15.6440    0.0000 </r>
      </set>
      <set comment="kpoint 2">
       <r>  -15.0774    1.0000 </r>
       <r>  -14.8036    1.0000 </r>
       <r>   -3.4989    1.0000 </r>
       <r>   -1.2779    1.0000 </r>
       <r>    1.2191    1.0000 </r>
       <r>    1.3360    1.0000 </r>
       <r>    1.7566    1.0000 </r>
       <r>    1.8601    1.0000 </r>
       <r>    9.3781    0.0000 </r>
       <r>   13.5390    0.0000 </r>
       <r>   13.7922    0.0000 </r>
       <r>   14.6023    0.0000 </r>
       <r>   14.8496    0.0000 </r>
       <r>   15.8944    0.0000 </r>
      </set>
      <set comment="kpoint 3">
       <r>  -14.3532    1.0000 </r>
       <r>  -14.0931    1.0000 </r>
       <r>   -2.5405    1.0000 </r>
       <r>   -1.2083    1.0000 </r>
       <r>   -1.0232    1.0000 </r>
       <r>   -0.4541    1.0000 </r>
       <r>    0.7783    1.0000 </r>
       <r>    0.9115    1.0000 </r>
       <r>   10.2729    0.0000 </r>
       <r>   13.2087    0.0000 </r>
       <r>   13.4033    0.0000 </r>
       <r>   13.9790    0.0000 </r>
       <r>   14.3948    0.0000 </r>
       <r>   16.6954    0.0000 </r>
      </set>
      <set comment="kpoint 4">
       <r>  -13.1838    1.0000 </r>
       <r>  -12.9278    1.0000 </r>
       <r>   -4.2054    1.0000 </r>
       <r>   -3.9434    1.0000 </r>
       <r>   -1.1395    1.0000 </r>
       <r>   -0.4284    1.0000 </r>
       <r>   -0.2897    1.0000 </r>
       <r>    0.6981    1.0000 </r>
       <r>   10.7495    0.0000 </r>
       <r>   11.6022    0.0000 </r>
       <r>   11.7261    0.0000 </r>
       <r>   12.4806    0.0000 </r>
       <r>   12.7590    0.0000 </r>
       <r>   17.6767    0.0000 </r>
      </set>
      <set comment="kpoint 5">
       <r>  -11.5653    1.0000 </r>
       <r>  -11.3349    1.0000 </r>
       <r>   -6.8258    1.0000 </r>
       <r>   -6.6337    1.0000 </r>
       <r>   -1.1620    1.0000 </r>
       <r>   -1.1032    1.0000 </r>
       <r>    0.6936    1.0000 </r>
       <r>    2.2277    1.0000 </r>
       <r>    7.8536    0.0000 </r>
       <r>    8.9161    0.0000 </r>
       <r>   12.0030    0.0000 </r>
       <r>   12.3363    0.0000 </r>
       <r>   13.8028    0.0000 </r>
       <r>   18.8186    0.0000 </r>
      </set>
      <set comment="kpoint 6">
       <r>   -9.9571    1.0000 </r>
       <r>   -9.8703    1.0000 </r>
       <r>   -8.6560    1.0000 </r>
       <r>   -8.5939    1.0000 </r>
       <r>   -1.4110    1.0000 </r>
       <r>   -1.1627    1.0000 </r>
       <r>    2.1454    1.0000 </r>
       <r>    2.9106    1.0000 </r>
       <r>    6.5409    0.0000 </r>
       <r>    7.3024    0.0000 </r>
       <r>   11.8190    0.0000 </r>
       <r>   12.2360    0.0000 </r>
       <r>   16.2799    0.0000 </r>
       <r>   16.4516    0.0000 </r>
      </set>
      <set comment="kpoint 7">
       <r>  -14.5952    1.0000 </r>
       <r>  -14.3294    1.0000 </r>
       <r>   -2.8784    1.0000 </r>
       <r>   -0.7532    1.0000 </r>
       <r>   -0.1878    1.0000 </r>
       <r>   -0.1736    1.0000 </r>
       <r>    0.8016    1.0000 </r>
       <r>    0.8457    1.0000 </r>
       <r>    9.9745    0.0000 </r>
       <r>   14.0967    0.0000 </r>
       <r>   14.2321    0.0000 </r>
       <r>   14.5428    0.0000 </r>
       <r>   15.0237    0.0000 </r>
       <r>   15.4015    0.0000 </r>
      </set>
      <set comment="kpoint 8">
       <r>  -13.6476    1.0000 </r>
       <r>  -13.3896    1.0000 </r>
       <r>   -2.6728    1.0000 </r>
       <r>   -2.5963    1.0000 </r>
       <r>   -1.6928    1.0000 </r>
       <r>   -0.5578    1.0000 </r>
       <r>   -0.5008    1.0000 </r>
       <r>    0.2689    1.0000 </r>
       <r>   11.1580    0.0000 </r>
       <r>   12.0857    0.0000 </r>
       <r>   12.6693    0.0000 </r>
       <r>   13.9095    0.0000 </r>
       <r>   14.1952    0.0000 </r>
       <r>   17.1493    0.0000 </r>
      </set>
      <set comment="kpoint 9">
       <r>  -12.2475    1.0000 </r>
       <r>  -12.0082    1.0000 </r>
       <r>   -5.4859    1.0000 </r>
       <r>   -5.2385    1.0000 </r>
       <r>   -1.5641    1.0000 </r>
       <r>   -1.4988    1.0000 </r>
       <r>   -0.0494    1.0000 </r>
       <r>    1.6704    1.0000 </r>
       <r>    9.1887    0.0000 </r>
       <r>   10.0302    0.0000 </r>
       <r>   12.9031    0.0000 </r>
       <r>   13.3782    0.0000 </r>
       <r>   13.7187    0.0000 </r>
       <r>   17.9486    0.0000 </r>
      </set>
      <set comment="kpoint 10">
       <r>  -10.4687    1.0000 </r>
       <r>  -10.2687    1.0000 </r>
       <r>   -7.8757    1.0000 </r>
       <r>   -7.7081    1.0000 </r>
       <r>   -2.0726    1.0000 </r>
       <r>   -2.0486    1.0000 </r>
       <r>    1.8414    1.0000 </r>
       <r>    3.0324    1.0000 </r>
       <r>    6.8744    0.0000 </r>
       <r>    7.6890    0.0000 </r>
       <r>   13.0188    0.0000 </r>
       <r>   13.4038    0.0000 </r>
       <r>   15.2125    0.0000 </r>
       <r>   17.8176    0.0000 </r>
      </set>
      <set comment="kpoint 11">
       <r>  -12.4751    1.0000 </r>
       <r>  -12.2360    1.0000 </r>
       <r>   -4.3312    1.0000 </r>
       <r>   -4.2101    1.0000 </r>
       <r>   -2.4762    1.0000 </r>
       <r>   -2.4269    1.0000 </r>
       <r>   -0.2567    1.0000 </r>
       <r>    1.5604    1.0000 </r>
       <r>    9.9784    0.0000 </r>
       <r>   10.5338    0.0000 </r>
       <r>   12.6256    0.0000 </r>
       <r>   15.9166    0.0000 </r>
       <r>   16.1934    0.0000 </r>
       <r>   17.1196    0.0000 </r>
      </set>
      <set comment="kpoint 12">
       <r>  -10.8793    1.0000 </r>
       <r>  -10.6655    1.0000 </r>
       <r>   -6.4238    1.0000 </r>
       <r>   -6.3143    1.0000 </r>
       <r>   -3.6605    1.0000 </r>
       <r>   -3.6206    1.0000 </r>
       <r>    1.5554    1.0000 </r>
       <r>    3.0517    1.0000 </r>
[...]
       </set>
       <set comment="band 10">
        <r>  0.0000  0.0001  0.1976  0.0003  0.0000  0.0000  0.0000  0.0000  0.0000 </r>
        <r>  0.0001  0.0001  0.1962  0.0001  0.0000  0.0000  0.0000  0.0000  0.0000 </r>
        <r>  0.0001  0.0001  0.0836  0.0002  0.0000  0.0000  0.0000  0.0000  0.0000 </r>
        <r>  0.0000  0.0003  0.0843  0.0006  0.0000  0.0000  0.0000  0.0000  0.0000 </r>
       </set>
       <set comment="band 11">
        <r>  0.0041  0.0091  0.0158  0.0049  0.0000  0.0000  0.0000  0.0000  0.0000 </r>
        <r>  0.0056  0.0142  0.0188  0.0086  0.0000  0.0000  0.0000  0.0000  0.0000 </r>
        <r>  0.0025  0.0064  0.0418  0.0039  0.0000  0.0000  0.0000  0.0000  0.0000 </r>
        <r>  0.0018  0.0041  0.0352  0.0022  0.0000  0.0000  0.0000  0.0000  0.0000 </r>
       </set>
       <set comment="band 12">
        <r>  0.0018  0.0041  0.0352  0.0022  0.0000  0.0000  0.0000  0.0000  0.0000 </r>
        <r>  0.0025  0.0064  0.0418  0.0039  0.0000  0.0000  0.0000  0.0000  0.0000 </r>
        <r>  0.0056  0.0142  0.0188  0.0086  0.0000  0.0000  0.0000  0.0000  0.0000 </r>
        <r>  0.0041  0.0091  0.0158  0.0049  0.0000  0.0000  0.0000  0.0000  0.0000 </r>
       </set>
       <set comment="band 13">
        <r>  0.0343  0.0398  0.0029  0.0702  0.0000  0.0000  0.0000  0.0000  0.0000 </r>
        <r>  0.0334  0.0404  0.0000  0.0713  0.0000  0.0000  0.0000  0.0000  0.0000 </r>
        <r>  0.0155  0.0189  0.0000  0.0333  0.0000  0.0000  0.0000  0.0000  0.0000 </r>
        <r>  0.0161  0.0185  0.0062  0.0327  0.0000  0.0000  0.0000  0.0000  0.0000 </r>
       </set>
       <set comment="band 14">
        <r>  0.0162  0.0184  0.0062  0.0325  0.0000  0.0000  0.0000  0.0000  0.0000 </r>
        <r>  0.0154  0.0190  0.0000  0.0335  0.0000  0.0000  0.0000  0.0000  0.0000 </r>
        <r>  0.0334  0.0404  0.0000  0.0713  0.0000  0.0000  0.0000  0.0000  0.0000 </r>
        <r>  0.0343  0.0398  0.0029  0.0702  0.0000  0.0000  0.0000  0.0000  0.0000 </r>
       </set>
      </set>
      <set comment="kpoint 82">
       <set comment="band 1">
        <r>  0.0625  0.0135  0.0000  0.0075  0.0000  0.0000  0.0000  0.0000  0.0000 </r>
        <r>  0.0627  0.0135  0.0000  0.0075  0.0000  0.0000  0.0000  0.0000  0.0000 </r>
        <r>  0.1862  0.0401  0.0000  0.0223  0.0000  0.0000  0.0000  0.0000  0.0000 </r>
        <r>  0.1856  0.0401  0.0000  0.0224  0.0000  0.0000  0.0000  0.0000  0.0000 </r>
       </set>
       <set comment="band 2">
        <r>  0.1856  0.0401  0.0000  0.0224  0.0000  0.0000  0.0000  0.0000  0.0000 </r>
        <r>  0.1862  0.0401  0.0000  0.0223  0.0000  0.0000  0.0000  0.0000  0.0000 </r>
        <r>  0.0627  0.0135  0.0000  0.0075  0.0000  0.0000  0.0000  0.0000  0.0000 </r>
        <r>  0.0625  0.0135  0.0000  0.0075  0.0000  0.0000  0.0000  0.0000  0.0000 </r>
       </set>
       <set comment="band 3">
        <r>  0.0752  0.0189  0.0000  0.0642  0.0000  0.0000  0.0000  0.0000  0.0000 </r>
        <r>  0.0750  0.0190  0.0000  0.0643  0.0000  0.0000  0.0000  0.0000  0.0000 </r>
        <r>  0.0945  0.0240  0.0000  0.0810  0.0000  0.0000  0.0000  0.0000  0.0000 </r>
        <r>  0.0948  0.0238  0.0000  0.0809  0.0000  0.0000  0.0000  0.0000  0.0000 </r>
       </set>
       <set comment="band 4">
        <r>  0.0948  0.0238  0.0000  0.0809  0.0000  0.0000  0.0000  0.0000  0.0000 </r>
        <r>  0.0945  0.0240  0.0000  0.0810  0.0000  0.0000  0.0000  0.0000  0.0000 </r>
        <r>  0.0750  0.0190  0.0000  0.0643  0.0000  0.0000  0.0000  0.0000  0.0000 </r>
        <r>  0.0752  0.0189  0.0000  0.0642  0.0000  0.0000  0.0000  0.0000  0.0000 </r>
       </set>
       <set comment="band 5">
        <r>  0.0159  0.1002  0.0000  0.0548  0.0000  0.0000  0.0000  0.0000  0.0000 </r>
        <r>  0.0158  0.1003  0.0000  0.0549  0.0000  0.0000  0.0000  0.0000  0.0000 </r>
        <r>  0.0170  0.1079  0.0000  0.0591  0.0000  0.0000  0.0000  0.0000  0.0000 </r>
        <r>  0.0171  0.1078  0.0000  0.0590  0.0000  0.0000  0.0000  0.0000  0.0000 </r>
       </set>
       <set comment="band 6">
        <r>  0.0171  0.1078  0.0000  0.0590  0.0000  0.0000  0.0000  0.0000  0.0000 </r>
        <r>  0.0170  0.1079  0.0000  0.0591  0.0000  0.0000  0.0000  0.0000  0.0000 </r>
        <r>  0.0158  0.1003  0.0000  0.0549  0.0000  0.0000  0.0000  0.0000  0.0000 </r>
        <r>  0.0159  0.1002  0.0000  0.0548  0.0000  0.0000  0.0000  0.0000  0.0000 </r>
       </set>
       <set comment="band 7">
        <r>  0.0001  0.0003  0.0783  0.0002  0.0000  0.0000  0.0000  0.0000  0.0000 </r>
        <r>  0.0004  0.0002  0.0788  0.0001  0.0000  0.0000  0.0000  0.0000  0.0000 </r>
        <r>  0.0002  0.0001  0.1616  0.0001  0.0000  0.0000  0.0000  0.0000  0.0000 </r>
        <r>  0.0001  0.0001  0.1604  0.0001  0.0000  0.0000  0.0000  0.0000  0.0000 </r>
       </set>
       <set comment="band 8">
        <r>  0.0001  0.0001  0.1604  0.0001  0.0000  0.0000  0.0000  0.0000  0.0000 </r>
        <r>  0.0002  0.0001  0.1616  0.0001  0.0000  0.0000  0.0000  0.0000  0.0000 </r>
        <r>  0.0004  0.0002  0.0788  0.0001  0.0000  0.0000  0.0000  0.0000  0.0000 </r>
        <r>  0.0001  0.0003  0.0783  0.0002  0.0000  0.0000  0.0000  0.0000  0.0000 </r>
       </set>
       <set comment="band 9">
        <r>  0.0001  0.0001  0.1287  0.0004  0.0000  0.0000  0.0000  0.0000  0.0000 </r>
        <r>  0.0001  0.0001  0.1274  0.0002  0.0000  0.0000  0.0000  0.0000  0.0000 </r>
        <r>  0.0001  0.0001  0.1302  0.0002  0.0000  0.0000  0.0000  0.0000  0.0000 </r>
        <r>  0.0001  0.0001  0.1316  0.0004  0.0000  0.0000  0.0000  0.0000  0.0000 </r>
       </set>
       <set comment="band 10">
        <r>  0.0001  0.0001  0.1316  0.0004  0.0000  0.0000  0.0000  0.0000  0.0000 </r>
        <r>  0.0001  0.0001  0.1302  0.0002  0.0000  0.0000  0.0000  0.0000  0.0000 </r>
        <r>  0.0001  0.0001  0.1274  0.0002  0.0000  0.0000  0.0000  0.0000  0.0000 </r>
        <r>  0.0001  0.0001  0.1287  0.0004  0.0000  0.0000  0.0000  0.0000  0.0000 </r>
       </set>
       <set comment="band 11">
        <r>  0.0000  0.0000  0.0289  0.0001  0.0000  0.0000  0.0000  0.0000  0.0000 </r>
        <r>  0.0001  0.0002  0.0347  0.0002  0.0000  0.0000  0.0000  0.0000  0.0000 </r>
        <r>  0.0240  0.0471  0.0001  0.0438  0.0000  0.0000  0.0000  0.0000  0.0000 </r>
        <r>  0.0068  0.0080  0.0001  0.0213  0.0000  0.0000  0.0000  0.0000  0.0000 </r>
       </set>
       <set comment="band 12">
        <r>  0.0068  0.0080  0.0001  0.0213  0.0000  0.0000  0.0000  0.0000  0.0000 </r>
        <r>  0.0240  0.0471  0.0001  0.0438  0.0000  0.0000  0.0000  0.0000  0.0000 </r>
        <r>  0.0001  0.0002  0.0347  0.0002  0.0000  0.0000  0.0000  0.0000  0.0000 </r>
        <r>  0.0000  0.0000  0.0289  0.0001  0.0000  0.0000  0.0000  0.0000  0.0000 </r>
       </set>
       <set comment="band 13">
        <r>  0.0592  0.0495  0.0071  0.0337  0.0000  0.0000  0.0000  0.0000  0.0000 </r>
        <r>  0.0451  0.0224  0.0059  0.0251  0.0000  0.0000  0.0000  0.0000  0.0000 </r>
        <r>  0.0272  0.0135  0.0098  0.0151  0.0000  0.0000  0.0000  0.0000  0.0000 </r>
        <r>  0.0356  0.0298  0.0117  0.0203  0.0000  0.0000  0.0000  0.0000  0.0000 </r>
       </set>
       <set comment="band 14">
        <r>  0.0356  0.0298  0.0117  0.0203  0.0000  0.0000  0.0000  0.0000  0.0000 </r>
        <r>  0.0272  0.0135  0.0098  0.0151  0.0000  0.0000  0.0000  0.0000  0.0000 </r>
        <r>  0.0451  0.0224  0.0059  0.0251  0.0000  0.0000  0.0000  0.0000  0.0000 </r>
        <r>  0.0592  0.0495  0.0071  0.0337  0.0000  0.0000  0.0000  0.0000  0.0000 </r>
       </set>
      </set>
      <set comment="kpoint 83">
       <set comment="band 1">
        <r>  0.2346  0.0288  0.0000  0.0466  0.0000  0.0000  0.0000  0.0000  0.0000 </r>
        <r>  0.2370  0.0285  0.0000  0.0459  0.0000  0.0000  0.0000  0.0000  0.0000 </r>
        <r>  0.0280  0.0034  0.0000  0.0054  0.0000  0.0000  0.0000  0.0000  0.0000 </r>
        <r>  0.0277  0.0034  0.0000  0.0055  0.0000  0.0000  0.0000  0.0000  0.0000 </r>
       </set>
       <set comment="band 2">
        <r>  0.0277  0.0034  0.0000  0.0055  0.0000  0.0000  0.0000  0.0000  0.0000 </r>
        <r>  0.0280  0.0034  0.0000  0.0054  0.0000  0.0000  0.0000  0.0000  0.0000 </r>
        <r>  0.2370  0.0285  0.0000  0.0459  0.0000  0.0000  0.0000  0.0000  0.0000 </r>
        <r>  0.2346  0.0288  0.0000  0.0466  0.0000  0.0000  0.0000  0.0000  0.0000 </r>
       </set>
       <set comment="band 3">
        <r>  0.0995  0.0303  0.0000  0.0906  0.0000  0.0000  0.0000  0.0000  0.0000 </r>
        <r>  0.0979  0.0305  0.0000  0.0914  0.0000  0.0000  0.0000  0.0000  0.0000 </r>
        <r>  0.0503  0.0157  0.0000  0.0469  0.0000  0.0000  0.0000  0.0000  0.0000 </r>
        <r>  0.0510  0.0155  0.0000  0.0465  0.0000  0.0000  0.0000  0.0000  0.0000 </r>
       </set>
       <set comment="band 4">
        <r>  0.0510  0.0155  0.0000  0.0465  0.0000  0.0000  0.0000  0.0000  0.0000 </r>
        <r>  0.0503  0.0157  0.0000  0.0469  0.0000  0.0000  0.0000  0.0000  0.0000 </r>
        <r>  0.0979  0.0305  0.0000  0.0914  0.0000  0.0000  0.0000  0.0000  0.0000 </r>
        <r>  0.0995  0.0303  0.0000  0.0906  0.0000  0.0000  0.0000  0.0000  0.0000 </r>
       </set>
       <set comment="band 5">
        <r>  0.0344  0.1918  0.0000  0.0771  0.0000  0.0000  0.0000  0.0000  0.0000 </r>
        <r>  0.0343  0.1921  0.0000  0.0772  0.0000  0.0000  0.0000  0.0000  0.0000 </r>
        <r>  0.0058  0.0323  0.0000  0.0130  0.0000  0.0000  0.0000  0.0000  0.0000 </r>
        <r>  0.0058  0.0323  0.0000  0.0130  0.0000  0.0000  0.0000  0.0000  0.0000 </r>
       </set>
       <set comment="band 6">
        <r>  0.0058  0.0323  0.0000  0.0130  0.0000  0.0000  0.0000  0.0000  0.0000 </r>
        <r>  0.0058  0.0323  0.0000  0.0130  0.0000  0.0000  0.0000  0.0000  0.0000 </r>
        <r>  0.0343  0.1921  0.0000  0.0772  0.0000  0.0000  0.0000  0.0000  0.0000 </r>
        <r>  0.0344  0.1918  0.0000  0.0771  0.0000  0.0000  0.0000  0.0000  0.0000 </r>
       </set>
       <set comment="band 7">
        <r>  0.0000  0.0002  0.0210  0.0006  0.0000  0.0000  0.0000  0.0000  0.0000 </r>
        <r>  0.0004  0.0001  0.0213  0.0002  0.0000  0.0000  0.0000  0.0000  0.0000 </r>
        <r>  0.0000  0.0000  0.2360  0.0000  0.0000  0.0000  0.0000  0.0000  0.0000 </r>
        <r>  0.0000  0.0000  0.2331  0.0001  0.0000  0.0000  0.0000  0.0000  0.0000 </r>
       </set>
       <set comment="band 8">
        <r>  0.0000  0.0000  0.2331  0.0001  0.0000  0.0000  0.0000  0.0000  0.0000 </r>
        <r>  0.0000  0.0000  0.2360  0.0000  0.0000  0.0000  0.0000  0.0000  0.0000 </r>
        <r>  0.0004  0.0001  0.0213  0.0002  0.0000  0.0000  0.0000  0.0000  0.0000 </r>
        <r>  0.0000  0.0002  0.0210  0.0006  0.0000  0.0000  0.0000  0.0000  0.0000 </r>
       </set>
       <set comment="band 9">
        <r>  0.0001  0.0001  0.2042  0.0000  0.0000  0.0000  0.0000  0.0000  0.0000 </r>
        <r>  0.0000  0.0000  0.2012  0.0001  0.0000  0.0000  0.0000  0.0000  0.0000 </r>
        <r>  0.0001  0.0002  0.0392  0.0004  0.0000  0.0000  0.0000  0.0000  0.0000 </r>
        <r>  0.0003  0.0004  0.0398  0.0001  0.0000  0.0000  0.0000  0.0000  0.0000 </r>
       </set>
       <set comment="band 10">
        <r>  0.0003  0.0004  0.0398  0.0001  0.0000  0.0000  0.0000  0.0000  0.0000 </r>
        <r>  0.0001  0.0002  0.0392  0.0004  0.0000  0.0000  0.0000  0.0000  0.0000 </r>
        <r>  0.0000  0.0000  0.2012  0.0001  0.0000  0.0000  0.0000  0.0000  0.0000 </r>
        <r>  0.0001  0.0001  0.2042  0.0000  0.0000  0.0000  0.0000  0.0000  0.0000 </r>
       </set>
       <set comment="band 11">
        <r>  0.0229  0.0224  0.0039  0.0133  0.0000  0.0000  0.0000  0.0000  0.0000 </r>
        <r>  0.0333  0.0428  0.0043  0.0332  0.0000  0.0000  0.0000  0.0000  0.0000 </r>
        <r>  0.0232  0.0298  0.0061  0.0231  0.0000  0.0000  0.0000  0.0000  0.0000 </r>
        <r>  0.0160  0.0156  0.0057  0.0092  0.0000  0.0000  0.0000  0.0000  0.0000 </r>
       </set>
       <set comment="band 12">
        <r>  0.0160  0.0156  0.0057  0.0092  0.0000  0.0000  0.0000  0.0000  0.0000 </r>
        <r>  0.0232  0.0298  0.0061  0.0231  0.0000  0.0000  0.0000  0.0000  0.0000 </r>
        <r>  0.0333  0.0428  0.0043  0.0332  0.0000  0.0000  0.0000  0.0000  0.0000 </r>
        <r>  0.0229  0.0224  0.0039  0.0133  0.0000  0.0000  0.0000  0.0000  0.0000 </r>
       </set>
       <set comment="band 13">
        <r>  0.0440  0.0382  0.0092  0.0237  0.0000  0.0000  0.0000  0.0000  0.0000 </r>
        <r>  0.0296  0.0131  0.0097  0.0046  0.0000  0.0000  0.0000  0.0000  0.0000 </r>
        <r>  0.0169  0.0075  0.0169  0.0026  0.0000  0.0000  0.0000  0.0000  0.0000 </r>
        <r>  0.0251  0.0218  0.0160  0.0135  0.0000  0.0000  0.0000  0.0000  0.0000 </r>
       </set>
       <set comment="band 14">
        <r>  0.0251  0.0218  0.0160  0.0135  0.0000  0.0000  0.0000  0.0000  0.0000 </r>
        <r>  0.0169  0.0075  0.0169  0.0026  0.0000  0.0000  0.0000  0.0000  0.0000 </r>
        <r>  0.0296  0.0131  0.0097  0.0046  0.0000  0.0000  0.0000  0.0000  0.0000 </r>
        <r>  0.0440  0.0382  0.0092  0.0237  0.0000  0.0000  0.0000  0.0000  0.0000 </r>
       </set>
      </set>
      <set comment="kpoint 84">
       <set comment="band 1">
        <r>  0.1614  0.0498  0.0000  0.0228  0.0000  0.0000  0.0000  0.0000  0.0000 </r>
        <r>  0.1629  0.0495  0.0000  0.0226  0.0000  0.0000  0.0000  0.0000  0.0000 </r>
        <r>  0.0764  0.0232  0.0000  0.0106  0.0000  0.0000  0.0000  0.0000  0.0000 </r>
        <r>  0.0757  0.0234  0.0000  0.0107  0.0000  0.0000  0.0000  0.0000  0.0000 </r>
       </set>
       <set comment="band 2">
        <r>  0.0757  0.0234  0.0000  0.0107  0.0000  0.0000  0.0000  0.0000  0.0000 </r>
        <r>  0.0764  0.0232  0.0000  0.0106  0.0000  0.0000  0.0000  0.0000  0.0000 </r>
        <r>  0.1629  0.0495  0.0000  0.0226  0.0000  0.0000  0.0000  0.0000  0.0000 </r>
        <r>  0.1614  0.0498  0.0000  0.0228  0.0000  0.0000  0.0000  0.0000  0.0000 </r>
       </set>
       <set comment="band 3">
        <r>  0.0369  0.0132  0.0000  0.0111  0.0000  0.0000  0.0000  0.0000  0.0000 </r>
        <r>  0.0366  0.0134  0.0000  0.0111  0.0000  0.0000  0.0000  0.0000  0.0000 </r>
        <r>  0.1748  0.0640  0.0000  0.0532  0.0000  0.0000  0.0000  0.0000  0.0000 </r>
        <r>  0.1763  0.0633  0.0000  0.0528  0.0000  0.0000  0.0000  0.0000  0.0000 </r>
       </set>
       <set comment="band 4">
        <r>  0.1763  0.0633  0.0000  0.0528  0.0000  0.0000  0.0000  0.0000  0.0000 </r>
        <r>  0.1748  0.0640  0.0000  0.0532  0.0000  0.0000  0.0000  0.0000  0.0000 </r>
        <r>  0.0366  0.0134  0.0000  0.0111  0.0000  0.0000  0.0000  0.0000  0.0000 </r>
        <r>  0.0369  0.0132  0.0000  0.0111  0.0000  0.0000  0.0000  0.0000  0.0000 </r>
       </set>
       <set comment="band 5">
        <r>  0.0032  0.0332  0.0000  0.0479  0.0000  0.0000  0.0000  0.0000  0.0000 </r>
        <r>  0.0032  0.0332  0.0000  0.0480  0.0000  0.0000  0.0000  0.0000  0.0000 </r>
        <r>  0.0092  0.0959  0.0000  0.1387  0.0000  0.0000  0.0000  0.0000  0.0000 </r>
        <r>  0.0093  0.0959  0.0000  0.1384  0.0000  0.0000  0.0000  0.0000  0.0000 </r>
       </set>
       <set comment="band 6">
        <r>  0.0093  0.0959  0.0000  0.1384  0.0000  0.0000  0.0000  0.0000  0.0000 </r>
        <r>  0.0092  0.0959  0.0000  0.1387  0.0000  0.0000  0.0000  0.0000  0.0000 </r>
        <r>  0.0032  0.0332  0.0000  0.0480  0.0000  0.0000  0.0000  0.0000  0.0000 </r>
        <r>  0.0032  0.0332  0.0000  0.0479  0.0000  0.0000  0.0000  0.0000  0.0000 </r>
       </set>
       <set comment="band 7">
        <r>  0.0000  0.0002  0.1671  0.0001  0.0000  0.0000  0.0000  0.0000  0.0000 </r>
        <r>  0.0001  0.0001  0.1696  0.0000  0.0000  0.0000  0.0000  0.0000  0.0000 </r>
        <r>  0.0002  0.0002  0.0835  0.0001  0.0000  0.0000  0.0000  0.0000  0.0000 </r>
        <r>  0.0000  0.0004  0.0822  0.0001  0.0000  0.0000  0.0000  0.0000  0.0000 </r>
       </set>
       <set comment="band 8">
        <r>  0.0000  0.0004  0.0822  0.0001  0.0000  0.0000  0.0000  0.0000  0.0000 </r>
        <r>  0.0002  0.0002  0.0835  0.0001  0.0000  0.0000  0.0000  0.0000  0.0000 </r>
        <r>  0.0001  0.0001  0.1696  0.0000  0.0000  0.0000  0.0000  0.0000  0.0000 </r>
        <r>  0.0000  0.0002  0.1671  0.0001  0.0000  0.0000  0.0000  0.0000  0.0000 </r>
       </set>
       <set comment="band 9">
        <r>  0.0000  0.0001  0.1839  0.0002  0.0000  0.0000  0.0000  0.0000  0.0000 </r>
        <r>  0.0000  0.0001  0.1810  0.0001  0.0000  0.0000  0.0000  0.0000  0.0000 </r>
        <r>  0.0001  0.0002  0.0750  0.0002  0.0000  0.0000  0.0000  0.0000  0.0000 </r>
        <r>  0.0000  0.0002  0.0762  0.0005  0.0000  0.0000  0.0000  0.0000  0.0000 </r>
       </set>
       <set comment="band 10">
        <r>  0.0000  0.0002  0.0762  0.0005  0.0000  0.0000  0.0000  0.0000  0.0000 </r>
        <r>  0.0001  0.0002  0.0750  0.0002  0.0000  0.0000  0.0000  0.0000  0.0000 </r>
        <r>  0.0000  0.0001  0.1810  0.0001  0.0000  0.0000  0.0000  0.0000  0.0000 </r>
        <r>  0.0000  0.0001  0.1839  0.0002  0.0000  0.0000  0.0000  0.0000  0.0000 </r>
       </set>
       <set comment="band 11">
        <r>  0.0000  0.0000  0.0062  0.0000  0.0000  0.0000  0.0000  0.0000  0.0000 </r>
        <r>  0.0001  0.0015  0.0066  0.0014  0.0000  0.0000  0.0000  0.0000  0.0000 </r>
        <r>  0.0007  0.0170  0.0006  0.0156  0.0000  0.0000  0.0000  0.0000  0.0000 </r>
        <r>  0.0002  0.0000  0.0005  0.0000  0.0000  0.0000  0.0000  0.0000  0.0000 </r>
       </set>
       <set comment="band 12">
        <r>  0.0002  0.0000  0.0005  0.0000  0.0000  0.0000  0.0000  0.0000  0.0000 </r>
        <r>  0.0007  0.0170  0.0006  0.0156  0.0000  0.0000  0.0000  0.0000  0.0000 </r>
        <r>  0.0001  0.0015  0.0066  0.0014  0.0000  0.0000  0.0000  0.0000  0.0000 </r>
        <r>  0.0000  0.0000  0.0062  0.0000  0.0000  0.0000  0.0000  0.0000  0.0000 </r>
       </set>
       <set comment="band 13">
        <r>  0.0081  0.0580  0.0005  0.0621  0.0000  0.0000  0.0000  0.0000  0.0000 </r>
        <r>  0.0211  0.0048  0.0181  0.0046  0.0000  0.0000  0.0000  0.0000  0.0000 </r>
        <r>  0.0386  0.0087  0.0099  0.0083  0.0000  0.0000  0.0000  0.0000  0.0000 </r>
        <r>  0.0147  0.1057  0.0003  0.1135  0.0000  0.0000  0.0000  0.0000  0.0000 </r>
       </set>
       <set comment="band 14">
        <r>  0.0147  0.1054  0.0003  0.1136  0.0000  0.0000  0.0000  0.0000  0.0000 </r>
        <r>  0.0385  0.0086  0.0099  0.0085  0.0000  0.0000  0.0000  0.0000  0.0000 </r>
        <r>  0.0211  0.0049  0.0181  0.0045  0.0000  0.0000  0.0000  0.0000  0.0000 </r>
        <r>  0.0081  0.0584  0.0005  0.0616  0.0000  0.0000  0.0000  0.0000  0.0000 </r>
       </set>
      </set>
     </set>
    </set>
   </array>
  </projected>
 </calculation>
 <structure name="finalpos" >
  <crystal>
   <varray name="basis" >
    <v>       2.46120000       0.00000000       0.00000000 </v>
    <v>      -1.23060000       2.13146172       0.00000000 </v>
    <v>       0.00000000       0.00000000       6.70790000 </v>
   </varray>
   <i name="volume">     35.18933212 </i>
   <varray name="rec_basis" >
    <v>       0.40630587       0.23458080       0.00000000 </v>
    <v>       0.00000000       0.46916160       0.00000000 </v>
    <v>       0.00000000       0.00000000       0.14907795 </v>
   </varray>
  </crystal>
  <varray name="positions" >
   <v>       0.00000000       0.00000000       0.00000000 </v>
   <v>       0.33333333       0.66666667       0.00000000 </v>
   <v>       0.33333333       0.66666667       0.50000000 </v>
   <v>       0.66666667       0.33333333       0.50000000 </v>
  </varray>
 </structure>
</modeling>
