   1   1   1   0
  0.1813235E+02  0.2866544E-09  0.2866544E-09  0.2866544E-09  0.5000000E-15
  1.000000000000000E-004
  CAR 
 unknown system                          
     16.23966639     -2.95679304  301      5.69175824      1.00000000
     -2.957  0.0000E+00  0.0000E+00  0.0000E+00  0.0000E+00
     -2.893  0.0000E+00  0.0000E+00  0.0000E+00  0.0000E+00
     -2.829  0.0000E+00  0.0000E+00  0.0000E+00  0.0000E+00
     -2.765  0.0000E+00  0.0000E+00  0.0000E+00  0.0000E+00
     -2.701  0.0000E+00  0.0000E+00  0.0000E+00  0.0000E+00
     -2.637  0.0000E+00  0.0000E+00  0.0000E+00  0.0000E+00
     -2.573  0.0000E+00  0.0000E+00  0.0000E+00  0.0000E+00
     -2.509 -0.4227E-37 -0.3865E-32 -0.2705E-38 -0.2473E-33
     -2.445 -0.1034E-27 -0.1761E-23 -0.6617E-29 -0.1127E-24
     -2.381 -0.9308E-20 -0.2935E-16 -0.5956E-21 -0.1878E-17
     -2.317 -0.2941E-13 -0.1684E-10 -0.1882E-14 -0.1078E-11
     -2.253 -0.3338E-08 -0.3390E-06 -0.2136E-09 -0.2169E-07
     -2.189 -0.1229E-04 -0.1988E-03 -0.7869E-06 -0.1274E-04
     -2.125 -0.9830E-03  0.4165E-03 -0.6369E-04  0.1391E-04
     -2.061  0.1279E-01  0.2885E-01  0.7548E-03  0.1860E-02
     -1.997  0.2348E-01  0.5645E-02  0.2257E-02  0.2221E-02
     -1.933 -0.1423E-02 -0.2083E-02  0.2166E-02  0.2088E-02
     -1.869  0.2148E-02  0.2244E-01  0.2304E-02  0.3524E-02
     -1.805  0.3967E-01  0.2627E-01  0.4842E-02  0.5205E-02
     -1.741  0.4407E-02 -0.3660E-02  0.5124E-02  0.4971E-02
     -1.677 -0.5037E-02  0.2013E-01  0.4801E-02  0.6259E-02
     -1.613  0.8839E-01  0.1167E+00  0.1046E-01  0.1372E-01
     -1.549  0.5727E-01  0.2817E-02  0.1412E-01  0.1390E-01
     -1.485 -0.4209E-02 -0.8826E-03  0.1385E-01  0.1385E-01
     -1.421 -0.6383E-04 -0.2250E-05  0.1385E-01  0.1385E-01
     -1.357 -0.2696E-04 -0.5348E-03  0.1385E-01  0.1381E-01
     -1.293 -0.3561E-02 -0.3140E-02  0.1362E-01  0.1361E-01
     -1.229  0.4029E-01  0.1268E+00  0.1620E-01  0.2173E-01
     -1.165  0.1353E+00  0.5180E-01  0.2485E-01  0.2504E-01
     -1.101 -0.2116E-02 -0.8823E-02  0.2472E-01  0.2448E-01
     -1.037  0.1420E-01  0.8273E-01  0.2563E-01  0.2977E-01
     -0.973  0.1187E+00  0.6279E-01  0.3322E-01  0.3379E-01
     -0.909  0.2776E-02 -0.6746E-02  0.3340E-01  0.3335E-01
     -0.845  0.3469E-01  0.1061E+00  0.3562E-01  0.4014E-01
     -0.781  0.1067E+00  0.3643E-01  0.4244E-01  0.4248E-01
     -0.717 -0.2189E-02 -0.3126E-02  0.4230E-01  0.4228E-01
     -0.653 -0.4796E-03 -0.2653E-04  0.4227E-01  0.4227E-01
     -0.589 -0.6997E-04 -0.1062E-02  0.4227E-01  0.4221E-01
     -0.525 -0.5454E-02 -0.6516E-03  0.4192E-01  0.4216E-01
     -0.461  0.6548E-01  0.1852E+00  0.4611E-01  0.5401E-01
     -0.397  0.2052E+00  0.9189E-01  0.5924E-01  0.5989E-01
     -0.333  0.2006E-01  0.7019E-01  0.6052E-01  0.6438E-01
     -0.269  0.1176E+00  0.6895E-01  0.6805E-01  0.6880E-01
     -0.205  0.5568E-02 -0.1399E-01  0.6840E-01  0.6790E-01
     -0.141  0.2190E-01  0.1533E+00  0.6980E-01  0.7771E-01
     -0.077  0.2388E+00  0.1390E+00  0.8508E-01  0.8661E-01
     -0.013  0.1699E-01 -0.9365E-02  0.8617E-01  0.8601E-01
      0.051 -0.4208E-02 -0.4900E-02  0.8590E-01  0.8570E-01
      0.115  0.1315E-01  0.7963E-01  0.8674E-01  0.9079E-01
      0.179  0.1191E+00  0.6612E-01  0.9437E-01  0.9502E-01
      0.243  0.6031E-02 -0.1353E-02  0.9475E-01  0.9494E-01
      0.307  0.1801E-01  0.2631E-01  0.9590E-01  0.9662E-01
      0.371  0.1424E-01  0.3999E-01  0.9682E-01  0.9918E-01
      0.435  0.1164E+00  0.1347E+00  0.1043E+00  0.1078E+00
      0.499  0.1474E+00  0.2913E+00  0.1137E+00  0.1264E+00
      0.563  0.3272E+00  0.1377E+00  0.1346E+00  0.1352E+00
      0.627  0.1891E-01  0.7224E-01  0.1358E+00  0.1399E+00
      0.691  0.1162E+00  0.6030E-01  0.1433E+00  0.1437E+00
      0.755 -0.3594E-02  0.3339E-02  0.1430E+00  0.1439E+00
      0.819  0.1294E+00  0.3063E+00  0.1513E+00  0.1635E+00
      0.882  0.2903E+00  0.1027E+00  0.1699E+00  0.1701E+00
      0.946  0.1936E-01  0.8249E-01  0.1711E+00  0.1754E+00
      1.010  0.1146E+00  0.5388E-01  0.1785E+00  0.1788E+00
      1.074  0.2249E-02 -0.5164E-02  0.1786E+00  0.1785E+00
      1.138 -0.5389E-02  0.5238E-02  0.1783E+00  0.1788E+00
      1.202  0.6298E-01  0.1152E+00  0.1823E+00  0.1862E+00
      1.266  0.1062E+00  0.9848E-01  0.1891E+00  0.1925E+00
      1.330  0.1698E+00  0.4173E+00  0.2000E+00  0.2192E+00
      1.394  0.6699E+00  0.6254E+00  0.2428E+00  0.2592E+00
      1.458  0.4854E+00  0.5391E+00  0.2739E+00  0.2937E+00
      1.522  0.4942E+00  0.1977E+00  0.3055E+00  0.3064E+00
      1.586 -0.7370E-02 -0.3820E-01  0.3050E+00  0.3039E+00
      1.650  0.6962E-01  0.3902E+00  0.3095E+00  0.3289E+00
      1.714  0.5844E+00  0.3776E+00  0.3469E+00  0.3531E+00
      1.778  0.1937E+00  0.2881E+00  0.3593E+00  0.3715E+00
      1.842  0.3829E+00  0.3409E+00  0.3838E+00  0.3933E+00
      1.906  0.2584E+00  0.1248E+00  0.4003E+00  0.4013E+00
      1.970  0.2772E-01  0.1803E+00  0.4021E+00  0.4128E+00
      2.034  0.4849E+00  0.4577E+00  0.4331E+00  0.4421E+00
      2.098  0.1673E+00  0.1397E+00  0.4438E+00  0.4511E+00
      2.162  0.3655E+00  0.6304E+00  0.4672E+00  0.4914E+00
      2.226  0.9336E+00  0.8792E+00  0.5270E+00  0.5477E+00
      2.290  0.4184E+00  0.1075E+00  0.5537E+00  0.5545E+00
      2.354  0.1553E+00  0.3562E+00  0.5637E+00  0.5773E+00
      2.418  0.4768E+00  0.5322E+00  0.5942E+00  0.6114E+00
      2.482  0.5485E+00  0.4565E+00  0.6293E+00  0.6406E+00
      2.546  0.2774E+00  0.1029E+00  0.6470E+00  0.6472E+00
      2.610  0.9348E-01  0.3198E+00  0.6530E+00  0.6676E+00
      2.674  0.6567E+00  0.6407E+00  0.6950E+00  0.7086E+00
      2.738  0.4105E+00  0.3023E+00  0.7213E+00  0.7280E+00
      2.802  0.3949E+00  0.7902E+00  0.7466E+00  0.7785E+00
      2.866  0.1001E+01  0.7507E+00  0.8106E+00  0.8266E+00
      2.930  0.5255E+00  0.4959E+00  0.8443E+00  0.8583E+00
      2.994  0.6652E+00  0.9007E+00  0.8868E+00  0.9159E+00
      3.058  0.8644E+00  0.5516E+00  0.9421E+00  0.9512E+00
      3.122  0.2146E+00  0.1000E+00  0.9559E+00  0.9576E+00
      3.186  0.5232E-01  0.6920E-01  0.9592E+00  0.9621E+00
      3.250  0.1632E+00  0.2642E+00  0.9697E+00  0.9790E+00
      3.314  0.3934E+00  0.4491E+00  0.9948E+00  0.1008E+01
      3.378  0.4573E+00  0.4464E+00  0.1024E+01  0.1036E+01
      3.442  0.3390E+00  0.2579E+00  0.1046E+01  0.1053E+01
      3.506  0.2160E+00  0.1638E+00  0.1060E+01  0.1063E+01
      3.570  0.1410E+00  0.1436E+00  0.1069E+01  0.1072E+01
      3.634  0.1201E+00  0.9768E-01  0.1076E+01  0.1079E+01
      3.698  0.1546E+00  0.2374E+00  0.1086E+01  0.1094E+01
      3.762  0.2709E+00  0.2607E+00  0.1104E+01  0.1111E+01
      3.826  0.3397E+00  0.3421E+00  0.1125E+01  0.1132E+01
      3.890  0.1460E+00  0.2137E-01  0.1135E+01  0.1134E+01
      3.954  0.2401E-01  0.1407E+00  0.1136E+01  0.1143E+01
      4.018  0.2135E+00  0.1401E+00  0.1150E+01  0.1152E+01
      4.082  0.1014E+00  0.2440E+00  0.1156E+01  0.1167E+01
      4.146  0.6258E+00  0.9867E+00  0.1196E+01  0.1231E+01
      4.210  0.1072E+01  0.1038E+01  0.1265E+01  0.1297E+01
      4.274  0.9702E+00  0.9278E+00  0.1327E+01  0.1356E+01
      4.338  0.1048E+01  0.1331E+01  0.1394E+01  0.1442E+01
      4.402  0.1409E+01  0.1107E+01  0.1484E+01  0.1512E+01
      4.466  0.1010E+01  0.1197E+01  0.1549E+01  0.1589E+01
      4.530  0.9486E+00  0.4521E+00  0.1610E+01  0.1618E+01
      4.594  0.3018E+00  0.5544E+00  0.1629E+01  0.1653E+01
      4.658  0.8561E+00  0.8597E+00  0.1684E+01  0.1708E+01
      4.722  0.7593E+00  0.7616E+00  0.1732E+01  0.1757E+01
      4.786  0.8463E+00  0.7469E+00  0.1786E+01  0.1805E+01
      4.850  0.5385E+00  0.6185E+00  0.1821E+01  0.1844E+01
      4.914  0.8303E+00  0.8011E+00  0.1874E+01  0.1896E+01
      4.978  0.5276E+00  0.4430E+00  0.1908E+01  0.1924E+01
      5.042  0.7107E+00  0.1025E+01  0.1953E+01  0.1990E+01
      5.106  0.1033E+01  0.7814E+00  0.2019E+01  0.2040E+01
      5.170  0.6040E+00  0.5692E+00  0.2058E+01  0.2076E+01
      5.234  0.6401E+00  0.8407E+00  0.2099E+01  0.2130E+01
      5.298  0.9640E+00  0.6598E+00  0.2161E+01  0.2172E+01
      5.362  0.2819E+00  0.5678E+00  0.2179E+01  0.2208E+01
      5.426  0.1102E+01  0.9991E+00  0.2249E+01  0.2272E+01
      5.490  0.6806E+00  0.8095E+00  0.2293E+01  0.2324E+01
      5.554  0.1291E+01  0.1501E+01  0.2375E+01  0.2420E+01
      5.618  0.1128E+01  0.6722E+00  0.2447E+01  0.2463E+01
      5.682  0.4771E+00  0.6368E+00  0.2478E+01  0.2504E+01
      5.746  0.1015E+01  0.1164E+01  0.2543E+01  0.2578E+01
      5.810  0.7996E+00  0.3362E+00  0.2594E+01  0.2600E+01
      5.874  0.2364E+00  0.4153E+00  0.2609E+01  0.2627E+01
      5.938  0.4699E+00  0.3201E+00  0.2639E+01  0.2647E+01
      6.002  0.3248E+00  0.5686E+00  0.2660E+01  0.2683E+01
      6.066  0.6433E+00  0.4501E+00  0.2701E+01  0.2712E+01
      6.130  0.2261E+00  0.1855E+00  0.2716E+01  0.2724E+01
      6.194  0.4570E+00  0.6484E+00  0.2745E+01  0.2766E+01
      6.258  0.5295E+00  0.3226E+00  0.2779E+01  0.2786E+01
      6.321  0.2113E+00  0.2645E+00  0.2792E+01  0.2803E+01
      6.385  0.2442E+00  0.1122E+00  0.2808E+01  0.2810E+01
      6.449  0.1361E+00  0.2997E+00  0.2817E+01  0.2829E+01
      6.513  0.4213E+00  0.3807E+00  0.2844E+01  0.2854E+01
      6.577  0.2864E+00  0.2376E+00  0.2862E+01  0.2869E+01
      6.641  0.1900E+00  0.1044E+00  0.2874E+01  0.2876E+01
      6.705  0.7581E-01  0.1100E+00  0.2879E+01  0.2883E+01
      6.769  0.6082E-01  0.1408E-01  0.2883E+01  0.2884E+01
      6.833  0.1507E+00  0.3709E+00  0.2893E+01  0.2907E+01
      6.897  0.3221E+00  0.2119E+00  0.2913E+01  0.2921E+01
      6.961  0.3536E+00  0.4523E+00  0.2936E+01  0.2950E+01
      7.025  0.2932E+00  0.9636E-01  0.2955E+01  0.2956E+01
      7.089  0.9503E-01  0.1963E+00  0.2961E+01  0.2969E+01
      7.153  0.2216E+00  0.1201E+00  0.2975E+01  0.2976E+01
      7.217  0.1595E-01  0.8706E-02  0.2976E+01  0.2977E+01
      7.281  0.7581E-01  0.1161E+00  0.2981E+01  0.2984E+01
      7.345  0.1154E+00  0.1106E+00  0.2988E+01  0.2991E+01
      7.409  0.7890E-01  0.3969E-01  0.2993E+01  0.2994E+01
      7.473  0.1229E+00  0.3029E+00  0.3001E+01  0.3013E+01
      7.537  0.3223E+00  0.2103E+00  0.3022E+01  0.3027E+01
      7.601  0.1272E+00  0.2053E+00  0.3030E+01  0.3040E+01
      7.665  0.4879E+00  0.5696E+00  0.3061E+01  0.3076E+01
      7.729  0.4193E+00  0.2538E+00  0.3088E+01  0.3093E+01
      7.793  0.1682E+00  0.2951E+00  0.3099E+01  0.3111E+01
      7.857  0.4729E+00  0.4327E+00  0.3129E+01  0.3139E+01
      7.921  0.2801E+00  0.2456E+00  0.3147E+01  0.3155E+01
      7.985  0.2703E+00  0.2354E+00  0.3164E+01  0.3170E+01
      8.049  0.1541E+00  0.8110E-01  0.3174E+01  0.3175E+01
      8.113  0.1337E-01 -0.5713E-02  0.3175E+01  0.3175E+01
      8.177  0.4173E-01  0.1683E+00  0.3177E+01  0.3186E+01
      8.241  0.3931E+00  0.4541E+00  0.3203E+01  0.3215E+01
      8.305  0.4024E+00  0.5181E+00  0.3228E+01  0.3248E+01
      8.369  0.7858E+00  0.6838E+00  0.3279E+01  0.3291E+01
      8.433  0.3583E+00  0.4624E+00  0.3302E+01  0.3321E+01
      8.497  0.6133E+00  0.4528E+00  0.3341E+01  0.3350E+01
      8.561  0.4645E+00  0.8844E+00  0.3370E+01  0.3407E+01
      8.625  0.1264E+01  0.1005E+01  0.3451E+01  0.3471E+01
      8.689  0.5132E+00  0.4032E+00  0.3484E+01  0.3497E+01
      8.753  0.3592E+00  0.1865E+00  0.3507E+01  0.3509E+01
      8.817  0.4777E-01  0.1367E+00  0.3510E+01  0.3517E+01
      8.881  0.3377E+00  0.3079E+00  0.3532E+01  0.3537E+01
      8.945  0.1232E+00  0.1407E+00  0.3540E+01  0.3546E+01
      9.009  0.4115E+00  0.7152E+00  0.3566E+01  0.3592E+01
      9.073  0.1063E+01  0.9151E+00  0.3634E+01  0.3650E+01
      9.137  0.5137E+00  0.4152E+00  0.3667E+01  0.3677E+01
      9.201  0.6066E+00  0.7235E+00  0.3706E+01  0.3723E+01
      9.265  0.5567E+00  0.3715E+00  0.3741E+01  0.3747E+01
      9.329  0.2863E+00  0.3381E+00  0.3760E+01  0.3769E+01
      9.393  0.2416E+00  0.1650E+00  0.3775E+01  0.3779E+01
      9.457  0.3067E+00  0.3838E+00  0.3795E+01  0.3804E+01
      9.521  0.3452E+00  0.3183E+00  0.3817E+01  0.3824E+01
      9.585  0.3601E+00  0.4784E+00  0.3840E+01  0.3855E+01
      9.649  0.8128E+00  0.9751E+00  0.3892E+01  0.3917E+01
      9.713  0.9429E+00  0.8131E+00  0.3952E+01  0.3969E+01
      9.777  0.6457E+00  0.6215E+00  0.3994E+01  0.4009E+01
      9.841  0.5468E+00  0.5017E+00  0.4029E+01  0.4041E+01
      9.905  0.5452E+00  0.6808E+00  0.4063E+01  0.4085E+01
      9.969  0.8864E+00  0.8707E+00  0.4120E+01  0.4140E+01
     10.033  0.7355E+00  0.6437E+00  0.4167E+01  0.4182E+01
     10.097  0.7015E+00  0.6055E+00  0.4212E+01  0.4220E+01
     10.161  0.2836E+00  0.3879E+00  0.4230E+01  0.4245E+01
     10.225  0.5887E+00  0.5994E+00  0.4268E+01  0.4283E+01
     10.289  0.8994E+00  0.9851E+00  0.4325E+01  0.4347E+01
     10.353  0.9032E+00  0.8244E+00  0.4383E+01  0.4399E+01
     10.417  0.6743E+00  0.8346E+00  0.4426E+01  0.4453E+01
     10.481  0.1575E+01  0.1904E+01  0.4527E+01  0.4574E+01
     10.545  0.2112E+01  0.1797E+01  0.4662E+01  0.4689E+01
     10.609  0.1337E+01  0.1507E+01  0.4748E+01  0.4786E+01
     10.673  0.1687E+01  0.1379E+01  0.4856E+01  0.4874E+01
     10.737  0.7961E+00  0.6587E+00  0.4907E+01  0.4916E+01
     10.801  0.6259E+00  0.7659E+00  0.4947E+01  0.4965E+01
     10.865  0.6059E+00  0.3193E+00  0.4986E+01  0.4986E+01
     10.929 -0.1620E-01  0.4165E-01  0.4985E+01  0.4988E+01
     10.993  0.3112E+00  0.3439E+00  0.5004E+01  0.5010E+01
     11.057  0.2559E+00  0.3472E+00  0.5021E+01  0.5033E+01
     11.121  0.4275E+00  0.4091E+00  0.5048E+01  0.5059E+01
     11.185  0.2460E+00  0.6921E-01  0.5064E+01  0.5063E+01
     11.249  0.2241E-01  0.1313E+00  0.5065E+01  0.5072E+01
     11.313  0.3130E+00  0.4173E+00  0.5085E+01  0.5098E+01
     11.377  0.5259E+00  0.8021E+00  0.5119E+01  0.5150E+01
     11.441  0.9327E+00  0.5928E+00  0.5179E+01  0.5188E+01
     11.505  0.3001E+00  0.5694E+00  0.5198E+01  0.5224E+01
     11.569  0.1051E+01  0.1061E+01  0.5265E+01  0.5292E+01
     11.633  0.6719E+00  0.2998E+00  0.5308E+01  0.5311E+01
     11.697  0.5408E-01  0.5911E-01  0.5312E+01  0.5315E+01
     11.760  0.1126E+00  0.1204E+00  0.5319E+01  0.5323E+01
     11.824  0.1913E+00  0.2201E+00  0.5331E+01  0.5337E+01
     11.888  0.1083E+00  0.4735E-01  0.5338E+01  0.5340E+01
     11.952  0.1602E+00  0.2588E+00  0.5348E+01  0.5356E+01
     12.016  0.1524E+00  0.3751E-01  0.5358E+01  0.5359E+01
     12.080  0.1015E+00  0.2171E+00  0.5365E+01  0.5373E+01
     12.144  0.2466E+00  0.1749E+00  0.5380E+01  0.5384E+01
     12.208  0.6477E-01  0.7036E-02  0.5384E+01  0.5384E+01
     12.272 -0.6448E-02 -0.6399E-02  0.5384E+01  0.5384E+01
     12.336  0.3859E-02  0.6176E-01  0.5384E+01  0.5388E+01
     12.400  0.1459E+00  0.1167E+00  0.5394E+01  0.5395E+01
     12.464  0.1548E-01  0.1297E-01  0.5395E+01  0.5396E+01
     12.528  0.1564E+00  0.2364E+00  0.5405E+01  0.5411E+01
     12.592  0.1326E+00  0.2407E-01  0.5413E+01  0.5413E+01
     12.656 -0.1154E-01 -0.7640E-02  0.5412E+01  0.5412E+01
     12.720  0.2944E-01  0.9830E-01  0.5414E+01  0.5419E+01
     12.784  0.1204E+00  0.5871E-01  0.5422E+01  0.5422E+01
     12.848 -0.2558E-02 -0.1843E-01  0.5422E+01  0.5421E+01
     12.912  0.1410E-01  0.1675E+00  0.5423E+01  0.5432E+01
     12.976  0.4795E+00  0.7247E+00  0.5453E+01  0.5478E+01
     13.040  0.9217E+00  0.8461E+00  0.5512E+01  0.5532E+01
     13.104  0.5242E+00  0.3707E+00  0.5546E+01  0.5556E+01
     13.168  0.3117E+00  0.2638E+00  0.5566E+01  0.5573E+01
     13.232  0.4424E+00  0.7577E+00  0.5594E+01  0.5621E+01
     13.296  0.7439E+00  0.4424E+00  0.5642E+01  0.5650E+01
     13.360  0.2009E+00  0.1213E+00  0.5655E+01  0.5657E+01
     13.424  0.8848E-01  0.1118E+00  0.5660E+01  0.5665E+01
     13.488  0.1010E+00  0.4692E-01  0.5667E+01  0.5668E+01
     13.552  0.6081E-01  0.1089E+00  0.5671E+01  0.5675E+01
     13.616  0.9310E-01  0.1105E+00  0.5677E+01  0.5682E+01
     13.680  0.2124E+00  0.1812E+00  0.5690E+01  0.5693E+01
     13.744  0.6591E-01  0.1021E+00  0.5694E+01  0.5700E+01
     13.808  0.1902E+00  0.1604E+00  0.5707E+01  0.5710E+01
     13.872  0.7444E-01  0.3541E-01  0.5711E+01  0.5712E+01
     13.936  0.2162E-01  0.1072E-02  0.5713E+01  0.5712E+01
     14.000  0.6571E-02  0.9006E-01  0.5713E+01  0.5718E+01
     14.064  0.2325E+00  0.2079E+00  0.5728E+01  0.5731E+01
     14.128  0.7032E-01  0.2566E-01  0.5733E+01  0.5733E+01
     14.192  0.5428E-02  0.2152E-01  0.5733E+01  0.5734E+01
     14.256  0.1611E+00  0.2792E+00  0.5743E+01  0.5752E+01
     14.320  0.2560E+00  0.1416E+00  0.5760E+01  0.5761E+01
     14.384  0.9127E-01  0.1186E+00  0.5765E+01  0.5769E+01
     14.448  0.1864E+00  0.3235E+00  0.5777E+01  0.5790E+01
     14.512  0.3485E+00  0.2154E+00  0.5800E+01  0.5803E+01
     14.576  0.5564E-01 -0.1832E-01  0.5803E+01  0.5802E+01
     14.640  0.5037E-01  0.2273E+00  0.5806E+01  0.5817E+01
     14.704  0.3833E+00  0.4034E+00  0.5831E+01  0.5843E+01
     14.768  0.6146E+00  0.8953E+00  0.5870E+01  0.5900E+01
     14.832  0.6759E+00  0.2682E+00  0.5913E+01  0.5917E+01
     14.896  0.9406E-01  0.6085E-01  0.5920E+01  0.5921E+01
     14.960  0.8156E-01  0.1358E+00  0.5925E+01  0.5930E+01
     15.024  0.1196E+00  0.7160E-01  0.5932E+01  0.5934E+01
     15.088  0.1496E+00  0.2987E+00  0.5942E+01  0.5953E+01
     15.152  0.3994E+00  0.2797E+00  0.5968E+01  0.5971E+01
     15.216  0.1342E+00  0.2028E+00  0.5976E+01  0.5984E+01
     15.280  0.1976E+00  0.1148E+00  0.5989E+01  0.5992E+01
     15.344  0.1150E+00  0.1192E+00  0.5996E+01  0.5999E+01
     15.408  0.6321E-01  0.1330E-01  0.6000E+01  0.6000E+01
     15.472 -0.1890E-02 -0.1606E-02  0.6000E+01  0.6000E+01
     15.536 -0.2784E-03 -0.1750E-04  0.6000E+01  0.6000E+01
     15.600 -0.4538E-06 -0.4836E-08  0.6000E+01  0.6000E+01
     15.664 -0.2246E-10 -0.4377E-13  0.6000E+01  0.6000E+01
     15.728 -0.4047E-16  0.0000E+00  0.6000E+01  0.6000E+01
     15.792  0.0000E+00  0.0000E+00  0.6000E+01  0.6000E+01
     15.856  0.0000E+00  0.0000E+00  0.6000E+01  0.6000E+01
     15.920  0.0000E+00  0.0000E+00  0.6000E+01  0.6000E+01
     15.984  0.0000E+00  0.0000E+00  0.6000E+01  0.6000E+01
     16.048  0.0000E+00  0.0000E+00  0.6000E+01  0.6000E+01
     16.112  0.0000E+00  0.0000E+00  0.6000E+01  0.6000E+01
     16.176  0.0000E+00  0.0000E+00  0.6000E+01  0.6000E+01
     16.240  0.0000E+00  0.0000E+00  0.6000E+01  0.6000E+01
     16.23966639     -2.95679304  301      5.69175824      1.00000000
     -2.957  0.0000E+00  0.0000E+00  0.0000E+00  0.0000E+00  0.0000E+00  0.0000E+00  0.0000E+00  0.0000E+00  0.0000E+00  0.0000E+00  0.0000E+00  0.0000E+00  0.0000E+00  0.0000E+00  0.0000E+00  0.0000E+00  0.0000E+00  0.0000E+00
     -2.893  0.0000E+00  0.0000E+00  0.0000E+00  0.0000E+00  0.0000E+00  0.0000E+00  0.0000E+00  0.0000E+00  0.0000E+00  0.0000E+00  0.0000E+00  0.0000E+00  0.0000E+00  0.0000E+00  0.0000E+00  0.0000E+00  0.0000E+00  0.0000E+00
     -2.829  0.0000E+00  0.0000E+00  0.0000E+00  0.0000E+00  0.0000E+00  0.0000E+00  0.0000E+00  0.0000E+00  0.0000E+00  0.0000E+00  0.0000E+00  0.0000E+00  0.0000E+00  0.0000E+00  0.0000E+00  0.0000E+00  0.0000E+00  0.0000E+00
     -2.765  0.0000E+00  0.0000E+00  0.0000E+00  0.0000E+00  0.0000E+00  0.0000E+00  0.0000E+00  0.0000E+00  0.0000E+00  0.0000E+00  0.0000E+00  0.0000E+00  0.0000E+00  0.0000E+00  0.0000E+00  0.0000E+00  0.0000E+00  0.0000E+00
     -2.701  0.0000E+00  0.0000E+00  0.0000E+00  0.0000E+00  0.0000E+00  0.0000E+00  0.0000E+00  0.0000E+00  0.0000E+00  0.0000E+00  0.0000E+00  0.0000E+00  0.0000E+00  0.0000E+00  0.0000E+00  0.0000E+00  0.0000E+00  0.0000E+00
     -2.637  0.0000E+00  0.0000E+00  0.0000E+00  0.0000E+00  0.0000E+00  0.0000E+00  0.0000E+00  0.0000E+00  0.0000E+00  0.0000E+00  0.0000E+00  0.0000E+00  0.0000E+00  0.0000E+00  0.0000E+00  0.0000E+00  0.0000E+00  0.0000E+00
     -2.573  0.0000E+00  0.0000E+00  0.0000E+00  0.0000E+00  0.0000E+00  0.0000E+00  0.0000E+00  0.0000E+00  0.0000E+00  0.0000E+00  0.0000E+00  0.0000E+00  0.0000E+00  0.0000E+00  0.0000E+00  0.0000E+00  0.0000E+00  0.0000E+00
     -2.509 -0.3586E-37 -0.3281E-32 -0.6077E-40 -0.5558E-35 -0.1823E-39 -0.1667E-34 -0.1215E-39 -0.1112E-34 -0.4260E-42 -0.3889E-37 -0.6389E-42 -0.5831E-37 -0.1597E-42 -0.1458E-37 -0.1278E-41 -0.1167E-36 -0.5325E-43 -0.4861E-38
     -2.445 -0.8774E-28 -0.1495E-23 -0.1487E-30 -0.2531E-26 -0.4460E-30 -0.7594E-26 -0.2974E-30 -0.5063E-26 -0.1042E-32 -0.1771E-28 -0.1563E-32 -0.2656E-28 -0.3908E-33 -0.6639E-29 -0.3127E-32 -0.5314E-28 -0.1303E-33 -0.2214E-29
     -2.381 -0.7898E-20 -0.2492E-16 -0.1338E-22 -0.4221E-19 -0.4015E-22 -0.1266E-18 -0.2677E-22 -0.8442E-19 -0.9381E-25 -0.2953E-21 -0.1407E-24 -0.4429E-21 -0.3518E-25 -0.1107E-21 -0.2814E-24 -0.8860E-21 -0.1173E-25 -0.3692E-22
     -2.317 -0.2495E-13 -0.1430E-10 -0.4228E-16 -0.2421E-13 -0.1268E-15 -0.7264E-13 -0.8457E-16 -0.4843E-13 -0.2964E-18 -0.1694E-15 -0.4445E-18 -0.2541E-15 -0.1111E-18 -0.6351E-16 -0.8892E-18 -0.5083E-15 -0.3705E-19 -0.2118E-16
     -2.253 -0.2832E-08 -0.2877E-06 -0.4799E-11 -0.4874E-09 -0.1440E-10 -0.1462E-08 -0.9598E-11 -0.9748E-09 -0.3364E-13 -0.3410E-11 -0.5046E-13 -0.5114E-11 -0.1261E-13 -0.1278E-11 -0.1009E-12 -0.1023E-10 -0.4205E-14 -0.4263E-12
     -2.189 -0.1043E-04 -0.1688E-03 -0.1768E-07 -0.2859E-06 -0.5303E-07 -0.8577E-06 -0.3535E-07 -0.5718E-06 -0.1239E-09 -0.2000E-08 -0.1859E-09 -0.3000E-08 -0.4646E-10 -0.7498E-09 -0.3717E-09 -0.6001E-08 -0.1549E-10 -0.2501E-09
     -2.125 -0.8341E-03  0.3536E-03 -0.1413E-05  0.5989E-06 -0.4240E-05  0.1797E-05 -0.2827E-05  0.1198E-05 -0.9907E-08  0.4191E-08 -0.1486E-07  0.6284E-08 -0.3715E-08  0.1571E-08 -0.2972E-07  0.1257E-07 -0.1238E-08  0.5238E-09
     -2.061  0.1085E-01  0.2449E-01  0.1839E-04  0.4148E-04  0.5517E-04  0.1244E-03  0.3678E-04  0.8295E-04  0.1289E-06  0.2902E-06  0.1934E-06  0.4352E-06  0.4834E-07  0.1088E-06  0.3867E-06  0.8706E-06  0.1611E-07  0.3628E-07
     -1.997  0.1992E-01  0.4793E-02  0.3375E-04  0.7985E-05  0.1013E-03  0.2396E-04  0.6752E-04  0.1624E-04  0.2366E-06  0.5453E-07  0.3545E-06  0.7012E-07  0.8848E-07  0.1268E-07  0.7097E-06  0.1636E-06  0.2957E-07  0.6816E-08
     -1.933 -0.1202E-02 -0.1748E-02 -0.3645E-05 -0.9255E-05 -0.1093E-04 -0.2777E-04 -0.4055E-05 -0.5847E-05 -0.4169E-07 -0.1283E-06 -0.2032E-06 -0.7441E-06 -0.1094E-06 -0.4159E-06 -0.1251E-06 -0.3848E-06 -0.5211E-08 -0.1603E-07
     -1.869  0.1793E-02  0.1875E-01  0.1223E-04  0.1248E-03  0.3669E-04  0.3745E-03  0.5967E-05  0.6241E-04  0.1780E-06  0.1813E-05  0.1071E-05  0.1088E-04  0.6029E-06  0.6118E-05  0.5340E-06  0.5438E-05  0.2225E-07  0.2266E-06
     -1.805  0.3313E-01  0.2195E-01  0.2206E-03  0.1461E-03  0.6619E-03  0.4385E-03  0.1103E-03  0.7286E-04  0.3198E-05  0.2111E-05  0.1919E-04  0.1274E-04  0.1079E-04  0.7159E-05  0.9595E-05  0.6366E-05  0.3998E-06  0.2638E-06
     -1.741  0.3684E-02 -0.3029E-02  0.2303E-04 -0.3452E-04  0.7625E-04 -0.3515E-04  0.7463E-05 -0.5598E-04  0.9236E-07 -0.2808E-05  0.2208E-05 -0.1043E-05  0.1127E-05 -0.1696E-05  0.1059E-05 -0.9486E-06  0.1154E-07 -0.3510E-06
     -1.677 -0.4145E-02  0.1654E-01 -0.5832E-04  0.2485E-03 -0.2862E-04  0.8625E-04 -0.1120E-03  0.4973E-03 -0.5782E-05  0.2584E-04 -0.8795E-06  0.2719E-05 -0.2857E-05  0.1222E-04 -0.1355E-05  0.5474E-05 -0.7228E-06  0.3229E-05
     -1.613  0.7260E-01  0.9588E-01  0.1089E-02  0.1438E-02  0.3813E-03  0.5034E-03  0.2179E-02  0.2876E-02  0.1132E-03  0.1494E-03  0.1204E-04  0.1586E-04  0.5338E-04  0.7069E-04  0.2408E-04  0.3171E-04  0.1415E-04  0.1867E-04
     -1.549  0.4704E-01  0.2315E-02  0.7057E-03  0.3472E-04  0.2471E-03  0.1216E-04  0.1411E-02  0.6944E-04  0.7332E-04  0.3607E-05  0.7800E-05  0.3829E-06  0.3458E-04  0.1707E-05  0.1560E-04  0.7658E-06  0.9165E-05  0.4509E-06
     -1.485 -0.3457E-02 -0.7253E-03 -0.5186E-04 -0.1088E-04 -0.1816E-04 -0.3809E-05 -0.1037E-03 -0.2176E-04 -0.5389E-05 -0.1130E-05 -0.5732E-06 -0.1199E-06 -0.2541E-05 -0.5348E-06 -0.1146E-05 -0.2399E-06 -0.6736E-06 -0.1412E-06
     -1.421 -0.5243E-04 -0.1833E-05 -0.7866E-06 -0.2729E-07 -0.2756E-06 -0.2815E-07 -0.1573E-05 -0.5465E-07 -0.8173E-07 -0.2960E-08 -0.8707E-08 -0.1865E-08 -0.3854E-07 -0.1319E-08 -0.1741E-07 -0.3011E-08 -0.1022E-07 -0.5094E-09
     -1.357 -0.2141E-04 -0.4249E-03 -0.3127E-06 -0.6213E-05 -0.9376E-06 -0.1864E-04 -0.6286E-06 -0.1249E-04 -0.3779E-07 -0.7429E-06 -0.7223E-07 -0.1419E-05 -0.1423E-07 -0.2801E-06 -0.1133E-06 -0.2229E-05 -0.1080E-07 -0.2113E-06
     -1.293 -0.2827E-02 -0.2494E-02 -0.4148E-04 -0.3724E-04 -0.1244E-03 -0.1117E-03 -0.8334E-04 -0.7472E-04 -0.4858E-05 -0.3781E-05 -0.9211E-05 -0.6872E-05 -0.1828E-05 -0.1424E-05 -0.1457E-04 -0.1134E-04 -0.1358E-05 -0.9386E-06
     -1.229  0.3199E-01  0.1007E+00  0.4682E-03  0.1481E-02  0.1405E-02  0.4444E-02  0.9410E-03  0.2976E-02  0.5579E-04  0.1695E-03  0.1063E-03  0.3199E-03  0.2100E-04  0.6391E-04  0.1674E-03  0.5086E-03  0.1579E-04  0.4667E-04
     -1.165  0.1074E+00  0.4114E-01  0.1588E-02  0.6067E-03  0.4765E-02  0.1841E-02  0.3189E-02  0.1229E-02  0.1753E-03  0.6296E-04  0.3268E-03  0.1164E-03  0.6597E-04  0.2383E-04  0.5261E-03  0.1915E-03  0.4680E-04  0.1606E-04
     -1.101 -0.1657E-02 -0.6940E-02 -0.8160E-04 -0.2598E-03 -0.3672E-04 -0.2241E-03 -0.4690E-04 -0.2088E-03 -0.1082E-04 -0.2934E-04 -0.1038E-04 -0.2624E-04 -0.2929E-05 -0.8011E-05 -0.6605E-05 -0.1902E-04 -0.2313E-05 -0.5393E-05
     -1.037  0.1105E-01  0.6450E-01  0.6687E-03  0.3747E-02  0.2193E-03  0.1364E-02  0.3360E-03  0.1959E-02  0.7653E-04  0.4281E-03  0.5144E-04  0.2932E-03  0.1898E-04  0.1072E-03  0.7681E-05  0.5715E-04  0.1268E-04  0.7147E-04
     -0.973  0.9249E-01  0.4896E-01  0.5374E-02  0.2850E-02  0.1958E-02  0.1041E-02  0.2809E-02  0.1469E-02  0.6137E-03  0.3215E-03  0.4209E-03  0.2240E-03  0.1531E-03  0.7897E-04  0.8260E-04  0.4345E-04  0.1022E-03  0.5391E-04
     -0.909  0.2209E-02 -0.5225E-02  0.1720E-03 -0.2707E-03  0.8336E-04 -0.8311E-04 -0.4821E-04 -0.2450E-03 -0.7182E-05 -0.5102E-04  0.1965E-04 -0.1656E-04 -0.1183E-04 -0.2031E-04  0.1806E-05 -0.4769E-05  0.3616E-06 -0.7339E-05
     -0.845  0.2650E-01  0.8116E-01  0.1034E-02  0.3212E-02  0.1363E-03  0.4574E-03  0.2142E-02  0.6430E-02  0.4291E-03  0.1289E-02  0.9262E-05  0.3873E-04  0.2234E-03  0.6691E-03  0.2560E-04  0.7800E-04  0.5340E-04  0.1611E-03
     -0.781  0.8155E-01  0.2787E-01  0.3231E-02  0.1103E-02  0.4607E-03  0.1574E-03  0.6462E-02  0.2207E-02  0.1296E-02  0.4425E-03  0.3929E-04  0.1339E-04  0.6702E-03  0.2296E-03  0.7859E-04  0.2678E-04  0.1620E-03  0.5531E-04
     -0.717 -0.1673E-02 -0.2391E-02 -0.6629E-04 -0.9466E-04 -0.9453E-05 -0.1350E-04 -0.1326E-03 -0.1893E-03 -0.2659E-04 -0.3796E-04 -0.8062E-06 -0.1149E-05 -0.1375E-04 -0.1970E-04 -0.1612E-05 -0.2297E-05 -0.3323E-05 -0.4745E-05
     -0.653 -0.3667E-03 -0.2024E-04 -0.1453E-04 -0.8270E-06 -0.2073E-05 -0.2149E-06 -0.2906E-04 -0.1531E-05 -0.5827E-05 -0.3061E-06 -0.1770E-06 -0.4104E-07 -0.3013E-05 -0.1561E-06 -0.3535E-06 -0.3426E-07 -0.7283E-06 -0.3826E-07
     -0.589 -0.5172E-04 -0.7847E-03 -0.2924E-05 -0.4384E-04 -0.3788E-05 -0.5695E-04 -0.1623E-05 -0.2639E-04 -0.2941E-06 -0.4704E-05 -0.1100E-05 -0.1617E-04 -0.5194E-07 -0.7865E-06 -0.5659E-06 -0.8591E-05 -0.3676E-07 -0.5880E-06
     -0.525 -0.4025E-02 -0.4567E-03 -0.2169E-03  0.2641E-04 -0.2798E-03  0.4678E-04 -0.1637E-03 -0.1958E-03 -0.2844E-04 -0.3003E-04 -0.7385E-04  0.4855E-04 -0.4588E-05 -0.4109E-05 -0.4317E-04  0.7074E-06 -0.3555E-05 -0.3754E-05
     -0.461  0.4836E-01  0.1366E+00  0.2689E-02  0.7049E-02  0.3490E-02  0.9013E-02  0.1677E-02  0.6621E-02  0.2978E-03  0.1125E-02  0.9802E-03  0.2164E-02  0.4930E-04  0.1781E-03  0.5275E-03  0.1429E-02  0.3720E-04  0.1399E-03
     -0.397  0.1510E+00  0.6761E-01  0.7322E-02  0.3081E-02  0.9188E-02  0.3668E-02  0.9054E-02  0.4928E-02  0.1509E-02  0.8096E-03  0.1834E-02  0.5272E-03  0.2322E-03  0.1265E-03  0.1504E-02  0.5756E-03  0.1804E-03  0.7547E-04
     -0.333  0.1455E-01  0.5056E-01  0.4116E-03  0.1134E-02  0.8463E-03  0.3797E-02  0.1313E-02  0.3747E-02  0.2047E-03  0.5647E-03  0.6949E-04  0.6122E-03  0.1884E-04  0.9812E-05  0.3309E-03  0.1808E-02  0.8835E-04  0.4915E-03
     -0.269  0.8478E-01  0.4976E-01  0.2055E-02  0.1204E-02  0.6269E-02  0.3673E-02  0.6230E-02  0.3655E-02  0.9446E-03  0.5489E-03  0.1014E-02  0.5939E-03  0.2525E-04  0.1302E-04  0.2872E-02  0.1675E-02  0.7704E-03  0.4497E-03
     -0.205  0.4064E-02 -0.9945E-02 -0.5740E-04 -0.7316E-03  0.4071E-03 -0.3970E-03  0.2912E-03 -0.7547E-03 -0.2168E-04 -0.3192E-03  0.5335E-04 -0.1025E-03 -0.3094E-04 -0.1037E-03  0.2023E-03 -0.1277E-03  0.5550E-04 -0.3018E-04
     -0.141  0.1542E-01  0.1082E+00  0.1584E-02  0.1062E-01  0.3082E-03  0.2490E-02  0.1193E-02  0.8338E-02  0.6868E-03  0.4609E-02  0.1446E-03  0.1028E-02  0.2525E-03  0.1677E-02  0.9589E-05  0.2674E-03 -0.7589E-05  0.4899E-05
     -0.077  0.1684E+00  0.9807E-01  0.1654E-01  0.9625E-02  0.3883E-02  0.2261E-02  0.1299E-01  0.7559E-02  0.7175E-02  0.4177E-02  0.1602E-02  0.9324E-03  0.2602E-02  0.1519E-02  0.4222E-03  0.2446E-03  0.8537E-05  0.5051E-05
     -0.013  0.1198E-01 -0.6600E-02  0.1177E-02 -0.6446E-03  0.2763E-03 -0.1505E-03  0.9236E-03 -0.5147E-03  0.5103E-03 -0.2861E-03  0.1140E-03 -0.6186E-04  0.1850E-03 -0.1048E-03  0.3005E-04 -0.1639E-04  0.5683E-06 -0.1512E-05
      0.051 -0.2909E-02 -0.3288E-02 -0.2520E-03 -0.2251E-03 -0.4909E-04 -0.2366E-04 -0.2862E-03 -0.4325E-03 -0.1758E-03 -0.2902E-03 -0.1836E-04 -0.4264E-05 -0.7125E-04 -0.1274E-03 -0.6557E-05 -0.6086E-05 -0.1235E-04 -0.3549E-04
      0.115  0.8796E-02  0.5331E-01  0.5900E-03  0.3574E-02  0.5666E-04  0.3437E-03  0.1181E-02  0.7148E-02  0.7961E-03  0.4819E-02  0.7988E-05  0.4851E-04  0.3496E-03  0.2124E-02  0.1606E-04  0.9702E-04  0.9954E-04  0.6024E-03
      0.179  0.7971E-01  0.4427E-01  0.5349E-02  0.2973E-02  0.5108E-03  0.2503E-03  0.1070E-01  0.5947E-02  0.7214E-02  0.4023E-02  0.7241E-04  0.3649E-04  0.3168E-02  0.1773E-02  0.1448E-03  0.7299E-04  0.9018E-03  0.5029E-03
      0.243  0.4036E-02 -0.9059E-03  0.2873E-03 -0.1058E-03 -0.7757E-04  0.2743E-03  0.5747E-03 -0.2093E-03  0.4283E-03 -0.2529E-03 -0.7513E-05  0.2873E-04  0.1886E-03 -0.1132E-03 -0.1499E-04  0.5903E-04  0.5354E-04 -0.3160E-04