   1   1   0   0
  0.1813235E+02  0.2866544E-09  0.2866544E-09  0.2866544E-09  0.5000000E-15
  1.000000000000000E-004
  CAR 
 unknown system                          
     16.22118888     -2.93886206  301      5.69323099      1.00000000
     -2.939  0.0000E+00  0.0000E+00
     -2.875  0.0000E+00  0.0000E+00
     -2.811  0.0000E+00  0.0000E+00
     -2.747  0.0000E+00  0.0000E+00
     -2.683  0.0000E+00  0.0000E+00
     -2.620  0.0000E+00  0.0000E+00
     -2.556  0.0000E+00  0.0000E+00
     -2.492 -0.1016E-31 -0.6489E-33
     -2.428 -0.4289E-23 -0.2739E-24
     -2.364 -0.6709E-16 -0.4285E-17
     -2.300 -0.3656E-10 -0.2335E-11
     -2.236 -0.7076E-06 -0.4519E-07
     -2.172 -0.4039E-03 -0.2584E-04
     -2.109  0.8660E-03  0.2946E-04
     -2.045  0.5774E-01  0.3717E-02
     -1.981  0.1136E-01  0.4442E-02
     -1.917 -0.4172E-02  0.4176E-02
     -1.853  0.4436E-01  0.7009E-02
     -1.789  0.5324E-01  0.1041E-01
     -1.725 -0.7198E-02  0.9950E-02
     -1.662  0.3804E-01  0.1238E-01
     -1.598  0.2347E+00  0.2737E-01
     -1.534  0.7053E-02  0.2782E-01
     -1.470 -0.1888E-02  0.2770E-01
     -1.406 -0.4817E-05  0.2770E-01
     -1.342 -0.9688E-03  0.2763E-01
     -1.278 -0.7410E-02  0.2716E-01
     -1.214  0.2473E+00  0.4296E-01
     -1.151  0.1121E+00  0.5011E-01
     -1.087 -0.1821E-01  0.4895E-01
     -1.023  0.1572E+00  0.5899E-01
     -0.959  0.1349E+00  0.6760E-01
     -0.895 -0.1527E-01  0.6663E-01
     -0.831  0.2050E+00  0.7972E-01
     -0.767  0.8248E-01  0.8499E-01
     -0.704 -0.6844E-02  0.8455E-01
     -0.640 -0.6669E-04  0.8455E-01
     -0.576 -0.1759E-02  0.8444E-01
     -0.512 -0.5401E-02  0.8409E-01
     -0.448  0.3528E+00  0.1066E+00
     -0.384  0.2069E+00  0.1198E+00
     -0.320  0.1252E+00  0.1278E+00
     -0.256  0.1532E+00  0.1376E+00
     -0.193 -0.2780E-01  0.1358E+00
     -0.129  0.2744E+00  0.1534E+00
     -0.065  0.3113E+00  0.1733E+00
     -0.001 -0.1904E-01  0.1720E+00
      0.063 -0.9860E-02  0.1714E+00
      0.127  0.1410E+00  0.1804E+00
      0.191  0.1514E+00  0.1901E+00
      0.254 -0.5401E-02  0.1897E+00
      0.318  0.5366E-01  0.1932E+00
      0.382  0.6438E-01  0.1973E+00
      0.446  0.2739E+00  0.2148E+00
      0.510  0.5376E+00  0.2491E+00
      0.574  0.3375E+00  0.2707E+00
      0.638  0.1194E+00  0.2783E+00
      0.702  0.1453E+00  0.2876E+00
      0.765 -0.9254E-02  0.2870E+00
      0.829  0.5710E+00  0.3234E+00
      0.893  0.2651E+00  0.3404E+00
      0.957  0.1385E+00  0.3492E+00
      1.021  0.1333E+00  0.3577E+00
      1.085 -0.1066E-01  0.3571E+00
      1.149  0.1914E-02  0.3572E+00
      1.212  0.2206E+00  0.3713E+00
      1.276  0.1936E+00  0.3836E+00
      1.340  0.7206E+00  0.4297E+00
      1.404  0.1309E+01  0.5133E+00
      1.468  0.1046E+01  0.5801E+00
      1.532  0.5181E+00  0.6132E+00
      1.596 -0.8105E-01  0.6080E+00
      1.660  0.6389E+00  0.6488E+00
      1.723  0.8730E+00  0.7046E+00
      1.787  0.5145E+00  0.7374E+00
      1.851  0.7108E+00  0.7828E+00
      1.915  0.3146E+00  0.8029E+00
      1.979  0.2556E+00  0.8192E+00
      2.043  0.9929E+00  0.8827E+00
      2.107  0.2269E+00  0.8972E+00
      2.170  0.1143E+01  0.9702E+00
      2.234  0.1879E+01  0.1090E+01
      2.298  0.2843E+00  0.1108E+01
      2.362  0.6235E+00  0.1148E+01
      2.426  0.1030E+01  0.1214E+01
      2.490  0.1002E+01  0.1278E+01
      2.554  0.2600E+00  0.1295E+01
      2.618  0.5274E+00  0.1328E+01
      2.681  0.1304E+01  0.1412E+01
      2.745  0.6529E+00  0.1453E+01
      2.809  0.1359E+01  0.1540E+01
      2.873  0.1676E+01  0.1647E+01
      2.937  0.9686E+00  0.1709E+01
      3.001  0.1699E+01  0.1817E+01
      3.065  0.1284E+01  0.1900E+01
      3.128  0.2401E+00  0.1915E+01
      3.192  0.1150E+00  0.1922E+01
      3.256  0.4768E+00  0.1953E+01
      3.320  0.8803E+00  0.2009E+01
      3.384  0.8964E+00  0.2066E+01
      3.448  0.5620E+00  0.2102E+01
      3.512  0.3533E+00  0.2125E+01
      3.576  0.2905E+00  0.2143E+01
      3.639  0.2017E+00  0.2156E+01
      3.703  0.4226E+00  0.2183E+01
      3.767  0.5346E+00  0.2217E+01
      3.831  0.7035E+00  0.2262E+01
      3.895  0.9332E-01  0.2268E+01
      3.959  0.1983E+00  0.2281E+01
      4.023  0.3497E+00  0.2303E+01
      4.086  0.3373E+00  0.2325E+01
      4.150  0.1784E+01  0.2438E+01
      4.214  0.2099E+01  0.2573E+01
      4.278  0.1878E+01  0.2692E+01
      4.342  0.2464E+01  0.2850E+01
      4.406  0.2415E+01  0.3004E+01
      4.470  0.2317E+01  0.3152E+01
      4.534  0.1251E+01  0.3232E+01
      4.597  0.8548E+00  0.3287E+01
      4.661  0.1765E+01  0.3399E+01
      4.725  0.1500E+01  0.3495E+01
      4.789  0.1614E+01  0.3598E+01
      4.853  0.1093E+01  0.3668E+01
      4.917  0.1716E+01  0.3778E+01
      4.981  0.8639E+00  0.3833E+01
      5.044  0.1872E+01  0.3952E+01
      5.108  0.1753E+01  0.4064E+01
      5.172  0.1141E+01  0.4137E+01
      5.236  0.1506E+01  0.4233E+01
      5.300  0.1653E+01  0.4339E+01
      5.364  0.7517E+00  0.4387E+01
      5.428  0.2222E+01  0.4529E+01
      5.492  0.1385E+01  0.4617E+01
      5.555  0.2971E+01  0.4807E+01
      5.619  0.1682E+01  0.4915E+01
      5.683  0.1054E+01  0.4982E+01
      5.747  0.2346E+01  0.5132E+01
      5.811  0.9891E+00  0.5195E+01
      5.875  0.6649E+00  0.5237E+01
      5.939  0.7768E+00  0.5287E+01
      6.002  0.9211E+00  0.5346E+01
      6.066  0.1112E+01  0.5417E+01
      6.130  0.3329E+00  0.5438E+01
      6.194  0.1177E+01  0.5513E+01
      6.258  0.8370E+00  0.5567E+01
      6.322  0.4691E+00  0.5597E+01
      6.386  0.3381E+00  0.5618E+01
      6.450  0.4424E+00  0.5646E+01
      6.513  0.8192E+00  0.5699E+01
      6.577  0.5104E+00  0.5731E+01
      6.641  0.2876E+00  0.5750E+01
      6.705  0.2030E+00  0.5763E+01
      6.769  0.3887E-01  0.5765E+01
      6.833  0.5675E+00  0.5801E+01
      6.897  0.4805E+00  0.5832E+01
      6.960  0.8730E+00  0.5888E+01
      7.024  0.3468E+00  0.5910E+01
      7.088  0.2960E+00  0.5929E+01
      7.152  0.3623E+00  0.5952E+01
      7.216 -0.2905E-02  0.5952E+01
      7.280  0.2127E+00  0.5965E+01
      7.344  0.2194E+00  0.5979E+01
      7.408  0.1035E+00  0.5986E+01
      7.471  0.4281E+00  0.6013E+01
      7.535  0.5626E+00  0.6049E+01
      7.599  0.2679E+00  0.6066E+01
      7.663  0.1116E+01  0.6138E+01
      7.727  0.6653E+00  0.6180E+01
      7.791  0.4302E+00  0.6208E+01
      7.855  0.9480E+00  0.6268E+01
      7.919  0.4994E+00  0.6300E+01
      7.982  0.5251E+00  0.6334E+01
      8.046  0.2471E+00  0.6349E+01
      8.110 -0.6143E-02  0.6349E+01
      8.174  0.1806E+00  0.6361E+01
      8.238  0.8684E+00  0.6416E+01
      8.302  0.8530E+00  0.6471E+01
      8.366  0.1553E+01  0.6570E+01
      8.429  0.7584E+00  0.6618E+01
      8.493  0.1119E+01  0.6690E+01
      8.557  0.1227E+01  0.6768E+01
      8.621  0.2402E+01  0.6921E+01
      8.685  0.9079E+00  0.6979E+01
      8.749  0.5750E+00  0.7016E+01
      8.813  0.1264E+00  0.7024E+01
      8.877  0.7095E+00  0.7069E+01
      8.940  0.2088E+00  0.7083E+01
      9.004  0.1044E+01  0.7149E+01
      9.068  0.2070E+01  0.7282E+01
      9.132  0.9042E+00  0.7339E+01
      9.196  0.1328E+01  0.7424E+01
      9.260  0.9863E+00  0.7487E+01
      9.324  0.6045E+00  0.7526E+01
      9.387  0.4110E+00  0.7552E+01
      9.451  0.6802E+00  0.7596E+01
      9.515  0.6699E+00  0.7638E+01
      9.579  0.7841E+00  0.7688E+01
      9.643  0.1720E+01  0.7798E+01
      9.707  0.1838E+01  0.7916E+01
      9.771  0.1289E+01  0.7998E+01
      9.835  0.1024E+01  0.8063E+01
      9.898  0.1187E+01  0.8139E+01
      9.962  0.1790E+01  0.8254E+01
     10.026  0.1381E+01  0.8342E+01
     10.090  0.1360E+01  0.8429E+01
     10.154  0.6254E+00  0.8469E+01
     10.218  0.1181E+01  0.8544E+01
     10.282  0.1816E+01  0.8660E+01
     10.345  0.1803E+01  0.8775E+01
     10.409  0.1396E+01  0.8864E+01
     10.473  0.3299E+01  0.9075E+01
     10.537  0.4095E+01  0.9337E+01
     10.601  0.2726E+01  0.9511E+01
     10.665  0.3252E+01  0.9718E+01
     10.729  0.1541E+01  0.9817E+01
     10.793  0.1307E+01  0.9900E+01
     10.856  0.1116E+01  0.9972E+01
     10.920 -0.2817E-01  0.9970E+01
     10.984  0.6519E+00  0.1001E+02
     11.048  0.5539E+00  0.1005E+02
     11.112  0.8651E+00  0.1010E+02
     11.176  0.4031E+00  0.1013E+02
     11.240  0.7186E-01  0.1013E+02
     11.303  0.6943E+00  0.1018E+02
     11.367  0.1156E+01  0.1025E+02
     11.431  0.1778E+01  0.1036E+02
     11.495  0.6389E+00  0.1040E+02
     11.559  0.2180E+01  0.1054E+02
     11.623  0.1165E+01  0.1062E+02
     11.687  0.9131E-01  0.1062E+02
     11.751  0.2310E+00  0.1064E+02
     11.814  0.4020E+00  0.1066E+02
     11.878  0.1775E+00  0.1068E+02
     11.942  0.3847E+00  0.1070E+02
     12.006  0.2394E+00  0.1072E+02
     12.070  0.2545E+00  0.1073E+02
     12.134  0.4708E+00  0.1076E+02
     12.198  0.1020E+00  0.1077E+02
     12.261 -0.1257E-01  0.1077E+02
     12.325  0.2024E-01  0.1077E+02
     12.389  0.2976E+00  0.1079E+02
     12.453  0.1358E-01  0.1079E+02
     12.517  0.3492E+00  0.1081E+02
     12.581  0.2295E+00  0.1083E+02
     12.645 -0.2337E-01  0.1082E+02
     12.709  0.7767E-01  0.1083E+02
     12.772  0.2293E+00  0.1084E+02
     12.836 -0.1334E-01  0.1084E+02
     12.900  0.5483E-01  0.1085E+02
     12.964  0.1030E+01  0.1091E+02
     13.028  0.1850E+01  0.1103E+02
     13.092  0.9910E+00  0.1109E+02
     13.156  0.6088E+00  0.1113E+02
     13.219  0.9642E+00  0.1119E+02
     13.283  0.1433E+01  0.1129E+02
     13.347  0.3707E+00  0.1131E+02
     13.411  0.1829E+00  0.1132E+02
     13.475  0.1898E+00  0.1133E+02
     13.539  0.1396E+00  0.1134E+02
     13.603  0.1737E+00  0.1135E+02
     13.667  0.4354E+00  0.1138E+02
     13.730  0.1316E+00  0.1139E+02
     13.794  0.3758E+00  0.1141E+02
     13.858  0.1412E+00  0.1142E+02
     13.922  0.4087E-01  0.1143E+02
     13.986  0.1548E-01  0.1143E+02
     14.050  0.4690E+00  0.1146E+02
     14.114  0.1398E+00  0.1147E+02
     14.177  0.5838E-02  0.1147E+02
     14.241  0.3261E+00  0.1149E+02
     14.305  0.5096E+00  0.1152E+02
     14.369  0.1848E+00  0.1153E+02
     14.433  0.3884E+00  0.1156E+02
     14.497  0.6962E+00  0.1160E+02
     14.561  0.9624E-01  0.1161E+02
     14.625  0.9927E-01  0.1161E+02
     14.688  0.7687E+00  0.1166E+02
     14.752  0.1263E+01  0.1174E+02
     14.816  0.1331E+01  0.1183E+02
     14.880  0.1838E+00  0.1184E+02
     14.944  0.1637E+00  0.1185E+02
     15.008  0.2392E+00  0.1186E+02
     15.072  0.2901E+00  0.1188E+02
     15.135  0.7959E+00  0.1193E+02
     15.199  0.2826E+00  0.1195E+02
     15.263  0.3953E+00  0.1198E+02
     15.327  0.2316E+00  0.1199E+02
     15.391  0.1248E+00  0.1200E+02
     15.455 -0.3657E-02  0.1200E+02
     15.519 -0.5644E-03  0.1200E+02
     15.583 -0.9470E-06  0.1200E+02
     15.646 -0.4876E-10  0.1200E+02
     15.710 -0.8109E-16  0.1200E+02
     15.774  0.0000E+00  0.1200E+02
     15.838  0.0000E+00  0.1200E+02
     15.902  0.0000E+00  0.1200E+02
     15.966  0.0000E+00  0.1200E+02
     16.030  0.0000E+00  0.1200E+02
     16.093  0.0000E+00  0.1200E+02
     16.157  0.0000E+00  0.1200E+02
     16.221  0.0000E+00  0.1200E+02
