    1    1    1    2
  0.1813235E+02  0.2866544E-09  0.2866544E-09  0.2866544E-09  0.5000000E-15
  1.000000000000000E-004
  CAR 
 unknown system                          
    5  100    6
 
  0.3571429E-01  0.3571429E-01  0.3571429E-01  0.2915452E-02
   1       -1.833992     -1.866545
   2        6.281357      6.245438
   3        6.281357      6.245438
   4        6.847404      6.811613
   5        9.533819      9.517479
   6        9.533819      9.517479
 
  0.1071429E+00  0.3571429E-01  0.3571429E-01  0.8746356E-02
   1       -1.213533     -1.245989
   2        5.880222      5.844426
   3        6.038280      6.003391
   4        7.550118      7.514854
   5        9.169423      9.151199
   6        9.633833      9.617031
 
  0.1785714E+00  0.3571429E-01  0.3571429E-01  0.8746356E-02
   1       -0.302486     -0.334863
   2        5.380770      5.344993
   3        5.657260      5.624571
   4        8.609786      8.575731
   5        9.087063      9.065874
   6        9.780409      9.763149
 
  0.2500000E+00  0.3571429E-01  0.3571429E-01  0.8746356E-02
   1        0.654579      0.622197
   2        4.900908      4.865087
   3        5.420390      5.389770
   4        9.267149      9.244291
   5        9.986423      9.968835
   6       10.018173      9.985182
 
  0.3214286E+00  0.3571429E-01  0.3571429E-01  0.8746356E-02
   1        1.283191      1.250895
   2        4.515396      4.479521
   3        5.758778      5.729320
   4        9.555831      9.532439
   5       10.244030     10.226311
   6       11.567501     11.536199
 
  0.3928571E+00  0.3571429E-01  0.3571429E-01  0.8746356E-02
   1        1.475862      1.443859
   2        4.269019      4.233108
   3        6.609761      6.580408
   4        9.669508      9.646418
   5       10.485561     10.467889
   6       12.990269     12.961396
 
  0.4642857E+00  0.3571429E-01  0.3571429E-01  0.4373178E-02
   1        1.494487      1.462629
   2        4.184453      4.148529
   3        7.129350      7.099630
   4        9.617338      9.594802
   5       10.589211     10.571600
   6       13.639387     13.612118
 
 -0.3571429E-01  0.3571429E-01  0.3571429E-01  0.2186589E-02
   1       -2.051634     -2.084227
   2        6.440276      6.404260
   3        6.440276      6.404261
   4        6.511788      6.475774
   5        9.494784      9.478669
   6        9.752488      9.736800
 
  0.1071429E+00  0.1071429E+00  0.3571429E-01  0.8746356E-02
   1       -0.454961     -0.487351
   2        5.506532      5.471279
   3        5.555683      5.521700
   4        8.555232      8.520786
   5        9.067788      9.048145
   6        9.770359      9.752762
 
  0.1785714E+00  0.1071429E+00  0.3571429E-01  0.1749271E-01
   1        0.515316      0.482948
   2        5.029269      4.994711
   3        5.180296      5.147354
   4        9.088463      9.066920
   5        9.875904      9.842933
   6       10.042419     10.024337
 
  0.2500000E+00  0.1071429E+00  0.3571429E-01  0.1749271E-01
   1        1.389103      1.356694
   2        4.621116      4.586210
   3        5.149887      5.118738
   4        9.333614      9.310928
   5       10.282569     10.264575
   6       11.407901     11.376318
 
  0.3214286E+00  0.1071429E+00  0.3571429E-01  0.1749271E-01
   1        1.805142      1.772908
   2        4.343091      4.307751
   3        5.739206      5.709241
   4        9.604766      9.581749
   5       10.477807     10.459714
   6       12.940174     12.910762
 
  0.3928571E+00  0.1071429E+00  0.3571429E-01  0.1749271E-01
   1        1.875645      1.843670
   2        4.201024      4.165495
   3        6.499177      6.469536
   4        9.660288      9.637724
   5       10.653716     10.635375
   6       14.038822     14.011708
 
 -0.1071429E+00  0.1071429E+00  0.3571429E-01  0.8746356E-02
   1       -1.619742     -1.652244
   2        6.185741      6.149738
   3        6.343115      6.307550
   4        6.929518      6.893796
   5        9.036575      9.019171
   6        9.840836      9.824854
 
  0.1785714E+00  0.1785714E+00  0.3571429E-01  0.8746356E-02
   1        1.474554      1.442118
   2        4.650085      4.618500
   3        4.888790      4.853988
   4        9.173263      9.150838
   5       10.349823     10.331707
   6       11.390002     11.358414
 
  0.2500000E+00  0.1785714E+00  0.3571429E-01  0.1749271E-01
   1        2.221036      2.188378
   2        4.388110      4.355797
   3        4.995454      4.962661
   4        9.428641      9.405641
   5       10.503896     10.485320
   6       13.017006     12.987532
 
  0.3214286E+00  0.1785714E+00  0.3571429E-01  0.1749271E-01
   1        2.466070      2.433536
   2        4.268943      4.235087
   3        5.573637      5.543341
   4        9.670069      9.647177
   5       10.601405     10.581985
   6       14.464800     14.437650
 
  0.3928571E+00  0.1785714E+00  0.3571429E-01  0.8746356E-02
   1        2.485126      2.452754
   2        4.231646      4.197304
   3        5.942675      5.913283
   4        9.705443      9.682825
   5       10.722631     10.702748
   6       15.134646     15.108991
 
 -0.1785714E+00  0.1785714E+00  0.3571429E-01  0.8746356E-02
   1       -0.828840     -0.861215
   2        5.735168      5.699171
   3        6.032266      5.998761
   4        7.784896      7.749794
   5        8.742281      8.722268
   6        9.928661      9.912022
 
 -0.1071429E+00  0.1785714E+00  0.3571429E-01  0.8746356E-02
   1       -1.008942     -1.041313
   2        5.988100      5.952330
   3        6.085250      6.050612
   4        7.510278      7.475013
   5        8.509541      8.490243
   6       10.066557     10.050262
 
  0.2500000E+00  0.2500000E+00  0.3571429E-01  0.8746356E-02
   1        2.849702      2.816059
   2        4.299944      4.269709
   3        5.058396      5.025721
   4        9.686468      9.663352
   5       10.520566     10.500757
   6       14.671050     14.643919
 
  0.3214286E+00  0.2500000E+00  0.3571429E-01  0.1749271E-01
   1        3.056021      3.021936
   2        4.367970      4.336792
   3        5.248114      5.218178
   4        9.933545      9.910731
   5       10.554824     10.533749
   6       14.772383     14.737647
 
 -0.2500000E+00  0.2500000E+00  0.3571429E-01  0.8746356E-02
   1        0.144161      0.111850
   2        5.234076      5.198085
   3        5.629819      5.598983
   4        8.848544      8.825906
   5        9.007640      8.973539
   6       10.068732     10.051413
 
 -0.1785714E+00  0.2500000E+00  0.3571429E-01  0.1749271E-01
   1       -0.110611     -0.142844
   2        5.544769      5.509808
   3        5.689216      5.656458
   4        8.341580      8.318902
   5        8.561752      8.527737
   6       10.267075     10.250168
 
  0.3214286E+00  0.3214286E+00  0.3571429E-01  0.2915452E-02
   1        3.276450      3.241115
   2        4.767106      4.737589
   3        4.767109      4.737590
   4       10.324098     10.301866
   5       10.324099     10.301867
   6       14.117710     14.081839
 
 -0.3214286E+00  0.3214286E+00  0.3571429E-01  0.8746356E-02
   1        0.970665      0.938383
   2        4.785109      4.749121
   3        5.596561      5.567488
   4        9.192557      9.168559
   5       10.250961     10.233221
   6       10.503722     10.471125
 
 -0.2500000E+00  0.3214286E+00  0.3571429E-01  0.1749271E-01
   1        0.841259      0.809086
   2        5.059030      5.024578
   3        5.388103      5.357267
   4        8.599771      8.575286
   5        9.934249      9.901186
   6       10.435305     10.417655
 
 -0.1785714E+00  0.3214286E+00  0.3571429E-01  0.8746356E-02
   1        0.814119      0.782013
   2        5.086881      5.056428
   3        5.404520      5.369240
   4        8.292073      8.267692
   5        9.777811      9.744612
   6       10.528151     10.510599
 
 -0.3928571E+00  0.3928571E+00  0.3571429E-01  0.8746356E-02
   1        1.354559      1.322524
   2        4.454761      4.418775
   3        6.197686      6.169260
   4        9.481023      9.456858
   5       10.466312     10.448286
   6       12.073846     12.043434
 
 -0.3214286E+00  0.3928571E+00  0.3571429E-01  0.1749271E-01
   1        1.478714      1.446676
   2        4.697213      4.661957
   3        5.549073      5.520464
   4        9.025764      9.000521
   5       10.538034     10.519212
   6       11.529577     11.498715
 
 -0.2500000E+00  0.3928571E+00  0.3571429E-01  0.1749271E-01
   1        1.680429      1.648324
   2        4.668388      4.638334
   3        5.286585      5.252730
   4        8.584965      8.559324
   5       10.515701     10.495050
   6       11.413258     11.383765
 
 -0.4642857E+00  0.4642857E+00  0.3571429E-01  0.8746356E-02
   1        1.426998      1.395235
   2        4.281187      4.245202
   3        6.964334      6.935695
   4        9.458548      9.435331
   5       10.706075     10.687556
   6       13.246405     13.218441
 
 -0.3928571E+00  0.4642857E+00  0.3571429E-01  0.1749271E-01
   1        1.673328      1.641643
   2        4.469838      4.434210
   3        6.183599      6.155876
   4        9.207147      9.182769
   5       10.814362     10.794331
   6       12.984200     12.955550
 
 -0.3214286E+00  0.4642857E+00  0.3571429E-01  0.1749271E-01
   1        2.134156      2.102229
   2        4.526721      4.494302
   3        5.452170      5.422082
   4        8.968795      8.943191
   5       10.608141     10.586855
   6       13.026929     12.998436
 
 -0.2500000E+00  0.4642857E+00  0.3571429E-01  0.8746356E-02
   1        2.442393      2.409890
   2        4.319177      4.290774
   3        5.300631      5.267242
   4        8.866268      8.840055
   5       10.455873     10.434283
   6       13.098554     13.070183
 
 -0.4642857E+00 -0.4642857E+00  0.3571429E-01  0.8746356E-02
   1        1.689935      1.658423
   2        4.391100      4.355388
   3        6.579126      6.551526
   4        9.131746      9.108091
   5       11.064791     11.044149
   6       13.655785     13.628692
 
 -0.3928571E+00 -0.4642857E+00  0.3571429E-01  0.1749271E-01
   1        2.216834      2.185284
   2        4.489941      4.455597
   3        5.813195      5.785783
   4        9.034721      9.009991
   5       10.976427     10.953686
   6       14.276806     14.250343
 
 -0.3214286E+00 -0.4642857E+00  0.3571429E-01  0.1749271E-01
   1        2.827640      2.794913
   2        4.319602      4.290149
   3        5.271816      5.241716
   4        9.238988      9.213003
   5       10.519283     10.495622
   6       14.783531     14.757205
 
 -0.3928571E+00 -0.3928571E+00  0.3571429E-01  0.8746356E-02
   1        2.888266      2.855832
   2        4.447008      4.415152
   3        5.219881      5.192865
   4        9.331102      9.305433
   5       10.764836     10.740410
   6       15.322169     15.289281
 
 -0.3214286E+00 -0.3928571E+00  0.3571429E-01  0.8746356E-02
   1        3.323840      3.289023
   2        4.354580      4.327120
   3        4.856486      4.828338
   4        9.803671      9.777648
   5       10.368679     10.343560
   6       14.861436     14.827609
 
  0.1071429E+00  0.1071429E+00  0.1071429E+00  0.2915452E-02
   1        0.405867      0.373456
   2        5.043502      5.009378
   3        5.043502      5.009378
   4        9.596785      9.577588
   5        9.596785      9.577588
   6        9.892480      9.859179
 
  0.1785714E+00  0.1071429E+00  0.1071429E+00  0.8746356E-02
   1        1.409401      1.376934
   2        4.628387      4.593866
   3        4.730703      4.697970
   4        9.648562      9.627973
   5       10.021053     10.002455
   6       11.440714     11.408972
 
  0.2500000E+00  0.1071429E+00  0.1071429E+00  0.8746356E-02
   1        2.150812      2.118294
   2        4.330435      4.295515
   3        4.941548      4.910032
   4        9.831045      9.809696
   5       10.343683     10.325626
   6       13.037398     13.007604
 
  0.3214286E+00  0.1071429E+00  0.1071429E+00  0.8746356E-02
   1        2.356452      2.324146
   2        4.153058      4.117861
   3        5.751335      5.720420
   4        9.962061      9.940575
   5       10.563768     10.546124
   6       14.368729     14.341101
 
  0.3928571E+00  0.1071429E+00  0.1071429E+00  0.4373178E-02
   1        2.363593      2.331418
   2        4.094287      4.058993
   3        6.249507      6.218740
   4        9.970913      9.949515
   5       10.645540     10.628060
   6       14.936043     14.909966
 
 -0.1071429E+00  0.1071429E+00  0.1071429E+00  0.2186589E-02
   1       -1.198447     -1.230809
   2        6.364116      6.328373
   3        6.364117      6.328374
   4        6.935137      6.899439
   5        8.216548      8.198228
   6       10.218425     10.202646
 
  0.1785714E+00  0.1785714E+00  0.1071429E+00  0.8746356E-02
   1        2.397598      2.364984
   2        4.370421      4.337802
   3        4.469174      4.435023
   4        9.888787      9.868307
   5       10.306406     10.287916
   6       13.110033     13.080191
 
  0.2500000E+00  0.1785714E+00  0.1071429E+00  0.1749271E-01
   1        2.962966      2.930061
   2        4.213982      4.180316
   3        4.832387      4.800082
   4       10.081294     10.060637
   5       10.535343     10.517264
   6       14.661652     14.633907
 
  0.3214286E+00  0.1785714E+00  0.1071429E+00  0.1749271E-01
   1        3.022558      2.989777
   2        4.139804      4.105525
   3        5.544051      5.512792
   4       10.183643     10.162994
   5       10.656112     10.638188
   6       14.783083     14.747614
 
 -0.1785714E+00  0.1785714E+00  0.1071429E+00  0.8746356E-02
   1       -0.426832     -0.458964
   2        6.081383      6.045674
   3        6.159719      6.126514
   4        7.651478      7.616340
   5        7.660179      7.638658
   6       10.471046     10.454762
 
  0.2500000E+00  0.2500000E+00  0.1071429E+00  0.8746356E-02
   1        3.396040      3.361864
   2        4.365519      4.333782
   3        4.926355      4.894011
   4       10.303777     10.283563
   5       10.610110     10.591644
   6       14.510847     14.474725
 
  0.3214286E+00  0.2500000E+00  0.1071429E+00  0.8746356E-02
   1        3.455398      3.420943
   2        4.456237      4.424197
   3        5.101866      5.070592
   4       10.416621     10.396705
   5       10.628070     10.609289
   6       13.767928     13.731042
 
 -0.2500000E+00  0.2500000E+00  0.1071429E+00  0.8746356E-02
   1        0.528647      0.496735
   2        5.593622      5.564870
   3        5.628860      5.593131
   4        7.825202      7.799193
   5        8.857272      8.823117
   6       10.620486     10.603246
 
 -0.1785714E+00  0.2500000E+00  0.1071429E+00  0.8746356E-02
   1        0.429167      0.397370
   2        5.694763      5.665518
   3        6.013621      5.978199
   4        7.354225      7.328090
   5        8.452840      8.418395
   6       10.704291     10.687171
 
 -0.3214286E+00  0.3214286E+00  0.1071429E+00  0.8746356E-02
   1        1.360084      1.328356
   2        5.206732      5.170988
   3        5.270391      5.243610
   4        8.340952      8.313588
   5       10.357406     10.324730
   6       10.695416     10.676835
 
 -0.2500000E+00  0.3214286E+00  0.1071429E+00  0.1749271E-01
   1        1.353267      1.321785
   2        5.046181      5.019125
   3        5.749419      5.714468
   4        7.706178      7.677631
   5        9.734677      9.701803
   6       10.794388     10.775351
 
 -0.3928571E+00  0.3928571E+00  0.1071429E+00  0.8746356E-02
   1        1.751992      1.720664
   2        4.892444      4.856689
   3        5.532710      5.506631
   4        8.697314      8.670934
   5       10.970716     10.949813
   6       11.944456     11.913933
 
 -0.3214286E+00  0.3928571E+00  0.1071429E+00  0.1749271E-01
   1        2.010298      1.979171
   2        4.768556      4.741386
   3        5.487781      5.454113
   4        8.232664      8.204330
   5       10.623998     10.599844
   6       11.565625     11.537113
 
 -0.2500000E+00  0.3928571E+00  0.1071429E+00  0.8746356E-02
   1        2.178797      2.147626
   2        4.454932      4.428785
   3        5.761680      5.727512
   4        7.998133      7.968747
   5       10.321959     10.296753
   6       11.577077     11.549486
 
 -0.4642857E+00  0.4642857E+00  0.1071429E+00  0.8746356E-02
   1        1.814798      1.783858
   2        4.726096      4.690335
   3        6.025006      5.999013
   4        8.588974      8.563988
   5       11.576648     11.554039
   6       13.141929     13.113860
 
 -0.3928571E+00  0.4642857E+00  0.1071429E+00  0.1749271E-01
   1        2.207012      2.176510
   2        4.900724      4.869129
   3        5.401861      5.373007
   4        8.341352      8.314621
   5       11.272617     11.247549
   6       13.052710     13.024659
 
 -0.3214286E+00  0.4642857E+00  0.1071429E+00  0.1749271E-01
   1        2.717174      2.686374
   2        4.250896      4.224586
   3        5.535805      5.503470
   4        8.477583      8.448621
   5       10.485104     10.459189
   6       13.241759     13.213734
 
 -0.4642857E+00 -0.4642857E+00  0.1071429E+00  0.8746356E-02
   1        2.212812      2.182604
   2        4.959216      4.924213
   3        5.486346      5.461050
   4        8.229758      8.203464
   5       11.816026     11.790578
   6       13.805385     13.778615
 
 -0.3928571E+00 -0.4642857E+00  0.1071429E+00  0.1749271E-01
   1        2.819821      2.789941
   2        4.601673      4.573455
   3        5.117347      5.087374
   4        8.602684      8.574401
   5       11.134010     11.106859
   6       14.744579     14.717919
 
 -0.3214286E+00 -0.4642857E+00  0.1071429E+00  0.8746356E-02
   1        3.378691      3.347298
   2        3.970668      3.945161
   3        5.089433      5.059245
   4        9.175296      9.146009
   5       10.449100     10.421502
   6       15.072044     15.045244
 
 -0.3928571E+00 -0.3928571E+00  0.1071429E+00  0.8746356E-02
   1        3.560987      3.531025
   2        4.381841      4.356684
   3        4.420898      4.389726
   4        9.522288      9.493355
   5       10.602204     10.574074
   6       15.228219     15.195634
 
  0.1785714E+00  0.1785714E+00  0.1785714E+00  0.2915452E-02
   1        3.441136      3.408577
   2        4.216277      4.182783
   3        4.216277      4.182783
   4       10.374319     10.355496
   5       10.374319     10.355496
   6       14.789512     14.761818
 
  0.2500000E+00  0.1785714E+00  0.1785714E+00  0.8746356E-02
   1        3.757851      3.725008
   2        4.147701      4.113599
   3        4.764419      4.732022
   4       10.466828     10.447862
   5       10.636818     10.619112
   6       14.442971     14.406248
 
  0.3214286E+00  0.1785714E+00  0.1785714E+00  0.4373178E-02
   1        3.714093      3.681315
   2        4.129478      4.095156
   3        5.233789      5.201779
   4       10.496724     10.477689
   5       10.717252     10.699943
   6       13.672262     13.635042
 
 -0.1785714E+00  0.1785714E+00  0.1785714E+00  0.2186589E-02
   1        0.304019      0.272347
   2        6.459090      6.423804
   3        6.459091      6.423805
   4        6.468482      6.448198
   5        7.753201      7.718177
   6       10.782675     10.765671
 
  0.2500000E+00  0.2500000E+00  0.1785714E+00  0.8746356E-02
   1        3.996108      3.962154
   2        4.450709      4.417901
   3        4.778241      4.745710
   4       10.647407     10.629364
   5       10.707409     10.689861
   6       13.246951     13.209028
 
 -0.2500000E+00  0.2500000E+00  0.1785714E+00  0.8746356E-02
   1        1.205426      1.174355
   2        5.417416      5.393724
   3        6.328376      6.293152
   4        6.982844      6.950784
   5        8.687109      8.652916
   6       10.832814     10.813980
 
 -0.3214286E+00  0.3214286E+00  0.1785714E+00  0.8746356E-02
   1        2.013023      1.982589
   2        4.726048      4.702102
   3        6.010491      5.975226
   4        7.618418      7.587500
   5       10.132228     10.099451
   6       10.818319     10.796634
 
 -0.2500000E+00  0.3214286E+00  0.1785714E+00  0.8746356E-02
   1        2.032597      2.002438
   2        4.670720      4.647360
   3        6.456374      6.421741
   4        7.277244      7.244537
   5        9.604029      9.571308
   6       10.793178     10.771025
 
 -0.3928571E+00  0.3928571E+00  0.1785714E+00  0.8746356E-02
   1        2.401224      2.371671
   2        4.615069      4.590839
   3        5.742683      5.707385
   4        7.865368      7.836691
   5       11.384156     11.358852
   6       11.725616     11.694922
 
 -0.3214286E+00  0.3928571E+00  0.1785714E+00  0.1749271E-01
   1        2.662155      2.633008
   2        4.140478      4.116704
   3        6.233295      6.199266
   4        7.828583      7.797083
   5       10.412717     10.384506
   6       11.616506     11.587824
 
 -0.4642857E+00  0.4642857E+00  0.1785714E+00  0.8746356E-02
   1        2.425648      2.396819
   2        4.868952      4.844550
   3        5.596363      5.561049
   4        7.658927      7.631184
   5       12.520377     12.493416
   6       12.958993     12.930748
 
 -0.3928571E+00  0.4642857E+00  0.1785714E+00  0.1749271E-01
   1        2.822718      2.794996
   2        4.177680      4.153363
   3        5.903041      5.869304
   4        7.946193      7.915883
   5       11.392543     11.363574
   6       13.219870     13.191293
 
 -0.3214286E+00  0.4642857E+00  0.1785714E+00  0.8746356E-02
   1        3.214294      3.186416
   2        3.676726      3.652872
   3        5.891466      5.858665
   4        8.591521      8.559722
   5       10.468076     10.438836
   6       13.358737     13.329910
 
 -0.4642857E+00 -0.4642857E+00  0.1785714E+00  0.8746356E-02
   1        2.784766      2.757579
   2        4.360207      4.336159
   3        5.711080      5.677098
   4        7.884219      7.853926
   5       12.142745     12.114054
   6       14.238458     14.210344
 
 -0.3928571E+00 -0.4642857E+00  0.1785714E+00  0.1749271E-01
   1        3.270917      3.245354
   2        3.823071      3.798701
   3        5.395182      5.361534
   4        9.050615      9.019382
   5       11.062936     11.033125
   6       15.120665     15.092458
 
 -0.3928571E+00 -0.3928571E+00  0.1785714E+00  0.2915452E-02
   1        3.612051      3.588108
   2        3.612053      3.588109
   3        5.049428      5.014198
   4       10.301087     10.270549
   5       10.301088     10.270551
   6       15.367100     15.335035
 
  0.2500000E+00  0.2500000E+00  0.2500000E+00  0.7288630E-03
   1        4.488903      4.455697
   2        4.488905      4.455697
   3        4.488905      4.455697
   4       10.749534     10.732304
   5       10.749534     10.732304
   6       12.764404     12.725862
 
 -0.2500000E+00  0.2500000E+00  0.2500000E+00  0.2186589E-02
   1        1.985490      1.955700
   2        4.797010      4.775476
   3        6.971872      6.937165
   4        6.971872      6.937166
   5        8.899653      8.865740
   6       10.696551     10.674760
 
 -0.3214286E+00  0.3214286E+00  0.2500000E+00  0.8746356E-02
   1        2.635047      2.606768
   2        4.075335      4.052960
   3        7.077623      7.043025
   4        7.481774      7.448414
   5        9.974062      9.941294
   6       10.643074     10.617580
 
 -0.3928571E+00  0.3928571E+00  0.2500000E+00  0.8746356E-02
   1        2.912855      2.886360
   2        3.725293      3.701988
   3        6.948542      6.913915
   4        7.647657      7.616121
   5       11.486266     11.455429
   6       11.520379     11.491243
 
 -0.3214286E+00  0.3928571E+00  0.2500000E+00  0.8746356E-02
   1        3.009567      2.983173
   2        3.498205      3.475502
   3        7.124127      7.090434
   4        8.184030      8.150604
   5       10.436234     10.405892
   6       11.532828     11.502680
 
 -0.4642857E+00  0.4642857E+00  0.2500000E+00  0.8746356E-02
   1        2.820878      2.795499
   2        3.802769      3.779141
   3        6.849381      6.814730
   4        7.473350      7.441991
   5       12.739734     12.711290
   6       13.158305     13.127423
 
 -0.3928571E+00  0.4642857E+00  0.2500000E+00  0.1749271E-01
   1        2.995784      2.971553
   2        3.327351      3.303678
   3        6.841621      6.807736
   4        8.650067      8.617333
   5       11.329444     11.298692
   6       13.295190     13.265095
 
 -0.4642857E+00 -0.4642857E+00  0.2500000E+00  0.8746356E-02
   1        2.876002      2.852037
   2        3.383043      3.359638
   3        6.706118      6.671960
   4        8.712160      8.679531
   5       12.100867     12.070973
   6       14.711458     14.680276
 
 -0.3928571E+00 -0.4642857E+00  0.2500000E+00  0.8746356E-02
   1        3.008494      2.985281
   2        3.114885      3.091312
   3        6.542252      6.507699
   4        9.990037      9.958037
   5       11.115235     11.084183
   6       15.230489     15.200676
 
 -0.3214286E+00  0.3214286E+00  0.3214286E+00  0.2186589E-02
   1        2.926911      2.900899
   2        3.438684      3.416401
   3        8.038249      8.004250
   4        8.038249      8.004250
   5       10.241675     10.209392
   6       10.588124     10.559236
 
 -0.3928571E+00  0.3928571E+00  0.3214286E+00  0.8746356E-02
   1        2.892244      2.868400
   2        3.006289      2.983047
   3        8.386356      8.352557
   4        8.459382      8.426117
   5       11.331173     11.300362
   6       11.534703     11.502906
 
 -0.4642857E+00  0.4642857E+00  0.3214286E+00  0.8746356E-02
   1        2.654407      2.631128
   2        2.944182      2.920915
   3        8.417717      8.383950
   4        8.458994      8.425773
   5       12.530566     12.501945
   6       13.443037     13.409402
 
 -0.3928571E+00  0.4642857E+00  0.3214286E+00  0.8746356E-02
   1        2.626794      2.603970
   2        2.735203      2.711715
   3        8.339339      8.305582
   4        9.766604      9.733814
   5       11.562348     11.531213
   6       13.261431     13.229602
 
 -0.4642857E+00 -0.4642857E+00  0.3214286E+00  0.8746356E-02
   1        2.521542      2.498520
   2        2.638029      2.614946
   3        8.280313      8.246416
   4       10.240111     10.207695
   5       11.955935     11.925503
   6       14.985223     14.951429
 
 -0.3928571E+00  0.3928571E+00  0.3928571E+00  0.2186589E-02
   1        2.496056      2.473351
   2        2.599095      2.575623
   3        9.686190      9.653150
   4        9.686190      9.653150
   5       11.532260     11.502016
   6       11.963787     11.929916
 
 -0.4642857E+00  0.4642857E+00  0.3928571E+00  0.8746356E-02
   1        2.264674      2.241802
   2        2.351913      2.328844
   3       10.181144     10.148291
   4       10.187295     10.154691
   5       12.375444     12.346721
   6       13.555989     13.520542
 
 -0.4642857E+00 -0.4642857E+00  0.3928571E+00  0.2915452E-02
   1        2.173490      2.150553
   2        2.173490      2.150554
   3       10.221321     10.188534
   4       11.834240     11.803515
   5       11.834244     11.803516
   6       15.086710     15.051465
 
 -0.4642857E+00  0.4642857E+00  0.4642857E+00  0.2186589E-02
   1        2.015367      1.992470
   2        2.041097      2.018145
   3       11.788585     11.757762
   4       11.788588     11.757763
   5       12.374040     12.345486
   6       13.895193     13.857882
