    1    1    1    1
  0.1813235E+02  0.2866544E-09  0.2866544E-09  0.2866544E-09  0.5000000E-15
  1.000000000000000E-004
  CAR 
 unknown system                          
    5  100    6
 
  0.3571429E-01  0.3571429E-01  0.3571429E-01  0.2915452E-02
   1       -1.850290
   2        6.262084
   3        6.262084
   4        6.828136
   5        9.524197
   6        9.524197
 
  0.1071429E+00  0.3571429E-01  0.3571429E-01  0.8746356E-02
   1       -1.229788
   2        5.861079
   3        6.019626
   4        7.531086
   5        9.158907
   6        9.623964
 
  0.1785714E+00  0.3571429E-01  0.3571429E-01  0.8746356E-02
   1       -0.318726
   2        5.361707
   3        5.639894
   4        8.591317
   5        9.075021
   6        9.770291
 
  0.2500000E+00  0.3571429E-01  0.3571429E-01  0.8746356E-02
   1        0.638248
   2        4.881881
   3        5.404312
   4        9.254213
   5        9.976099
   6       10.000149
 
  0.3214286E+00  0.3571429E-01  0.3571429E-01  0.8746356E-02
   1        1.266721
   2        4.496383
   3        5.743615
   4        9.542593
   5       10.233565
   6       11.550198
 
  0.3928571E+00  0.3571429E-01  0.3571429E-01  0.8746356E-02
   1        1.459392
   2        4.250011
   3        6.594959
   4        9.656438
   5       10.475028
   6       12.973988
 
  0.4642857E+00  0.3571429E-01  0.3571429E-01  0.4373178E-02
   1        1.478047
   2        4.165447
   3        7.114525
   4        9.604543
   5       10.578662
   6       13.623765
 
 -0.3571429E-01  0.3571429E-01  0.3571429E-01  0.2186589E-02
   1       -2.067951
   2        6.420924
   3        6.420924
   4        6.492422
   5        9.485283
   6        9.743139
 
  0.1071429E+00  0.1071429E+00  0.3571429E-01  0.8746356E-02
   1       -0.471197
   2        5.487751
   3        5.537585
   4        8.536580
   5        9.056560
   6        9.760045
 
  0.1785714E+00  0.1071429E+00  0.3571429E-01  0.1749271E-01
   1        0.499048
   2        5.010928
   3        5.162857
   4        9.076247
   5        9.857956
   6       10.031790
 
  0.2500000E+00  0.1071429E+00  0.3571429E-01  0.1749271E-01
   1        1.372681
   2        4.602636
   3        5.133604
   4        9.320772
   5       10.271936
   6       11.390582
 
  0.3214286E+00  0.1071429E+00  0.3571429E-01  0.1749271E-01
   1        1.788609
   2        4.324409
   3        5.723836
   4        9.591728
   5       10.467080
   6       12.923848
 
  0.3928571E+00  0.1071429E+00  0.3571429E-01  0.1749271E-01
   1        1.859141
   2        4.182256
   3        6.484171
   4        9.647487
   5       10.642840
   6       14.023503
 
 -0.1071429E+00  0.1071429E+00  0.3571429E-01  0.8746356E-02
   1       -1.636016
   2        6.166440
   3        6.324048
   4        6.910281
   5        9.026522
   6        9.831330
 
  0.1785714E+00  0.1785714E+00  0.3571429E-01  0.8746356E-02
   1        1.458180
   2        4.633413
   3        4.870425
   4        9.160584
   5       10.339101
   6       11.372725
 
  0.2500000E+00  0.1785714E+00  0.3571429E-01  0.1749271E-01
   1        2.204367
   2        4.371093
   3        4.978347
   4        9.415633
   5       10.492916
   6       13.000775
 
  0.3214286E+00  0.1785714E+00  0.3571429E-01  0.1749271E-01
   1        2.449280
   2        4.251115
   3        5.558063
   4        9.657097
   5       10.590013
   6       14.449710
 
  0.3928571E+00  0.1785714E+00  0.3571429E-01  0.8746356E-02
   1        2.468368
   2        4.213562
   3        5.927639
   4        9.692621
   5       10.711003
   6       15.120288
 
 -0.1785714E+00  0.1785714E+00  0.3571429E-01  0.8746356E-02
   1       -0.845062
   2        5.715939
   3        6.014394
   4        7.765926
   5        8.730930
   6        9.918816
 
 -0.1071429E+00  0.1785714E+00  0.3571429E-01  0.8746356E-02
   1       -1.025156
   2        5.968975
   3        6.066732
   4        7.491250
   5        8.498616
   6       10.056846
 
  0.2500000E+00  0.2500000E+00  0.3571429E-01  0.8746356E-02
   1        2.832338
   2        4.284110
   3        5.041425
   4        9.673364
   5       10.508999
   6       14.656046
 
  0.3214286E+00  0.2500000E+00  0.3571429E-01  0.1749271E-01
   1        3.038302
   2        4.351659
   3        5.232653
   4        9.920571
   5       10.542631
   6       14.754325
 
 -0.2500000E+00  0.2500000E+00  0.3571429E-01  0.8746356E-02
   1        0.127921
   2        5.214917
   3        5.613519
   4        8.835822
   5        8.989098
   6       10.058518
 
 -0.1785714E+00  0.2500000E+00  0.3571429E-01  0.1749271E-01
   1       -0.126780
   2        5.526145
   3        5.671792
   4        8.328939
   5        8.543305
   6       10.257012
 
  0.3214286E+00  0.3214286E+00  0.3571429E-01  0.2915452E-02
   1        3.258004
   2        4.751783
   3        4.751783
   4       10.311349
   5       10.311349
   6       14.099184
 
 -0.3214286E+00  0.3214286E+00  0.3571429E-01  0.8746356E-02
   1        0.954299
   2        4.766003
   3        5.581442
   4        9.179112
   5       10.240490
   6       10.485815
 
 -0.2500000E+00  0.3214286E+00  0.3571429E-01  0.1749271E-01
   1        0.825035
   2        5.040741
   3        5.371851
   4        8.586176
   5        9.916199
   6       10.424840
 
 -0.1785714E+00  0.3214286E+00  0.3571429E-01  0.8746356E-02
   1        0.797966
   2        5.070733
   3        5.385813
   4        8.278563
   5        9.759737
   6       10.517717
 
 -0.3928571E+00  0.3928571E+00  0.3571429E-01  0.8746356E-02
   1        1.338136
   2        4.435690
   3        6.183210
   4        9.467487
   5       10.455663
   6       12.056848
 
 -0.3214286E+00  0.3928571E+00  0.3571429E-01  0.1749271E-01
   1        1.462375
   2        4.678529
   3        5.534256
   4        9.011769
   5       10.526974
   6       11.512520
 
 -0.2500000E+00  0.3928571E+00  0.3571429E-01  0.1749271E-01
   1        1.664149
   2        4.652519
   3        5.268761
   4        8.570789
   5       10.503712
   6       11.397005
 
 -0.4642857E+00  0.4642857E+00  0.3571429E-01  0.8746356E-02
   1        1.410618
   2        4.262133
   3        6.949978
   4        9.445476
   5       10.695178
   6       13.230411
 
 -0.3928571E+00  0.4642857E+00  0.3571429E-01  0.1749271E-01
   1        1.657013
   2        4.450976
   3        6.169460
   4        9.193581
   5       10.802776
   6       12.968066
 
 -0.3214286E+00  0.4642857E+00  0.3571429E-01  0.1749271E-01
   1        2.117764
   2        4.509618
   3        5.436549
   4        8.954624
   5       10.595892
   6       13.011115
 
 -0.2500000E+00  0.4642857E+00  0.3571429E-01  0.8746356E-02
   1        2.425756
   2        4.304235
   3        5.283142
   4        8.851768
   5       10.443481
   6       13.082875
 
 -0.4642857E+00 -0.4642857E+00  0.3571429E-01  0.8746356E-02
   1        1.673661
   2        4.372200
   3        6.565135
   4        9.118532
   5       11.052963
   6       13.640293
 
 -0.3928571E+00 -0.4642857E+00  0.3571429E-01  0.1749271E-01
   1        2.200522
   2        4.471803
   3        5.799113
   4        9.021000
   5       10.963511
   6       14.261917
 
 -0.3214286E+00 -0.4642857E+00  0.3571429E-01  0.1749271E-01
   1        2.810710
   2        4.304140
   3        5.256155
   4        9.224579
   5       10.505918
   6       14.768845
 
 -0.3928571E+00 -0.3928571E+00  0.3571429E-01  0.8746356E-02
   1        2.871426
   2        4.430251
   3        5.205907
   4        9.316863
   5       10.751066
   6       15.304889
 
 -0.3214286E+00 -0.3928571E+00  0.3571429E-01  0.8746356E-02
   1        3.305694
   2        4.340238
   3        4.841836
   4        9.789172
   5       10.354598
   6       14.843779
 
  0.1071429E+00  0.1071429E+00  0.1071429E+00  0.2915452E-02
   1        0.389598
   2        5.025398
   3        5.025398
   4        9.585672
   5        9.585672
   6        9.874366
 
  0.1785714E+00  0.1071429E+00  0.1071429E+00  0.8746356E-02
   1        1.393043
   2        4.610129
   3        4.713446
   4        9.636713
   5       10.010158
   6       11.423349
 
  0.2500000E+00  0.1071429E+00  0.1071429E+00  0.8746356E-02
   1        2.134240
   2        4.312004
   3        4.925168
   4        9.818770
   5       10.332986
   6       13.020982
 
  0.3214286E+00  0.1071429E+00  0.1071429E+00  0.8746356E-02
   1        2.339802
   2        4.134504
   3        5.735517
   4        9.949711
   5       10.553215
   6       14.353371
 
  0.3928571E+00  0.1071429E+00  0.1071429E+00  0.4373178E-02
   1        2.346959
   2        4.075689
   3        6.233858
   4        9.958624
   5       10.635041
   6       14.921365
 
 -0.1071429E+00  0.1071429E+00  0.1071429E+00  0.2186589E-02
   1       -1.214652
   2        6.344975
   3        6.344976
   4        6.915906
   5        8.206199
   6       10.208939
 
  0.1785714E+00  0.1785714E+00  0.1071429E+00  0.8746356E-02
   1        2.381080
   2        4.353261
   3        4.451219
   4        9.876946
   5       10.295487
   6       13.093618
 
  0.2500000E+00  0.1785714E+00  0.1071429E+00  0.1749271E-01
   1        2.946055
   2        4.196295
   3        4.815650
   4       10.069326
   5       10.524580
   6       14.646332
 
  0.3214286E+00  0.1785714E+00  0.1071429E+00  0.1749271E-01
   1        3.005580
   2        4.121804
   3        5.527999
   4       10.171681
   5       10.645400
   6       14.764703
 
 -0.1785714E+00  0.1785714E+00  0.1071429E+00  0.8746356E-02
   1       -0.442932
   2        6.062307
   3        6.141990
   4        7.632500
   5        7.648258
   6       10.461256
 
  0.2500000E+00  0.2500000E+00  0.1071429E+00  0.8746356E-02
   1        3.378277
   2        4.348955
   3        4.909639
   4       10.291990
   5       10.599151
   6       14.492231
 
  0.3214286E+00  0.2500000E+00  0.1071429E+00  0.8746356E-02
   1        3.437437
   2        4.439545
   3        5.085706
   4       10.404973
   5       10.616940
   6       13.748967
 
 -0.2500000E+00  0.2500000E+00  0.1071429E+00  0.8746356E-02
   1        0.512611
   2        5.578357
   3        5.609830
   4        7.810966
   5        8.838720
   6       10.610193
 
 -0.1785714E+00  0.2500000E+00  0.1071429E+00  0.8746356E-02
   1        0.413211
   2        5.679161
   3        5.994754
   4        7.339970
   5        8.434181
   6       10.694043
 
 -0.3214286E+00  0.3214286E+00  0.1071429E+00  0.8746356E-02
   1        1.344004
   2        5.187741
   3        5.256344
   4        8.326029
   5       10.339481
   6       10.684493
 
 -0.2500000E+00  0.3214286E+00  0.1071429E+00  0.1749271E-01
   1        1.337390
   2        5.031819
   3        5.730868
   4        7.690685
   5        9.716731
   6       10.783237
 
 -0.3928571E+00  0.3928571E+00  0.1071429E+00  0.8746356E-02
   1        1.735920
   2        4.873480
   3        5.519233
   4        8.682887
   5       10.958797
   6       11.927425
 
 -0.3214286E+00  0.3928571E+00  0.1071429E+00  0.1749271E-01
   1        1.994420
   2        4.754257
   3        5.469984
   4        8.217285
   5       10.610367
   6       11.549820
 
 -0.2500000E+00  0.3928571E+00  0.1071429E+00  0.8746356E-02
   1        2.162965
   2        4.441090
   3        5.743629
   4        7.982183
   5       10.307808
   6       11.561797
 
 -0.4642857E+00  0.4642857E+00  0.1071429E+00  0.8746356E-02
   1        1.798819
   2        4.707144
   3        6.011678
   4        8.575235
   5       11.564081
   6       13.125901
 
 -0.3928571E+00  0.4642857E+00  0.1071429E+00  0.1749271E-01
   1        2.191274
   2        4.884072
   3        5.386779
   4        8.326788
   5       11.258692
   6       13.037010
 
 -0.3214286E+00  0.4642857E+00  0.1071429E+00  0.1749271E-01
   1        2.701341
   2        4.237056
   3        5.518774
   4        8.461831
   5       10.470715
   6       13.226246
 
 -0.4642857E+00 -0.4642857E+00  0.1071429E+00  0.8746356E-02
   1        2.197170
   2        4.940674
   3        5.473273
   4        8.215425
   5       11.801971
   6       13.790265
 
 -0.3928571E+00 -0.4642857E+00  0.1071429E+00  0.1749271E-01
   1        2.804317
   2        4.586885
   3        5.101599
   4        8.587294
   5       11.119006
   6       14.729757
 
 -0.3214286E+00 -0.4642857E+00  0.1071429E+00  0.8746356E-02
   1        3.362431
   2        3.957261
   3        5.073567
   4        9.159315
   5       10.433924
   6       15.057137
 
 -0.3928571E+00 -0.3928571E+00  0.1071429E+00  0.8746356E-02
   1        3.545367
   2        4.368704
   3        4.404514
   4        9.506473
   5       10.586705
   6       15.211125
 
  0.1785714E+00  0.1785714E+00  0.1785714E+00  0.2915452E-02
   1        3.424600
   2        4.198698
   3        4.198698
   4       10.363206
   5       10.363206
   6       14.774182
 
  0.2500000E+00  0.1785714E+00  0.1785714E+00  0.8746356E-02
   1        3.740855
   2        4.129829
   3        4.747688
   4       10.455626
   5       10.626206
   6       14.424107
 
  0.3214286E+00  0.1785714E+00  0.1785714E+00  0.4373178E-02
   1        3.697086
   2        4.111499
   3        5.217278
   4       10.485494
   5       10.706820
   6       13.653159
 
 -0.1785714E+00  0.1785714E+00  0.1785714E+00  0.2186589E-02
   1        0.288142
   2        6.440265
   3        6.440265
   4        6.457381
   5        7.734257
   6       10.772473
 
  0.2500000E+00  0.2500000E+00  0.1785714E+00  0.8746356E-02
   1        3.978398
   2        4.433624
   3        4.761407
   4       10.636624
   5       10.696862
   6       13.227586
 
 -0.2500000E+00  0.2500000E+00  0.1785714E+00  0.8746356E-02
   1        1.189808
   2        5.404706
   3        6.309608
   4        6.965666
   5        8.668543
   6       10.821753
 
 -0.3214286E+00  0.3214286E+00  0.1785714E+00  0.8746356E-02
   1        1.997600
   2        4.713344
   3        5.991731
   4        7.601833
   5       10.114276
   6       10.806021
 
 -0.2500000E+00  0.3214286E+00  0.1785714E+00  0.8746356E-02
   1        2.017360
   2        4.658244
   3        6.437964
   4        7.259730
   5        9.586151
   6       10.780650
 
 -0.3928571E+00  0.3928571E+00  0.1785714E+00  0.8746356E-02
   1        2.386030
   2        4.602386
   3        5.723930
   4        7.849926
   5       11.370324
   6       11.708534
 
 -0.3214286E+00  0.3928571E+00  0.1785714E+00  0.1749271E-01
   1        2.647266
   2        4.127889
   3        6.215230
   4        7.811677
   5       10.397204
   6       11.600773
 
 -0.4642857E+00  0.4642857E+00  0.1785714E+00  0.8746356E-02
   1        2.410697
   2        4.856253
   3        5.577615
   4        7.643993
   5       12.505966
   6       12.942909
 
 -0.3928571E+00  0.4642857E+00  0.1785714E+00  0.1749271E-01
   1        2.808337
   2        4.164949
   3        5.885154
   4        7.929921
   5       11.376735
   6       13.204155
 
 -0.3214286E+00  0.4642857E+00  0.1785714E+00  0.8746356E-02
   1        3.199926
   2        3.664112
   3        5.874108
   4        8.574406
   5       10.452187
   6       13.342933
 
 -0.4642857E+00 -0.4642857E+00  0.1785714E+00  0.8746356E-02
   1        2.770595
   2        4.347640
   3        5.693080
   4        7.867982
   5       12.126978
   6       14.223117
 
 -0.3928571E+00 -0.4642857E+00  0.1785714E+00  0.1749271E-01
   1        3.257535
   2        3.810303
   3        5.377457
   4        9.033779
   5       11.046684
   6       15.105244
 
 -0.3928571E+00 -0.3928571E+00  0.1785714E+00  0.2915452E-02
   1        3.599466
   2        3.599466
   3        5.030966
   4       10.284495
   5       10.284495
   6       15.350277
 
  0.2500000E+00  0.2500000E+00  0.2500000E+00  0.7288630E-03
   1        4.471625
   2        4.471626
   3        4.471626
   4       10.739132
   5       10.739132
   6       12.744800
 
 -0.2500000E+00  0.2500000E+00  0.2500000E+00  0.2186589E-02
   1        1.970468
   2        4.785434
   3        6.953395
   4        6.953395
   5        8.881184
   6       10.684211
 
 -0.3214286E+00  0.3214286E+00  0.2500000E+00  0.8746356E-02
   1        2.620661
   2        4.063401
   3        7.059198
   4        7.463991
   5        9.956109
   6       10.629184
 
 -0.3928571E+00  0.3928571E+00  0.2500000E+00  0.8746356E-02
   1        2.899144
   2        3.713012
   3        6.930102
   4        7.630853
   5       11.469141
   6       11.504931
 
 -0.3214286E+00  0.3928571E+00  0.2500000E+00  0.8746356E-02
   1        2.995985
   2        3.486144
   3        7.106215
   4        8.166180
   5       10.419792
   6       11.516534
 
 -0.4642857E+00  0.4642857E+00  0.2500000E+00  0.8746356E-02
   1        2.807597
   2        3.790381
   3        6.830933
   4        7.456726
   5       12.723586
   6       13.142213
 
 -0.3928571E+00  0.4642857E+00  0.2500000E+00  0.1749271E-01
   1        2.983071
   2        3.314923
   3        6.823685
   4        8.632573
   5       11.312786
   6       13.278956
 
 -0.4642857E+00 -0.4642857E+00  0.2500000E+00  0.8746356E-02
   1        2.863392
   2        3.370740
   3        6.688082
   4        8.694739
   5       12.084430
   6       14.694984
 
 -0.3928571E+00 -0.4642857E+00  0.2500000E+00  0.8746356E-02
   1        2.996242
   2        3.102495
   3        6.524061
   4        9.972800
   5       11.098401
   6       15.214469
 
 -0.3214286E+00  0.3214286E+00  0.3214286E+00  0.2186589E-02
   1        2.913529
   2        3.426825
   3        8.020140
   4        8.020140
   5       10.223904
   6       10.572887
 
 -0.3928571E+00  0.3928571E+00  0.3214286E+00  0.8746356E-02
   1        2.879747
   2        2.994049
   3        8.368311
   4        8.441711
   5       11.314057
   6       11.518220
 
 -0.4642857E+00  0.4642857E+00  0.3214286E+00  0.8746356E-02
   1        2.642128
   2        2.931941
   3        8.399663
   4        8.441457
   5       12.514361
   6       13.425782
 
 -0.3928571E+00  0.4642857E+00  0.3214286E+00  0.8746356E-02
   1        2.614720
   2        2.722867
   3        8.321437
   4        9.749028
   5       11.545443
   6       13.244617
 
 -0.4642857E+00 -0.4642857E+00  0.3214286E+00  0.8746356E-02
   1        2.509388
   2        2.625860
   3        8.262369
   4       10.222704
   5       11.939227
   6       14.967700
 
 -0.3928571E+00  0.3928571E+00  0.3928571E+00  0.2186589E-02
   1        2.484037
   2        2.586772
   3        9.668507
   4        9.668507
   5       11.515363
   6       11.946559
 
 -0.4642857E+00  0.4642857E+00  0.3928571E+00  0.8746356E-02
   1        2.252590
   2        2.339753
   3       10.163638
   4       10.169740
   5       12.359206
   6       13.538010
 
 -0.4642857E+00 -0.4642857E+00  0.3928571E+00  0.2915452E-02
   1        2.161383
   2        2.161383
   3       10.203776
   4       11.817400
   5       11.817402
   6       15.068599
 
 -0.4642857E+00  0.4642857E+00  0.4642857E+00  0.2186589E-02
   1        2.003276
   2        2.028985
   3       11.771702
   4       11.771703
   5       12.357868
   6       13.876490
