       N       E                     dE             d eps       ncg     rms          rms(c)
DAV:   1     0.109936609596E+02    0.10994E+02   -0.20145E+03  2490   0.553E+02
DAV:   2    -0.121067422166E+01   -0.12204E+02   -0.10747E+02  4284   0.766E+01
DAV:   3    -0.129438036240E+01   -0.83706E-01   -0.83533E-01  2484   0.870E+00
DAV:   4    -0.129485685800E+01   -0.47650E-03   -0.47652E-03  3204   0.367E-01
DAV:   5    -0.129486442901E+01   -0.75710E-05   -0.75716E-05  2226   0.253E-02    0.761E+00
DAV:   6    -0.116913000390E+02   -0.10396E+02   -0.34288E+00  2526   0.904E+00    0.392E+00
DAV:   7    -0.117655824782E+02   -0.74282E-01   -0.23195E-02  2724   0.136E+00    0.347E+00
DAV:   8    -0.116262765476E+02    0.13931E+00   -0.28438E-01  2604   0.440E+00    0.322E+00
DAV:   9    -0.118273423884E+02   -0.20107E+00   -0.17853E-01  2688   0.362E+00    0.768E-01
DAV:  10    -0.118524176224E+02   -0.25075E-01   -0.51314E-03  2760   0.585E-01    0.317E-01
DAV:  11    -0.118557871321E+02   -0.33695E-02   -0.46624E-03  2604   0.486E-01    0.113E-01
DAV:  12    -0.118561858561E+02   -0.39872E-03   -0.11622E-03  2460   0.292E-01    0.487E-02
DAV:  13    -0.118562277274E+02   -0.41871E-04   -0.51408E-05  1236   0.691E-02
   1 F= -.11856228E+02 E0= -.11856172E+02  d E =-.165879E-03  mag=    -0.0236
