       N       E                     dE             d eps       ncg     rms          rms(c)
DAV:   1    -0.288131297306E+01   -0.28813E+01   -0.15394E+03  1218   0.433E+02
DAV:   2    -0.123133098193E+02   -0.94320E+01   -0.89254E+01  2154   0.703E+01
DAV:   3    -0.123531228897E+02   -0.39813E-01   -0.39791E-01  1230   0.654E+00
DAV:   4    -0.123531932357E+02   -0.70346E-04   -0.70347E-04  1650   0.212E-01
DAV:   5    -0.123531933531E+02   -0.11737E-06   -0.11697E-06  1068   0.713E-03    0.327E+00
DAV:   6    -0.120115109708E+02    0.34168E+00   -0.21119E-01  1356   0.343E+00    0.178E+00
DAV:   7    -0.118568928178E+02    0.15462E+00   -0.33928E-01  1416   0.421E+00    0.200E-01
DAV:   8    -0.118577897641E+02   -0.89695E-03   -0.11216E-02  1320   0.831E-01    0.182E-01
DAV:   9    -0.118563376580E+02    0.14521E-02   -0.35903E-03  1344   0.441E-01    0.554E-03
DAV:  10    -0.118563348529E+02    0.28050E-05   -0.90656E-06   684   0.334E-02
   1 F= -.11856335E+02 E0= -.11856280E+02  d E =-.165434E-03
