 vasp.5.2.12 11Nov11 complex                                                    
  
 executed on             LinuxIFC date 2012.10.14  15:40:41
 running on    1 nodes
 distr:  one band on    1 nodes,    1 groups


--------------------------------------------------------------------------------------------------------


 INCAR:
 POTCAR:    PAW_PBE Ta 17Jan2003                  
 POTCAR:    PAW_PBE Ta 17Jan2003                  
   VRHFIN =Ta:  6s5d                                                            
   LEXCH  = PE                                                                  
   EATOM  =   130.6506 eV,    9.6025 Ry                                         
                                                                                
   TITEL  = PAW_PBE Ta 17Jan2003                                                
   LULTRA =        F    use ultrasoft PP ?                                      
   IUNSCR =        1    unscreen: 0-lin 1-nonlin 2-no                           
   RPACOR =    2.330    partial core radius                                     
   POMASS =  180.948; ZVAL   =    5.000    mass and valenz                      
   RCORE  =    2.900    outmost cutoff radius                                   
   RWIGS  =    2.840; RWIGS  =    1.503    wigner-seitz radius (au A)           
   ENMAX  =  223.667; ENMIN  =  167.750 eV                                      
   RCLOC  =    2.205    cutoff for local pot                                    
   LCOR   =        T    correct aug charges                                     
   LPAW   =        T    paw PP                                                  
   EAUG   =  332.075                                                            
   DEXC   =    -.049                                                            
   RMAX   =    3.083    core radius for proj-oper                               
   RAUG   =    1.300    factor for augmentation sphere                          
   RDEP   =    3.060    radius for radial grids                                 
   QCUT   =   -4.055; QGAM   =    8.109    optimization parameters              
                                                                                
   Description                                                                  
     l     E      TYP  RCUT    TYP  RCUT                                        
     2   .000     23  2.500                                                     
     2   .000     23  2.500                                                     
     0   .000     23  2.500                                                     
     0   .000     23  2.500                                                     
     1   .000     23  2.900                                                     
     1  2.000     23  2.900                                                     
     3   .000      7   .000                                                     
  local pseudopotential read in
  partial core-charges read in
  atomic valenz-charges read in
  non local Contribution for L=           2  read in
    real space projection operators read in
  non local Contribution for L=           2  read in
    real space projection operators read in
  non local Contribution for L=           0  read in
    real space projection operators read in
  non local Contribution for L=           0  read in
    real space projection operators read in
  non local Contribution for L=           1  read in
    real space projection operators read in
  non local Contribution for L=           1  read in
    real space projection operators read in
    PAW grid and wavefunctions read in
 
   number of l-projection  operators is LMAX  =           6
   number of lm-projection operators is LMMAX =          18
 
  PAW_PBE Ta 17Jan2003                  :
 energy of atom  1       EATOM= -130.6506
 kinetic energy error for atom=    0.0044 (will be added to EATOM!!)
 
 
 POSCAR: Ta                                      
  positions in cartesian coordinates
  No initial velocities read in
 exchange correlation table for  LEXCH =        8
   RHO(1)=    0.500       N(1)  =     2000
   RHO(2)=  100.500       N(2)  =     4000
 


--------------------------------------------------------------------------------------------------------


 ion  position               nearest neighbor table
   1  0.000  0.000  0.000-
 
  LATTYP: Found a body centered cubic cell.
 ALAT       =     3.3100000000
  
  Lattice vectors:
  
 A1 = (   2.8665440865,   0.0000000000,   0.0000000000)
 A2 = (  -0.9555146955,   2.7026036829,   0.0000000000)
 A3 = (  -0.9555146955,  -1.3513018414,   2.3405234457)
 Subroutine PRICEL returns:
 Original cell was already a primitive cell.
 

Analysis of symmetry for initial positions (statically):

 Routine SETGRP: Setting up the symmetry group for a 
 body centered cubic supercell.


 Subroutine GETGRP returns: Found 48 space group operations
 (whereof 48 operations were pure point group operations)
 out of a pool of 48 trial point group operations.


The static configuration has the point symmetry O_h .

Analysis of symmetry for dynamics (positions and initial velocities):

 Subroutine DYNSYM returns: Found 48 space group operations
 (whereof 48 operations were pure point group operations)
 out of a pool of 48 trial space group operations
 (whereof 48 operations were pure point group operations)
 and found also     1 'primitive' translations


The dynamic configuration has the point symmetry O_h .
 
 
 KPOINTS: KPOINTS created by Atomic Simulation Env

Automatic generation of k-mesh.
 
 Subroutine IBZKPT returns following result:
 ===========================================
 
 Found    100 irreducible k-points:
 
 Following reciprocal coordinates:
            Coordinates               Weight
  0.035714  0.035714  0.035714      8.000000
  0.107143  0.035714  0.035714     24.000000
  0.178571  0.035714  0.035714     24.000000
  0.250000  0.035714  0.035714     24.000000
  0.321429  0.035714  0.035714     24.000000
  0.392857  0.035714  0.035714     24.000000
  0.464286  0.035714  0.035714     12.000000
 -0.035714  0.035714  0.035714      6.000000
  0.107143  0.107143  0.035714     24.000000
  0.178571  0.107143  0.035714     48.000000
  0.250000  0.107143  0.035714     48.000000
  0.321429  0.107143  0.035714     48.000000
  0.392857  0.107143  0.035714     48.000000
 -0.107143  0.107143  0.035714     24.000000
  0.178571  0.178571  0.035714     24.000000
  0.250000  0.178571  0.035714     48.000000
  0.321429  0.178571  0.035714     48.000000
  0.392857  0.178571  0.035714     24.000000
 -0.178571  0.178571  0.035714     24.000000
 -0.107143  0.178571  0.035714     24.000000
  0.250000  0.250000  0.035714     24.000000
  0.321429  0.250000  0.035714     48.000000
 -0.250000  0.250000  0.035714     24.000000
 -0.178571  0.250000  0.035714     48.000000
  0.321429  0.321429  0.035714      8.000000
 -0.321429  0.321429  0.035714     24.000000
 -0.250000  0.321429  0.035714     48.000000
 -0.178571  0.321429  0.035714     24.000000
 -0.392857  0.392857  0.035714     24.000000
 -0.321429  0.392857  0.035714     48.000000
 -0.250000  0.392857  0.035714     48.000000
 -0.464286  0.464286  0.035714     24.000000
 -0.392857  0.464286  0.035714     48.000000
 -0.321429  0.464286  0.035714     48.000000
 -0.250000  0.464286  0.035714     24.000000
 -0.464286 -0.464286  0.035714     24.000000
 -0.392857 -0.464286  0.035714     48.000000
 -0.321429 -0.464286  0.035714     48.000000
 -0.392857 -0.392857  0.035714     24.000000
 -0.321429 -0.392857  0.035714     24.000000
  0.107143  0.107143  0.107143      8.000000
  0.178571  0.107143  0.107143     24.000000
  0.250000  0.107143  0.107143     24.000000
  0.321429  0.107143  0.107143     24.000000
  0.392857  0.107143  0.107143     12.000000
 -0.107143  0.107143  0.107143      6.000000
  0.178571  0.178571  0.107143     24.000000
  0.250000  0.178571  0.107143     48.000000
  0.321429  0.178571  0.107143     48.000000
 -0.178571  0.178571  0.107143     24.000000
  0.250000  0.250000  0.107143     24.000000
  0.321429  0.250000  0.107143     24.000000
 -0.250000  0.250000  0.107143     24.000000
 -0.178571  0.250000  0.107143     24.000000
 -0.321429  0.321429  0.107143     24.000000
 -0.250000  0.321429  0.107143     48.000000
 -0.392857  0.392857  0.107143     24.000000
 -0.321429  0.392857  0.107143     48.000000
 -0.250000  0.392857  0.107143     24.000000
 -0.464286  0.464286  0.107143     24.000000
 -0.392857  0.464286  0.107143     48.000000
 -0.321429  0.464286  0.107143     48.000000
 -0.464286 -0.464286  0.107143     24.000000
 -0.392857 -0.464286  0.107143     48.000000
 -0.321429 -0.464286  0.107143     24.000000
 -0.392857 -0.392857  0.107143     24.000000
  0.178571  0.178571  0.178571      8.000000
  0.250000  0.178571  0.178571     24.000000
  0.321429  0.178571  0.178571     12.000000
 -0.178571  0.178571  0.178571      6.000000
  0.250000  0.250000  0.178571     24.000000
 -0.250000  0.250000  0.178571     24.000000
 -0.321429  0.321429  0.178571     24.000000
 -0.250000  0.321429  0.178571     24.000000
 -0.392857  0.392857  0.178571     24.000000
 -0.321429  0.392857  0.178571     48.000000
 -0.464286  0.464286  0.178571     24.000000
 -0.392857  0.464286  0.178571     48.000000
 -0.321429  0.464286  0.178571     24.000000
 -0.464286 -0.464286  0.178571     24.000000
 -0.392857 -0.464286  0.178571     48.000000
 -0.392857 -0.392857  0.178571      8.000000
  0.250000  0.250000  0.250000      2.000000
 -0.250000  0.250000  0.250000      6.000000
 -0.321429  0.321429  0.250000     24.000000
 -0.392857  0.392857  0.250000     24.000000
 -0.321429  0.392857  0.250000     24.000000
 -0.464286  0.464286  0.250000     24.000000
 -0.392857  0.464286  0.250000     48.000000
 -0.464286 -0.464286  0.250000     24.000000
 -0.392857 -0.464286  0.250000     24.000000
 -0.321429  0.321429  0.321429      6.000000
 -0.392857  0.392857  0.321429     24.000000
 -0.464286  0.464286  0.321429     24.000000
 -0.392857  0.464286  0.321429     24.000000
 -0.464286 -0.464286  0.321429     24.000000
 -0.392857  0.392857  0.392857      6.000000
 -0.464286  0.464286  0.392857     24.000000
 -0.464286 -0.464286  0.392857      8.000000
 -0.464286  0.464286  0.464286      6.000000
 
 Following cartesian coordinates:
            Coordinates               Weight
  0.012459  0.017620  0.030518      8.000000
  0.037377  0.026430  0.045777     24.000000
  0.062295  0.035239  0.061036     24.000000
  0.087213  0.044049  0.076296     24.000000
  0.112131  0.052859  0.091555     24.000000
  0.137049  0.061669  0.106814     24.000000
  0.161967  0.070479  0.122073     12.000000
 -0.012459  0.008810  0.015259      6.000000
  0.037377  0.052859  0.061036     24.000000
  0.062295  0.061669  0.076296     48.000000
  0.087213  0.070479  0.091555     48.000000
  0.112131  0.079289  0.106814     48.000000
  0.137049  0.088098  0.122073     48.000000
 -0.037377  0.026430  0.015259     24.000000
  0.062295  0.088098  0.091555     24.000000
  0.087213  0.096908  0.106814     48.000000
  0.112131  0.105718  0.122073     48.000000
  0.137049  0.114528  0.137332     24.000000
 -0.062295  0.044049  0.015259     24.000000
 -0.037377  0.052859  0.030518     24.000000
  0.087213  0.123338  0.122073     24.000000
  0.112131  0.132148  0.137332     48.000000
 -0.087213  0.061669  0.015259     24.000000
 -0.062295  0.070479  0.030518     48.000000
  0.112131  0.158577  0.152591      8.000000
 -0.112131  0.079289  0.015259     24.000000
 -0.087213  0.088098  0.030518     48.000000
 -0.062295  0.096908  0.045777     24.000000
 -0.137049  0.096908  0.015259     24.000000
 -0.112131  0.105718  0.030518     48.000000
 -0.087213  0.114528  0.045777     48.000000
 -0.161967  0.114528  0.015259     24.000000
 -0.137049  0.123338  0.030518     48.000000
 -0.112131  0.132148  0.045777     48.000000
 -0.087213  0.140958  0.061036     24.000000
 -0.161967 -0.229056 -0.183109     24.000000
 -0.137049 -0.220246 -0.167850     48.000000
 -0.112131 -0.211436 -0.152591     48.000000
 -0.137049 -0.193817 -0.152591     24.000000
 -0.112131 -0.185007 -0.137332     24.000000
  0.037377  0.052859  0.091555      8.000000
  0.062295  0.061669  0.106814     24.000000
  0.087213  0.070479  0.122073     24.000000
  0.112131  0.079289  0.137332     24.000000
  0.137049  0.088098  0.152591     12.000000
 -0.037377  0.026430  0.045777      6.000000
  0.062295  0.088098  0.122073     24.000000
  0.087213  0.096908  0.137332     48.000000
  0.112131  0.105718  0.152591     48.000000
 -0.062295  0.044049  0.045777     24.000000
  0.087213  0.123338  0.152591     24.000000
  0.112131  0.132148  0.167850     24.000000
 -0.087213  0.061669  0.045777     24.000000
 -0.062295  0.070479  0.061036     24.000000
 -0.112131  0.079289  0.045777     24.000000
 -0.087213  0.088098  0.061036     48.000000
 -0.137049  0.096908  0.045777     24.000000
 -0.112131  0.105718  0.061036     48.000000
 -0.087213  0.114528  0.076296     24.000000
 -0.161967  0.114528  0.045777     24.000000
 -0.137049  0.123338  0.061036     48.000000
 -0.112131  0.132148  0.076296     48.000000
 -0.161967 -0.229056 -0.152591     24.000000
 -0.137049 -0.220246 -0.137332     48.000000
 -0.112131 -0.211436 -0.122073     24.000000
 -0.137049 -0.193817 -0.122073     24.000000
  0.062295  0.088098  0.152591      8.000000
  0.087213  0.096908  0.167850     24.000000
  0.112131  0.105718  0.183109     12.000000
 -0.062295  0.044049  0.076296      6.000000
  0.087213  0.123338  0.183109     24.000000
 -0.087213  0.061669  0.076296     24.000000
 -0.112131  0.079289  0.076296     24.000000
 -0.087213  0.088098  0.091555     24.000000
 -0.137049  0.096908  0.076296     24.000000
 -0.112131  0.105718  0.091555     48.000000
 -0.161967  0.114528  0.076296     24.000000
 -0.137049  0.123338  0.091555     48.000000
 -0.112131  0.132148  0.106814     24.000000
 -0.161967 -0.229056 -0.122073     24.000000
 -0.137049 -0.220246 -0.106814     48.000000
 -0.137049 -0.193817 -0.091555      8.000000
  0.087213  0.123338  0.213627      2.000000
 -0.087213  0.061669  0.106814      6.000000
 -0.112131  0.079289  0.106814     24.000000
 -0.137049  0.096908  0.106814     24.000000
 -0.112131  0.105718  0.122073     24.000000
 -0.161967  0.114528  0.106814     24.000000
 -0.137049  0.123338  0.122073     48.000000
 -0.161967 -0.229056 -0.091555     24.000000
 -0.137049 -0.220246 -0.076296     24.000000
 -0.112131  0.079289  0.137332      6.000000
 -0.137049  0.096908  0.137332     24.000000
 -0.161967  0.114528  0.137332     24.000000
 -0.137049  0.123338  0.152591     24.000000
 -0.161967 -0.229056 -0.061036     24.000000
 -0.137049  0.096908  0.167850      6.000000
 -0.161967  0.114528  0.167850     24.000000
 -0.161967 -0.229056 -0.030518      8.000000
 -0.161967  0.114528  0.198368      6.000000
 


--------------------------------------------------------------------------------------------------------




 Dimension of arrays:
   k-points           NKPTS =    100   k-points in BZ     NKDIM =    100   number of bands    NBANDS=      6
   number of dos      NEDOS =    301   number of ions     NIONS =      1
   non local maximal  LDIM  =      6   non local SUM 2l+1 LMDIM =     18
   total plane-waves  NPLWV =   5832
   max r-space proj   IRMAX =      1   max aug-charges    IRDMAX=  22091
   dimension x,y,z NGX =    18 NGY =   18 NGZ =   18
   dimension x,y,z NGXF=    36 NGYF=   36 NGZF=   36
   support grid    NGXF=    36 NGYF=   36 NGZF=   36
   ions per type =               1
 NGX,Y,Z   is equivalent  to a cutoff of  10.44, 10.44, 10.44 a.u.
 NGXF,Y,Z  is equivalent  to a cutoff of  20.88, 20.88, 20.88 a.u.


 I would recommend the setting:
   dimension x,y,z NGX =    17 NGY =   17 NGZ =   17
 SYSTEM =  unknown system                          
 POSCAR =  Ta                                      

 Startparameter for this run:
   NWRITE =      2    write-flag & timer
   PREC   = accura    normal or accurate (medium, high low for compatibility)
   ISTART =      0    job   : 0-new  1-cont  2-samecut
   ICHARG =      2    charge: 1-file 2-atom 10-const
   ISPIN  =      1    spin polarized calculation?
   LNONCOLLINEAR =      F non collinear calculations
   LSORBIT =      F    spin-orbit coupling
   INIWAV =      1    electr: 0-lowe 1-rand  2-diag
   LASPH  =      F    aspherical Exc in radial PAW
   METAGGA=      F    non-selfconsistent MetaGGA calc.

 Electronic Relaxation 1
   ENCUT  =  350.0 eV  25.72 Ry    5.07 a.u.   4.37  4.37  4.37*2*pi/ulx,y,z
   ENINI  =  350.0     initial cutoff
   ENAUG  =  332.1 eV  augmentation charge cutoff
   NELM   =     60;   NELMIN=  2; NELMDL= -5     # of ELM steps 
   EDIFF  = 0.1E-03   stopping-criterion for ELM
   LREAL  =      F    real-space projection
   NLSPLINE    = F    spline interpolate recip. space projectors
   LCOMPAT=      F    compatible to vasp.4.4
   GGA_COMPAT  = T    GGA compatible to vasp.4.4-vasp.4.6
   LMAXPAW     = -100 max onsite density
   LMAXMIX     =    2 max onsite mixed and CHGCAR
   VOSKOWN=      0    Vosko Wilk Nusair interpolation
   ROPT   =    0.00000
 Ionic relaxation
   EDIFFG = 0.1E-02   stopping-criterion for IOM
   NSW    =      0    number of steps for IOM
   NBLOCK =      1;   KBLOCK =      1    inner block; outer block 
   IBRION =     -1    ionic relax: 0-MD 1-quasi-New 2-CG
   NFREE  =      0    steps in history (QN), initial steepest desc. (CG)
   ISIF   =      2    stress and relaxation
   IWAVPR =     10    prediction:  0-non 1-charg 2-wave 3-comb
   ISYM   =      2    0-nonsym 1-usesym 2-fastsym
   LCORR  =      T    Harris-Foulkes like correction to forces

   POTIM  = 0.5000    time-step for ionic-motion
   TEIN   =    0.0    initial temperature
   TEBEG  =    0.0;   TEEND  =   0.0 temperature during run
   SMASS  =  -3.00    Nose mass-parameter (am)
   estimated Nose-frequenzy (Omega)   =  0.10E-29 period in steps =****** mass=  -0.188E-27a.u.
   SCALEE = 1.0000    scale energy and forces
   NPACO  =    256;   APACO  = 16.0  distance and # of slots for P.C.
   PSTRESS=    0.0 pullay stress

  Mass of Ions in am
   POMASS = 180.95
  Ionic Valenz
   ZVAL   =   5.00
  Atomic Wigner-Seitz radii
   RWIGS  =  -1.00
  virtual crystal weights 
   VCA    =   1.00
   NELECT =       5.0000    total number of electrons
   NUPDOWN=      -1.0000    fix difference up-down

 DOS related values:
   EMIN   =  10.00;   EMAX   =-10.00  energy-range for DOS
   EFERMI =   0.00
   ISMEAR =     1;   SIGMA  =   0.05  broadening in eV -4-tet -1-fermi 0-gaus

 Electronic relaxation 2 (details)
   IALGO  =     38    algorithm
   LDIAG  =      T    sub-space diagonalisation (order eigenvalues)
   LSUBROT=      T    optimize rotation matrix (better conditioning)
   TURBO    =      0    0=normal 1=particle mesh
   IRESTART =      0    0=no restart 2=restart with 2 vectors
   NREBOOT  =      0    no. of reboots
   NMIN     =      0    reboot dimension
   EREF     =   0.00    reference energy to select bands
   IMIX   =      4    mixing-type and parameters
     AMIX     =   0.40;   BMIX     =  1.00
     AMIX_MAG =   1.60;   BMIX_MAG =  1.00
     AMIN     =   0.10
     WC   =   100.;   INIMIX=   1;  MIXPRE=   1

 Intra band minimization:
   WEIMIN = 0.0000     energy-eigenvalue tresh-hold
   EBREAK =  0.42E-05  absolut break condition
   DEPER  =   0.30     relativ break condition  

   TIME   =   0.40     timestep for ELM

  volume/ion in A,a.u.               =      18.13       122.36
  Fermi-wavevector in a.u.,A,eV,Ry     =   1.065566  2.013627 15.448462  1.135430
  Thomas-Fermi vector in A             =   2.201121
 
 Write flags
   LWAVE  =      T    write WAVECAR
   LCHARG =      T    write CHGCAR
   LVTOT  =      F    write LOCPOT, total local potential
   LVHAR  =      F    write LOCPOT, Hartree potential only
   LELF   =      F    write electronic localiz. function (ELF)
   LORBIT =      0    0 simple, 1 ext, 2 COOP (PROOUT)


 Dipole corrections
   LMONO  =      F    monopole corrections only (constant potential shift)
   LDIPOL =      F    correct potential (dipole corrections)
   IDIPOL =      0    1-x, 2-y, 3-z, 4-all directions 
   EPSILON=  1.0000000 bulk dielectric constant

 Exchange correlation treatment:
   GGA     =    --    GGA type
   LEXCH   =     8    internal setting for exchange type
   VOSKOWN=      0    Vosko Wilk Nusair interpolation
   LHFCALC =     F    Hartree Fock is set to
   LHFONE  =     F    Hartree Fock one center treatment
   AEXX    =    0.0000 exact exchange contribution

 Linear response parameters
   LEPSILON=     F    determine dielectric tensor
   LRPA    =     F    only Hartree local field effects (RPA)
   LNABLA  =     F    use nabla operator in PAW spheres
   LVEL    =     F    velocity operator in full k-point grid
   LINTERFAST=   F  fast interpolation
   KINTER  =     0    interpolate to denser k-point grid
   CSHIFT  =0.1000    complex shift for real part using Kramers Kronig
   OMEGAMAX=  -1.0    maximum frequency
   RTIME   =    0.100 relaxation time in fs

 Orbital magnetization related:
   ORBITALMAG=     F  switch on orbital magnetization
   LCHIMAG   =     F  perturbation theory with respect to B field
   DQ        =  0.001000  dq finite difference perturbation B field



--------------------------------------------------------------------------------------------------------


 Static calculation
 charge density and potential will be updated during run
 non-spin polarized calculation
 Variant of blocked Davidson
 Davidson routine will perform the subspace rotation
 perform sub-space diagonalisation
    after iterative eigenvector-optimisation
 modified Broyden-mixing scheme, WC =      100.0
 initial mixing is a Kerker type mixing with AMIX =  0.4000 and BMIX =      1.0000
 Hartree-type preconditioning will be used
 using additional bands            3
 reciprocal scheme for non local part
 use partial core corrections
 calculate Harris-corrections to forces 
   (improved forces if not selfconsistent)
 use gradient corrections 
 use of overlap-Matrix (Vanderbilt PP)
 Methfessel and Paxton  Order N= 1 SIGMA  =   0.05


--------------------------------------------------------------------------------------------------------


  energy-cutoff  :      350.00
  volume of cell :       18.13
      direct lattice vectors                 reciprocal lattice vectors
     2.866544087  0.000000000  0.000000000     0.348852126  0.123337852  0.213627426
    -0.955514696  2.702603683  0.000000000     0.000000000  0.370013556  0.213627426
    -0.955514696 -1.351301841  2.340523446     0.000000000  0.000000000  0.427254853

  length of vectors
     2.866544087  2.866544087  2.866544087     0.427254853  0.427254853  0.427254853


 
 k-points in units of 2pi/SCALE and weight: KPOINTS created by Atomic Simulation Env
   0.01245900  0.01761969  0.03051820       0.003
   0.03737701  0.02642954  0.04577731       0.009
   0.06229502  0.03523939  0.06103641       0.009
   0.08721303  0.04404923  0.07629551       0.009
   0.11213104  0.05285908  0.09155461       0.009
   0.13704905  0.06166893  0.10681371       0.009
   0.16196706  0.07047877  0.12207282       0.004
  -0.01245900  0.00880985  0.01525910       0.002
   0.03737701  0.05285908  0.06103641       0.009
   0.06229502  0.06166893  0.07629551       0.017
   0.08721303  0.07047877  0.09155461       0.017
   0.11213104  0.07928862  0.10681371       0.017
   0.13704905  0.08809847  0.12207282       0.017
  -0.03737701  0.02642954  0.01525910       0.009
   0.06229502  0.08809847  0.09155461       0.009
   0.08721303  0.09690831  0.10681371       0.017
   0.11213104  0.10571816  0.12207282       0.017
   0.13704905  0.11452801  0.13733192       0.009
  -0.06229502  0.04404923  0.01525910       0.009
  -0.03737701  0.05285908  0.03051820       0.009
   0.08721303  0.12333785  0.12207282       0.009
   0.11213104  0.13214770  0.13733192       0.017
  -0.08721303  0.06166893  0.01525910       0.009
  -0.06229502  0.07047877  0.03051820       0.017
   0.11213104  0.15857724  0.15259102       0.003
  -0.11213104  0.07928862  0.01525910       0.009
  -0.08721303  0.08809847  0.03051820       0.017
  -0.06229502  0.09690831  0.04577731       0.009
  -0.13704905  0.09690831  0.01525910       0.009
  -0.11213104  0.10571816  0.03051820       0.017
  -0.08721303  0.11452801  0.04577731       0.017
  -0.16196706  0.11452801  0.01525910       0.009
  -0.13704905  0.12333785  0.03051820       0.017
  -0.11213104  0.13214770  0.04577731       0.017
  -0.08721303  0.14095755  0.06103641       0.009
  -0.16196706 -0.22905601 -0.18310922       0.009
  -0.13704905 -0.22024616 -0.16785012       0.017
  -0.11213104 -0.21143632 -0.15259102       0.017
  -0.13704905 -0.19381662 -0.15259102       0.009
  -0.11213104 -0.18500678 -0.13733192       0.009
   0.03737701  0.05285908  0.09155461       0.003
   0.06229502  0.06166893  0.10681371       0.009
   0.08721303  0.07047877  0.12207282       0.009
   0.11213104  0.07928862  0.13733192       0.009
   0.13704905  0.08809847  0.15259102       0.004
  -0.03737701  0.02642954  0.04577731       0.002
   0.06229502  0.08809847  0.12207282       0.009
   0.08721303  0.09690831  0.13733192       0.017
   0.11213104  0.10571816  0.15259102       0.017
  -0.06229502  0.04404923  0.04577731       0.009
   0.08721303  0.12333785  0.15259102       0.009
   0.11213104  0.13214770  0.16785012       0.009
  -0.08721303  0.06166893  0.04577731       0.009
  -0.06229502  0.07047877  0.06103641       0.009
  -0.11213104  0.07928862  0.04577731       0.009
  -0.08721303  0.08809847  0.06103641       0.017
  -0.13704905  0.09690831  0.04577731       0.009
  -0.11213104  0.10571816  0.06103641       0.017
  -0.08721303  0.11452801  0.07629551       0.009
  -0.16196706  0.11452801  0.04577731       0.009
  -0.13704905  0.12333785  0.06103641       0.017
  -0.11213104  0.13214770  0.07629551       0.017
  -0.16196706 -0.22905601 -0.15259102       0.009
  -0.13704905 -0.22024616 -0.13733192       0.017
  -0.11213104 -0.21143632 -0.12207282       0.009
  -0.13704905 -0.19381662 -0.12207282       0.009
   0.06229502  0.08809847  0.15259102       0.003
   0.08721303  0.09690831  0.16785012       0.009
   0.11213104  0.10571816  0.18310922       0.004
  -0.06229502  0.04404923  0.07629551       0.002
   0.08721303  0.12333785  0.18310922       0.009
  -0.08721303  0.06166893  0.07629551       0.009
  -0.11213104  0.07928862  0.07629551       0.009
  -0.08721303  0.08809847  0.09155461       0.009
  -0.13704905  0.09690831  0.07629551       0.009
  -0.11213104  0.10571816  0.09155461       0.017
  -0.16196706  0.11452801  0.07629551       0.009
  -0.13704905  0.12333785  0.09155461       0.017
  -0.11213104  0.13214770  0.10681371       0.009
  -0.16196706 -0.22905601 -0.12207282       0.009
  -0.13704905 -0.22024616 -0.10681371       0.017
  -0.13704905 -0.19381662 -0.09155461       0.003
   0.08721303  0.12333785  0.21362743       0.001
  -0.08721303  0.06166893  0.10681371       0.002
  -0.11213104  0.07928862  0.10681371       0.009
  -0.13704905  0.09690831  0.10681371       0.009
  -0.11213104  0.10571816  0.12207282       0.009
  -0.16196706  0.11452801  0.10681371       0.009
  -0.13704905  0.12333785  0.12207282       0.017
  -0.16196706 -0.22905601 -0.09155461       0.009
  -0.13704905 -0.22024616 -0.07629551       0.009
  -0.11213104  0.07928862  0.13733192       0.002
  -0.13704905  0.09690831  0.13733192       0.009
  -0.16196706  0.11452801  0.13733192       0.009
  -0.13704905  0.12333785  0.15259102       0.009
  -0.16196706 -0.22905601 -0.06103641       0.009
  -0.13704905  0.09690831  0.16785012       0.002
  -0.16196706  0.11452801  0.16785012       0.009
  -0.16196706 -0.22905601 -0.03051820       0.003
  -0.16196706  0.11452801  0.19836832       0.002
 
 k-points in reciprocal lattice and weights: KPOINTS created by Atomic Simulation Env
   0.03571429  0.03571429  0.03571429       0.003
   0.10714286  0.03571429  0.03571429       0.009
   0.17857143  0.03571429  0.03571429       0.009
   0.25000000  0.03571429  0.03571429       0.009
   0.32142857  0.03571429  0.03571429       0.009
   0.39285714  0.03571429  0.03571429       0.009
   0.46428571  0.03571429  0.03571429       0.004
  -0.03571429  0.03571429  0.03571429       0.002
   0.10714286  0.10714286  0.03571429       0.009
   0.17857143  0.10714286  0.03571429       0.017
   0.25000000  0.10714286  0.03571429       0.017
   0.32142857  0.10714286  0.03571429       0.017
   0.39285714  0.10714286  0.03571429       0.017
  -0.10714286  0.10714286  0.03571429       0.009
   0.17857143  0.17857143  0.03571429       0.009
   0.25000000  0.17857143  0.03571429       0.017
   0.32142857  0.17857143  0.03571429       0.017
   0.39285714  0.17857143  0.03571429       0.009
  -0.17857143  0.17857143  0.03571429       0.009
  -0.10714286  0.17857143  0.03571429       0.009
   0.25000000  0.25000000  0.03571429       0.009
   0.32142857  0.25000000  0.03571429       0.017
  -0.25000000  0.25000000  0.03571429       0.009
  -0.17857143  0.25000000  0.03571429       0.017
   0.32142857  0.32142857  0.03571429       0.003
  -0.32142857  0.32142857  0.03571429       0.009
  -0.25000000  0.32142857  0.03571429       0.017
  -0.17857143  0.32142857  0.03571429       0.009
  -0.39285714  0.39285714  0.03571429       0.009
  -0.32142857  0.39285714  0.03571429       0.017
  -0.25000000  0.39285714  0.03571429       0.017
  -0.46428571  0.46428571  0.03571429       0.009
  -0.39285714  0.46428571  0.03571429       0.017
  -0.32142857  0.46428571  0.03571429       0.017
  -0.25000000  0.46428571  0.03571429       0.009
  -0.46428571 -0.46428571  0.03571429       0.009
  -0.39285714 -0.46428571  0.03571429       0.017
  -0.32142857 -0.46428571  0.03571429       0.017
  -0.39285714 -0.39285714  0.03571429       0.009
  -0.32142857 -0.39285714  0.03571429       0.009
   0.10714286  0.10714286  0.10714286       0.003
   0.17857143  0.10714286  0.10714286       0.009
   0.25000000  0.10714286  0.10714286       0.009
   0.32142857  0.10714286  0.10714286       0.009
   0.39285714  0.10714286  0.10714286       0.004
  -0.10714286  0.10714286  0.10714286       0.002
   0.17857143  0.17857143  0.10714286       0.009
   0.25000000  0.17857143  0.10714286       0.017
   0.32142857  0.17857143  0.10714286       0.017
  -0.17857143  0.17857143  0.10714286       0.009
   0.25000000  0.25000000  0.10714286       0.009
   0.32142857  0.25000000  0.10714286       0.009
  -0.25000000  0.25000000  0.10714286       0.009
  -0.17857143  0.25000000  0.10714286       0.009
  -0.32142857  0.32142857  0.10714286       0.009
  -0.25000000  0.32142857  0.10714286       0.017
  -0.39285714  0.39285714  0.10714286       0.009
  -0.32142857  0.39285714  0.10714286       0.017
  -0.25000000  0.39285714  0.10714286       0.009
  -0.46428571  0.46428571  0.10714286       0.009
  -0.39285714  0.46428571  0.10714286       0.017
  -0.32142857  0.46428571  0.10714286       0.017
  -0.46428571 -0.46428571  0.10714286       0.009
  -0.39285714 -0.46428571  0.10714286       0.017
  -0.32142857 -0.46428571  0.10714286       0.009
  -0.39285714 -0.39285714  0.10714286       0.009
   0.17857143  0.17857143  0.17857143       0.003
   0.25000000  0.17857143  0.17857143       0.009
   0.32142857  0.17857143  0.17857143       0.004
  -0.17857143  0.17857143  0.17857143       0.002
   0.25000000  0.25000000  0.17857143       0.009
  -0.25000000  0.25000000  0.17857143       0.009
  -0.32142857  0.32142857  0.17857143       0.009
  -0.25000000  0.32142857  0.17857143       0.009
  -0.39285714  0.39285714  0.17857143       0.009
  -0.32142857  0.39285714  0.17857143       0.017
  -0.46428571  0.46428571  0.17857143       0.009
  -0.39285714  0.46428571  0.17857143       0.017
  -0.32142857  0.46428571  0.17857143       0.009
  -0.46428571 -0.46428571  0.17857143       0.009
  -0.39285714 -0.46428571  0.17857143       0.017
  -0.39285714 -0.39285714  0.17857143       0.003
   0.25000000  0.25000000  0.25000000       0.001
  -0.25000000  0.25000000  0.25000000       0.002
  -0.32142857  0.32142857  0.25000000       0.009
  -0.39285714  0.39285714  0.25000000       0.009
  -0.32142857  0.39285714  0.25000000       0.009
  -0.46428571  0.46428571  0.25000000       0.009
  -0.39285714  0.46428571  0.25000000       0.017
  -0.46428571 -0.46428571  0.25000000       0.009
  -0.39285714 -0.46428571  0.25000000       0.009
  -0.32142857  0.32142857  0.32142857       0.002
  -0.39285714  0.39285714  0.32142857       0.009
  -0.46428571  0.46428571  0.32142857       0.009
  -0.39285714  0.46428571  0.32142857       0.009
  -0.46428571 -0.46428571  0.32142857       0.009
  -0.39285714  0.39285714  0.39285714       0.002
  -0.46428571  0.46428571  0.39285714       0.009
  -0.46428571 -0.46428571  0.39285714       0.003
  -0.46428571  0.46428571  0.46428571       0.002
 
 position of ions in fractional coordinates (direct lattice) 
   0.00000000  0.00000000  0.00000000
 
 position of ions in cartesian coordinates  (Angst):
   0.00000000  0.00000000  0.00000000
 


--------------------------------------------------------------------------------------------------------


 k-point  1 :  0.03570.03570.0357  plane waves:     273
 k-point  2 :  0.10710.03570.0357  plane waves:     272
 k-point  3 :  0.17860.03570.0357  plane waves:     272
 k-point  4 :  0.25000.03570.0357  plane waves:     270
 k-point  5 :  0.32140.03570.0357  plane waves:     273
 k-point  6 :  0.39290.03570.0357  plane waves:     269
 k-point  7 :  0.46430.03570.0357  plane waves:     272
 k-point  8 :  -.03570.03570.0357  plane waves:     261
 k-point  9 :  0.10710.10710.0357  plane waves:     270
 k-point 10 :  0.17860.10710.0357  plane waves:     271
 k-point 11 :  0.25000.10710.0357  plane waves:     267
 k-point 12 :  0.32140.10710.0357  plane waves:     271
 k-point 13 :  0.39290.10710.0357  plane waves:     270
 k-point 14 :  -.10710.10710.0357  plane waves:     274
 k-point 15 :  0.17860.17860.0357  plane waves:     273
 k-point 16 :  0.25000.17860.0357  plane waves:     272
 k-point 17 :  0.32140.17860.0357  plane waves:     270
 k-point 18 :  0.39290.17860.0357  plane waves:     268
 k-point 19 :  -.17860.17860.0357  plane waves:     271
 k-point 20 :  -.10710.17860.0357  plane waves:     276
 k-point 21 :  0.25000.25000.0357  plane waves:     272
 k-point 22 :  0.32140.25000.0357  plane waves:     272
 k-point 23 :  -.25000.25000.0357  plane waves:     271
 k-point 24 :  -.17860.25000.0357  plane waves:     273
 k-point 25 :  0.32140.32140.0357  plane waves:     273
 k-point 26 :  -.32140.32140.0357  plane waves:     267
 k-point 27 :  -.25000.32140.0357  plane waves:     269
 k-point 28 :  -.17860.32140.0357  plane waves:     273
 k-point 29 :  -.39290.39290.0357  plane waves:     273
 k-point 30 :  -.32140.39290.0357  plane waves:     270
 k-point 31 :  -.25000.39290.0357  plane waves:     271
 k-point 32 :  -.46430.46430.0357  plane waves:     272
 k-point 33 :  -.39290.46430.0357  plane waves:     269
 k-point 34 :  -.32140.46430.0357  plane waves:     271
 k-point 35 :  -.25000.46430.0357  plane waves:     274
 k-point 36 :  -.4643-.46430.0357  plane waves:     272
 k-point 37 :  -.3929-.46430.0357  plane waves:     269
 k-point 38 :  -.3214-.46430.0357  plane waves:     274
 k-point 39 :  -.3929-.39290.0357  plane waves:     272
 k-point 40 :  -.3214-.39290.0357  plane waves:     274
 k-point 41 :  0.10710.10710.1071  plane waves:     267
 k-point 42 :  0.17860.10710.1071  plane waves:     265
 k-point 43 :  0.25000.10710.1071  plane waves:     272
 k-point 44 :  0.32140.10710.1071  plane waves:     271
 k-point 45 :  0.39290.10710.1071  plane waves:     272
 k-point 46 :  -.10710.10710.1071  plane waves:     265
 k-point 47 :  0.17860.17860.1071  plane waves:     269
 k-point 48 :  0.25000.17860.1071  plane waves:     273
 k-point 49 :  0.32140.17860.1071  plane waves:     269
 k-point 50 :  -.17860.17860.1071  plane waves:     268
 k-point 51 :  0.25000.25000.1071  plane waves:     270
 k-point 52 :  0.32140.25000.1071  plane waves:     270
 k-point 53 :  -.25000.25000.1071  plane waves:     271
 k-point 54 :  -.17860.25000.1071  plane waves:     269
 k-point 55 :  -.32140.32140.1071  plane waves:     271
 k-point 56 :  -.25000.32140.1071  plane waves:     269
 k-point 57 :  -.39290.39290.1071  plane waves:     271
 k-point 58 :  -.32140.39290.1071  plane waves:     272
 k-point 59 :  -.25000.39290.1071  plane waves:     270
 k-point 60 :  -.46430.46430.1071  plane waves:     274
 k-point 61 :  -.39290.46430.1071  plane waves:     272
 k-point 62 :  -.32140.46430.1071  plane waves:     271
 k-point 63 :  -.4643-.46430.1071  plane waves:     274
 k-point 64 :  -.3929-.46430.1071  plane waves:     273
 k-point 65 :  -.3214-.46430.1071  plane waves:     272
 k-point 66 :  -.3929-.39290.1071  plane waves:     274
 k-point 67 :  0.17860.17860.1786  plane waves:     273
 k-point 68 :  0.25000.17860.1786  plane waves:     270
 k-point 69 :  0.32140.17860.1786  plane waves:     272
 k-point 70 :  -.17860.17860.1786  plane waves:     269
 k-point 71 :  0.25000.25000.1786  plane waves:     271
 k-point 72 :  -.25000.25000.1786  plane waves:     268
 k-point 73 :  -.32140.32140.1786  plane waves:     268
 k-point 74 :  -.25000.32140.1786  plane waves:     273
 k-point 75 :  -.39290.39290.1786  plane waves:     268
 k-point 76 :  -.32140.39290.1786  plane waves:     268
 k-point 77 :  -.46430.46430.1786  plane waves:     271
 k-point 78 :  -.39290.46430.1786  plane waves:     266
 k-point 79 :  -.32140.46430.1786  plane waves:     270
 k-point 80 :  -.4643-.46430.1786  plane waves:     270
 k-point 81 :  -.3929-.46430.1786  plane waves:     269
 k-point 82 :  -.3929-.39290.1786  plane waves:     267
 k-point 83 :  0.25000.25000.2500  plane waves:     276
 k-point 84 :  -.25000.25000.2500  plane waves:     277
 k-point 85 :  -.32140.32140.2500  plane waves:     268
 k-point 86 :  -.39290.39290.2500  plane waves:     263
 k-point 87 :  -.32140.39290.2500  plane waves:     262
 k-point 88 :  -.46430.46430.2500  plane waves:     262
 k-point 89 :  -.39290.46430.2500  plane waves:     260
 k-point 90 :  -.4643-.46430.2500  plane waves:     259
 k-point 91 :  -.3929-.46430.2500  plane waves:     261
 k-point 92 :  -.32140.32140.3214  plane waves:     265
 k-point 93 :  -.39290.39290.3214  plane waves:     258
 k-point 94 :  -.46430.46430.3214  plane waves:     261
 k-point 95 :  -.39290.46430.3214  plane waves:     258
 k-point 96 :  -.4643-.46430.3214  plane waves:     260
 k-point 97 :  -.39290.39290.3929  plane waves:     261
 k-point 98 :  -.46430.46430.3929  plane waves:     257
 k-point 99 :  -.4643-.46430.3929  plane waves:     257
 k-point ** :  -.46430.46430.4643  plane waves:     261

 maximum and minimum number of plane-waves per node :       277      257

 maximum number of plane-waves:       277
 maximum index in each direction: 
   IXMAX=    4   IYMAX=    4   IZMAX=    4
   IXMIN=   -4   IYMIN=   -4   IZMIN=   -4

 NGX is ok and might be reduce to  18
 NGY is ok and might be reduce to  18
 NGZ is ok and might be reduce to  18

 serial   3D FFT for wavefunctions
 parallel 3D FFT for charge:
    minimum data exchange during FFTs selected (reduces bandwidth)


 total amount of memory used by VASP on root node    41076. kBytes
========================================================================

   base      :      30000. kBytes
   nonl-proj :       3993. kBytes
   fftplans  :       1676. kBytes
   grid      :       2560. kBytes
   one-center:         15. kBytes
   wavefun   :       2832. kBytes
 
 Broyden mixing: mesh for mixing (old mesh)
   NGX =  9   NGY =  9   NGZ =  9
  (NGX  = 36   NGY  = 36   NGZ  = 36)
  gives a total of    729 points

 initial charge density was supplied:
 charge density of overlapping atoms calculated
 number of electron       5.0000000 magnetization 
 keeping initial charge density in first step


--------------------------------------------------------------------------------------------------------


 Maximum index for augmentation-charges        21187 (set IRDMAX)


--------------------------------------------------------------------------------------------------------


 First call to EWALD:  gamma=   0.675
 Maximum number of real-space cells 3x 3x 3
 Maximum number of reciprocal cells 3x 3x 3

    FEWALD:  cpu time    0.00: real time    0.00


----------------------------------------- Iteration    1(   1)  ---------------------------------------


    POTLOK:  cpu time    0.06: real time    0.06
    SETDIJ:  cpu time    0.02: real time    0.04
     EDDAV:  cpu time    1.12: real time    1.13
       DOS:  cpu time    0.00: real time    0.00
    --------------------------------------------
      LOOP:  cpu time    1.20: real time    1.24

 eigenvalue-minimisations  :  1218
 total energy-change (2. order) :-0.2881313E+01  (-0.1539354E+03)
 number of electron       5.0000000 magnetization 
 augmentation part        5.0000000 magnetization 

 Free energy of the ion-electron system (eV)
  ---------------------------------------------------
  alpha Z        PSCENC =        30.58334069
  Ewald energy   TEWEN  =      -197.90100875
  -1/2 Hartree   DENC   =        -2.50452612
  -exchange  EXHF       =         0.00000000
  -V(xc)+E(xc)   XCENC  =       -66.68582567
  PAW double counting   =       148.27821850      -73.99089003
  entropy T*S    EENTRO =        -0.00012264
  eigenvalues    EBANDS =        28.69328624
  atomic energy  EATOM  =       130.64621481
  ---------------------------------------------------
  free energy    TOTEN  =        -2.88131297 eV

  energy without entropy =       -2.88119033  energy(sigma->0) =       -2.88127209


--------------------------------------------------------------------------------------------------------




----------------------------------------- Iteration    1(   2)  ---------------------------------------


     EDDAV:  cpu time    1.77: real time    1.78
       DOS:  cpu time    0.00: real time    0.00
    --------------------------------------------
      LOOP:  cpu time    1.78: real time    1.81

 eigenvalue-minimisations  :  2154
 total energy-change (2. order) :-0.9431997E+01  (-0.8925390E+01)
 number of electron       5.0000000 magnetization 
 augmentation part        5.0000000 magnetization 

 Free energy of the ion-electron system (eV)
  ---------------------------------------------------
  alpha Z        PSCENC =        30.58334069
  Ewald energy   TEWEN  =      -197.90100875
  -1/2 Hartree   DENC   =        -2.50452612
  -exchange  EXHF       =         0.00000000
  -V(xc)+E(xc)   XCENC  =       -66.68582567
  PAW double counting   =       148.27821850      -73.99089003
  entropy T*S    EENTRO =        -0.00021673
  eigenvalues    EBANDS =        19.26138348
  atomic energy  EATOM  =       130.64621481
  ---------------------------------------------------
  free energy    TOTEN  =       -12.31330982 eV

  energy without entropy =      -12.31309309  energy(sigma->0) =      -12.31323758


--------------------------------------------------------------------------------------------------------




----------------------------------------- Iteration    1(   3)  ---------------------------------------


     EDDAV:  cpu time    1.18: real time    1.18
       DOS:  cpu time    0.00: real time    0.00
    --------------------------------------------
      LOOP:  cpu time    1.19: real time    1.21

 eigenvalue-minimisations  :  1230
 total energy-change (2. order) :-0.3981307E-01  (-0.3979138E-01)
 number of electron       5.0000000 magnetization 
 augmentation part        5.0000000 magnetization 

 Free energy of the ion-electron system (eV)
  ---------------------------------------------------
  alpha Z        PSCENC =        30.58334069
  Ewald energy   TEWEN  =      -197.90100875
  -1/2 Hartree   DENC   =        -2.50452612
  -exchange  EXHF       =         0.00000000
  -V(xc)+E(xc)   XCENC  =       -66.68582567
  PAW double counting   =       148.27821850      -73.99089003
  entropy T*S    EENTRO =        -0.00020806
  eigenvalues    EBANDS =        19.22156174
  atomic energy  EATOM  =       130.64621481
  ---------------------------------------------------
  free energy    TOTEN  =       -12.35312289 eV

  energy without entropy =      -12.35291483  energy(sigma->0) =      -12.35305354


--------------------------------------------------------------------------------------------------------




----------------------------------------- Iteration    1(   4)  ---------------------------------------


     EDDAV:  cpu time    1.42: real time    1.42
       DOS:  cpu time    0.00: real time    0.00
    --------------------------------------------
      LOOP:  cpu time    1.42: real time    1.60

 eigenvalue-minimisations  :  1650
 total energy-change (2. order) :-0.7034598E-04  (-0.7034661E-04)
 number of electron       5.0000000 magnetization 
 augmentation part        5.0000000 magnetization 

 Free energy of the ion-electron system (eV)
  ---------------------------------------------------
  alpha Z        PSCENC =        30.58334069
  Ewald energy   TEWEN  =      -197.90100875
  -1/2 Hartree   DENC   =        -2.50452612
  -exchange  EXHF       =         0.00000000
  -V(xc)+E(xc)   XCENC  =       -66.68582567
  PAW double counting   =       148.27821850      -73.99089003
  entropy T*S    EENTRO =        -0.00020800
  eigenvalues    EBANDS =        19.22149133
  atomic energy  EATOM  =       130.64621481
  ---------------------------------------------------
  free energy    TOTEN  =       -12.35319324 eV

  energy without entropy =      -12.35298524  energy(sigma->0) =      -12.35312390


--------------------------------------------------------------------------------------------------------




----------------------------------------- Iteration    1(   5)  ---------------------------------------


     EDDAV:  cpu time    1.03: real time    1.13
       DOS:  cpu time    0.00: real time    0.00
    CHARGE:  cpu time    0.14: real time    0.14
    MIXING:  cpu time    0.00: real time    0.00
    --------------------------------------------
      LOOP:  cpu time    1.18: real time    1.33

 eigenvalue-minimisations  :  1068
 total energy-change (2. order) :-0.1173743E-06  (-0.1169663E-06)
 number of electron       5.0000001 magnetization 
 augmentation part        0.3537918 magnetization 

 Broyden mixing:
  rms(total) = 0.32711E+00    rms(broyden)= 0.32711E+00
  rms(prec ) = 0.14169E+01
  weight for this iteration     100.00

 Free energy of the ion-electron system (eV)
  ---------------------------------------------------
  alpha Z        PSCENC =        30.58334069
  Ewald energy   TEWEN  =      -197.90100875
  -1/2 Hartree   DENC   =        -2.50452612
  -exchange  EXHF       =         0.00000000
  -V(xc)+E(xc)   XCENC  =       -66.68582567
  PAW double counting   =       148.27821850      -73.99089003
  entropy T*S    EENTRO =        -0.00020800
  eigenvalues    EBANDS =        19.22149122
  atomic energy  EATOM  =       130.64621481
  ---------------------------------------------------
  free energy    TOTEN  =       -12.35319335 eV

  energy without entropy =      -12.35298536  energy(sigma->0) =      -12.35312402


--------------------------------------------------------------------------------------------------------




----------------------------------------- Iteration    1(   6)  ---------------------------------------


    POTLOK:  cpu time    0.06: real time    0.06
    SETDIJ:  cpu time    0.02: real time    0.02
     EDDAV:  cpu time    1.22: real time    1.34
       DOS:  cpu time    0.00: real time    0.00
    CHARGE:  cpu time    0.11: real time    0.11
    MIXING:  cpu time    0.00: real time    0.00
    --------------------------------------------
      LOOP:  cpu time    1.41: real time    2.91

 eigenvalue-minimisations  :  1356
 total energy-change (2. order) : 0.3416824E+00  (-0.2111890E-01)
 number of electron       5.0000001 magnetization 
 augmentation part        0.3737962 magnetization 

 Broyden mixing:
  rms(total) = 0.17843E+00    rms(broyden)= 0.17843E+00
  rms(prec ) = 0.76885E+00
  weight for this iteration     100.00

 eigenvalues of (default mixing * dielectric matrix)
  average eigenvalue GAMMA=   2.1898
  2.1898

 Free energy of the ion-electron system (eV)
  ---------------------------------------------------
  alpha Z        PSCENC =        30.58334069
  Ewald energy   TEWEN  =      -197.90100875
  -1/2 Hartree   DENC   =        -1.41629352
  -exchange  EXHF       =         0.00000000
  -V(xc)+E(xc)   XCENC  =       -66.38553956
  PAW double counting   =       162.70852164      -88.81720139
  entropy T*S    EENTRO =         0.00026428
  eigenvalues    EBANDS =        18.57019083
  atomic energy  EATOM  =       130.64621481
  ---------------------------------------------------
  free energy    TOTEN  =       -12.01151097 eV

  energy without entropy =      -12.01177525  energy(sigma->0) =      -12.01159906


--------------------------------------------------------------------------------------------------------




----------------------------------------- Iteration    1(   7)  ---------------------------------------


    POTLOK:  cpu time    0.06: real time    0.06
    SETDIJ:  cpu time    0.02: real time    0.02
     EDDAV:  cpu time    1.27: real time    1.36
       DOS:  cpu time    0.00: real time    0.00
    CHARGE:  cpu time    0.09: real time    0.10
    MIXING:  cpu time    0.00: real time    0.00
    --------------------------------------------
      LOOP:  cpu time    1.45: real time    1.60

 eigenvalue-minimisations  :  1416
 total energy-change (2. order) : 0.1546182E+00  (-0.3392845E-01)
 number of electron       5.0000001 magnetization 
 augmentation part        0.4027745 magnetization 

 Broyden mixing:
  rms(total) = 0.19979E-01    rms(broyden)= 0.19968E-01
  rms(prec ) = 0.67230E-01
  weight for this iteration     100.00

 eigenvalues of (default mixing * dielectric matrix)
  average eigenvalue GAMMA=   3.2731
  2.6260  3.9201

 Free energy of the ion-electron system (eV)
  ---------------------------------------------------
  alpha Z        PSCENC =        30.58334069
  Ewald energy   TEWEN  =      -197.90100875
  -1/2 Hartree   DENC   =        -0.53419698
  -exchange  EXHF       =         0.00000000
  -V(xc)+E(xc)   XCENC  =       -65.97756613
  PAW double counting   =       186.35427232     -112.90083900
  entropy T*S    EENTRO =        -0.00021153
  eigenvalues    EBANDS =        17.87310175
  atomic energy  EATOM  =       130.64621481
  ---------------------------------------------------
  free energy    TOTEN  =       -11.85689282 eV

  energy without entropy =      -11.85668128  energy(sigma->0) =      -11.85682231


--------------------------------------------------------------------------------------------------------




----------------------------------------- Iteration    1(   8)  ---------------------------------------


    POTLOK:  cpu time    0.09: real time    0.11
    SETDIJ:  cpu time    0.02: real time    0.02
     EDDAV:  cpu time    1.19: real time    1.19
       DOS:  cpu time    0.00: real time    0.00
    CHARGE:  cpu time    0.10: real time    0.10
    MIXING:  cpu time    0.00: real time    0.00
    --------------------------------------------
      LOOP:  cpu time    1.41: real time    2.65

 eigenvalue-minimisations  :  1320
 total energy-change (2. order) :-0.8969462E-03  (-0.1121595E-02)
 number of electron       5.0000001 magnetization 
 augmentation part        0.3990379 magnetization 

 Broyden mixing:
  rms(total) = 0.18210E-01    rms(broyden)= 0.18210E-01
  rms(prec ) = 0.79179E-01
  weight for this iteration     100.00

 eigenvalues of (default mixing * dielectric matrix)
  average eigenvalue GAMMA=   1.8813
  0.9960  2.5662  2.0817

 Free energy of the ion-electron system (eV)
  ---------------------------------------------------
  alpha Z        PSCENC =        30.58334069
  Ewald energy   TEWEN  =      -197.90100875
  -1/2 Hartree   DENC   =        -0.65534301
  -exchange  EXHF       =         0.00000000
  -V(xc)+E(xc)   XCENC  =       -66.04094399
  PAW double counting   =       191.08670305     -117.63348584
  entropy T*S    EENTRO =        -0.00026946
  eigenvalues    EBANDS =        18.05700272
  atomic energy  EATOM  =       130.64621481
  ---------------------------------------------------
  free energy    TOTEN  =       -11.85778976 eV

  energy without entropy =      -11.85752031  energy(sigma->0) =      -11.85769995


--------------------------------------------------------------------------------------------------------




----------------------------------------- Iteration    1(   9)  ---------------------------------------


    POTLOK:  cpu time    0.06: real time    0.06
    SETDIJ:  cpu time    0.02: real time    0.02
     EDDAV:  cpu time    1.23: real time    1.24
       DOS:  cpu time    0.00: real time    0.00
    CHARGE:  cpu time    0.21: real time    0.21
    MIXING:  cpu time    0.00: real time    0.00
    --------------------------------------------
      LOOP:  cpu time    1.52: real time    1.54

 eigenvalue-minimisations  :  1344
 total energy-change (2. order) : 0.1452106E-02  (-0.3590278E-03)
 number of electron       5.0000001 magnetization 
 augmentation part        0.4019343 magnetization 

 Broyden mixing:
  rms(total) = 0.55446E-03    rms(broyden)= 0.54996E-03
  rms(prec ) = 0.20293E-02
  weight for this iteration     100.00

 eigenvalues of (default mixing * dielectric matrix)
  average eigenvalue GAMMA=   1.9727
  1.0216  2.5026  2.5026  1.8640

 Free energy of the ion-electron system (eV)
  ---------------------------------------------------
  alpha Z        PSCENC =        30.58334069
  Ewald energy   TEWEN  =      -197.90100875
  -1/2 Hartree   DENC   =        -0.58477787
  -exchange  EXHF       =         0.00000000
  -V(xc)+E(xc)   XCENC  =       -65.99840118
  PAW double counting   =       193.47910745     -120.06294352
  entropy T*S    EENTRO =        -0.00016217
  eigenvalues    EBANDS =        17.98229288
  atomic energy  EATOM  =       130.64621481
  ---------------------------------------------------
  free energy    TOTEN  =       -11.85633766 eV

  energy without entropy =      -11.85617549  energy(sigma->0) =      -11.85628360


--------------------------------------------------------------------------------------------------------




----------------------------------------- Iteration    1(  10)  ---------------------------------------


    POTLOK:  cpu time    0.05: real time    0.06
    SETDIJ:  cpu time    0.02: real time    0.02
     EDDAV:  cpu time    0.79: real time    0.79
       DOS:  cpu time    0.00: real time    0.00
    --------------------------------------------
      LOOP:  cpu time    0.87: real time    0.92

 eigenvalue-minimisations  :   684
 total energy-change (2. order) : 0.2805040E-05  (-0.9065587E-06)
 number of electron       5.0000001 magnetization 
 augmentation part        0.4019343 magnetization 

 Free energy of the ion-electron system (eV)
  ---------------------------------------------------
  alpha Z        PSCENC =        30.58334069
  Ewald energy   TEWEN  =      -197.90100875
  -1/2 Hartree   DENC   =        -0.58736837
  -exchange  EXHF       =         0.00000000
  -V(xc)+E(xc)   XCENC  =       -65.99989653
  PAW double counting   =       193.50415065     -120.08487855
  entropy T*S    EENTRO =        -0.00016543
  eigenvalues    EBANDS =        17.98327662
  atomic energy  EATOM  =       130.64621481
  ---------------------------------------------------
  free energy    TOTEN  =       -11.85633485 eV

  energy without entropy =      -11.85616942  energy(sigma->0) =      -11.85627971


--------------------------------------------------------------------------------------------------------




 average (electrostatic) potential at core
  the test charge radii are     1.2538
  (the norm of the test charge is              1.0000)
       1 -35.0295
 
 
 
 E-fermi :   5.6932     XC(G=0): -12.3701     alpha+bet :-13.5035


 k-point   1 :       0.0357    0.0357    0.0357
  band No.  band energies     occupation 
      1      -1.8503      2.00000
      2       6.2621      0.00000
      3       6.2621      0.00000
      4       6.8281      0.00000
      5       9.5242      0.00000
      6       9.5242      0.00000

 k-point   2 :       0.1071    0.0357    0.0357
  band No.  band energies     occupation 
      1      -1.2298      2.00000
      2       5.8611     -0.00002
      3       6.0196      0.00000
      4       7.5311      0.00000
      5       9.1589      0.00000
      6       9.6240      0.00000

 k-point   3 :       0.1786    0.0357    0.0357
  band No.  band energies     occupation 
      1      -0.3187      2.00000
      2       5.3617      2.00000
      3       5.6399      2.06148
      4       8.5913      0.00000
      5       9.0750      0.00000
      6       9.7703      0.00000

 k-point   4 :       0.2500    0.0357    0.0357
  band No.  band energies     occupation 
      1       0.6382      2.00000
      2       4.8819      2.00000
      3       5.4043      2.00000
      4       9.2542      0.00000
      5       9.9761      0.00000
      6      10.0001      0.00000

 k-point   5 :       0.3214    0.0357    0.0357
  band No.  band energies     occupation 
      1       1.2667      2.00000
      2       4.4964      2.00000
      3       5.7436     -0.05181
      4       9.5426      0.00000
      5      10.2336      0.00000
      6      11.5502      0.00000

 k-point   6 :       0.3929    0.0357    0.0357
  band No.  band energies     occupation 
      1       1.4594      2.00000
      2       4.2500      2.00000
      3       6.5950      0.00000
      4       9.6564      0.00000
      5      10.4750      0.00000
      6      12.9740      0.00000

 k-point   7 :       0.4643    0.0357    0.0357
  band No.  band energies     occupation 
      1       1.4780      2.00000
      2       4.1654      2.00000
      3       7.1145      0.00000
      4       9.6045      0.00000
      5      10.5787      0.00000
      6      13.6238      0.00000

 k-point   8 :      -0.0357    0.0357    0.0357
  band No.  band energies     occupation 
      1      -2.0680      2.00000
      2       6.4209      0.00000
      3       6.4209      0.00000
      4       6.4924      0.00000
      5       9.4853      0.00000
      6       9.7431      0.00000

 k-point   9 :       0.1071    0.1071    0.0357
  band No.  band energies     occupation 
      1      -0.4712      2.00000
      2       5.4878      2.00000
      3       5.5376      2.00010
      4       8.5366      0.00000
      5       9.0566      0.00000
      6       9.7600      0.00000

 k-point  10 :       0.1786    0.1071    0.0357
  band No.  band energies     occupation 
      1       0.4990      2.00000
      2       5.0109      2.00000
      3       5.1629      2.00000
      4       9.0762      0.00000
      5       9.8580      0.00000
      6      10.0318      0.00000

 k-point  11 :       0.2500    0.1071    0.0357
  band No.  band energies     occupation 
      1       1.3727      2.00000
      2       4.6026      2.00000
      3       5.1336      2.00000
      4       9.3208      0.00000
      5      10.2719      0.00000
      6      11.3906      0.00000

 k-point  12 :       0.3214    0.1071    0.0357
  band No.  band energies     occupation 
      1       1.7886      2.00000
      2       4.3244      2.00000
      3       5.7238      0.14926
      4       9.5917      0.00000
      5      10.4671      0.00000
      6      12.9238      0.00000

 k-point  13 :       0.3929    0.1071    0.0357
  band No.  band energies     occupation 
      1       1.8591      2.00000
      2       4.1823      2.00000
      3       6.4842      0.00000
      4       9.6475      0.00000
      5      10.6428      0.00000
      6      14.0235      0.00000

 k-point  14 :      -0.1071    0.1071    0.0357
  band No.  band energies     occupation 
      1      -1.6360      2.00000
      2       6.1664      0.00000
      3       6.3240      0.00000
      4       6.9103      0.00000
      5       9.0265      0.00000
      6       9.8313      0.00000

 k-point  15 :       0.1786    0.1786    0.0357
  band No.  band energies     occupation 
      1       1.4582      2.00000
      2       4.6334      2.00000
      3       4.8704      2.00000
      4       9.1606      0.00000
      5      10.3391      0.00000
      6      11.3727      0.00000

 k-point  16 :       0.2500    0.1786    0.0357
  band No.  band energies     occupation 
      1       2.2044      2.00000
      2       4.3711      2.00000
      3       4.9783      2.00000
      4       9.4156      0.00000
      5      10.4929      0.00000
      6      13.0008      0.00000

 k-point  17 :       0.3214    0.1786    0.0357
  band No.  band energies     occupation 
      1       2.4493      2.00000
      2       4.2511      2.00000
      3       5.5581      2.00089
      4       9.6571      0.00000
      5      10.5900      0.00000
      6      14.4497      0.00000

 k-point  18 :       0.3929    0.1786    0.0357
  band No.  band energies     occupation 
      1       2.4684      2.00000
      2       4.2136      2.00000
      3       5.9276      0.00000
      4       9.6926      0.00000
      5      10.7110      0.00000
      6      15.1203      0.00000

 k-point  19 :      -0.1786    0.1786    0.0357
  band No.  band energies     occupation 
      1      -0.8451      2.00000
      2       5.7159      0.31221
      3       6.0144      0.00000
      4       7.7659      0.00000
      5       8.7309      0.00000
      6       9.9188      0.00000

 k-point  20 :      -0.1071    0.1786    0.0357
  band No.  band energies     occupation 
      1      -1.0252      2.00000
      2       5.9690      0.00000
      3       6.0667      0.00000
      4       7.4912      0.00000
      5       8.4986      0.00000
      6      10.0568      0.00000

 k-point  21 :       0.2500    0.2500    0.0357
  band No.  band energies     occupation 
      1       2.8323      2.00000
      2       4.2841      2.00000
      3       5.0414      2.00000
      4       9.6734      0.00000
      5      10.5090      0.00000
      6      14.6560      0.00000

 k-point  22 :       0.3214    0.2500    0.0357
  band No.  band energies     occupation 
      1       3.0383      2.00000
      2       4.3517      2.00000
      3       5.2327      2.00000
      4       9.9206      0.00000
      5      10.5426      0.00000
      6      14.7543      0.00000

 k-point  23 :      -0.2500    0.2500    0.0357
  band No.  band energies     occupation 
      1       0.1279      2.00000
      2       5.2149      2.00000
      3       5.6135      2.04666
      4       8.8358      0.00000
      5       8.9891      0.00000
      6      10.0585      0.00000

 k-point  24 :      -0.1786    0.2500    0.0357
  band No.  band energies     occupation 
      1      -0.1268      2.00000
      2       5.5261      2.00002
      3       5.6718      1.65704
      4       8.3289      0.00000
      5       8.5433      0.00000
      6      10.2570      0.00000

 k-point  25 :       0.3214    0.3214    0.0357
  band No.  band energies     occupation 
      1       3.2580      2.00000
      2       4.7518      2.00000
      3       4.7518      2.00000
      4      10.3113      0.00000
      5      10.3113      0.00000
      6      14.0992      0.00000

 k-point  26 :      -0.3214    0.3214    0.0357
  band No.  band energies     occupation 
      1       0.9543      2.00000
      2       4.7660      2.00000
      3       5.5814      2.00694
      4       9.1791      0.00000
      5      10.2405      0.00000
      6      10.4858      0.00000

 k-point  27 :      -0.2500    0.3214    0.0357
  band No.  band energies     occupation 
      1       0.8250      2.00000
      2       5.0407      2.00000
      3       5.3719      2.00000
      4       8.5862      0.00000
      5       9.9162      0.00000
      6      10.4248      0.00000

 k-point  28 :      -0.1786    0.3214    0.0357
  band No.  band energies     occupation 
      1       0.7980      2.00000
      2       5.0707      2.00000
      3       5.3858      2.00000
      4       8.2786      0.00000
      5       9.7597      0.00000
      6      10.5177      0.00000

 k-point  29 :      -0.3929    0.3929    0.0357
  band No.  band energies     occupation 
      1       1.3381      2.00000
      2       4.4357      2.00000
      3       6.1832      0.00000
      4       9.4675      0.00000
      5      10.4557      0.00000
      6      12.0568      0.00000

 k-point  30 :      -0.3214    0.3929    0.0357
  band No.  band energies     occupation 
      1       1.4624      2.00000
      2       4.6785      2.00000
      3       5.5343      2.00007
      4       9.0118      0.00000
      5      10.5270      0.00000
      6      11.5125      0.00000

 k-point  31 :      -0.2500    0.3929    0.0357
  band No.  band energies     occupation 
      1       1.6641      2.00000
      2       4.6525      2.00000
      3       5.2688      2.00000
      4       8.5708      0.00000
      5      10.5037      0.00000
      6      11.3970      0.00000

 k-point  32 :      -0.4643    0.4643    0.0357
  band No.  band energies     occupation 
      1       1.4106      2.00000
      2       4.2621      2.00000
      3       6.9500      0.00000
      4       9.4455      0.00000
      5      10.6952      0.00000
      6      13.2304      0.00000

 k-point  33 :      -0.3929    0.4643    0.0357
  band No.  band energies     occupation 
      1       1.6570      2.00000
      2       4.4510      2.00000
      3       6.1695      0.00000
      4       9.1936      0.00000
      5      10.8028      0.00000
      6      12.9681      0.00000

 k-point  34 :      -0.3214    0.4643    0.0357
  band No.  band energies     occupation 
      1       2.1178      2.00000
      2       4.5096      2.00000
      3       5.4365      2.00000
      4       8.9546      0.00000
      5      10.5959      0.00000
      6      13.0111      0.00000

 k-point  35 :      -0.2500    0.4643    0.0357
  band No.  band energies     occupation 
      1       2.4258      2.00000
      2       4.3042      2.00000
      3       5.2831      2.00000
      4       8.8518      0.00000
      5      10.4435      0.00000
      6      13.0829      0.00000

 k-point  36 :      -0.4643   -0.4643    0.0357
  band No.  band energies     occupation 
      1       1.6737      2.00000
      2       4.3722      2.00000
      3       6.5651      0.00000
      4       9.1185      0.00000
      5      11.0530      0.00000
      6      13.6403      0.00000

 k-point  37 :      -0.3929   -0.4643    0.0357
  band No.  band energies     occupation 
      1       2.2005      2.00000
      2       4.4718      2.00000
      3       5.7991     -0.01073
      4       9.0210      0.00000
      5      10.9635      0.00000
      6      14.2619      0.00000

 k-point  38 :      -0.3214   -0.4643    0.0357
  band No.  band energies     occupation 
      1       2.8107      2.00000
      2       4.3041      2.00000
      3       5.2562      2.00000
      4       9.2246      0.00000
      5      10.5059      0.00000
      6      14.7688      0.00000

 k-point  39 :      -0.3929   -0.3929    0.0357
  band No.  band energies     occupation 
      1       2.8714      2.00000
      2       4.4303      2.00000
      3       5.2059      2.00000
      4       9.3169      0.00000
      5      10.7511      0.00000
      6      15.3049      0.00000

 k-point  40 :      -0.3214   -0.3929    0.0357
  band No.  band energies     occupation 
      1       3.3057      2.00000
      2       4.3402      2.00000
      3       4.8418      2.00000
      4       9.7892      0.00000
      5      10.3546      0.00000
      6      14.8438      0.00000

 k-point  41 :       0.1071    0.1071    0.1071
  band No.  band energies     occupation 
      1       0.3896      2.00000
      2       5.0254      2.00000
      3       5.0254      2.00000
      4       9.5857      0.00000
      5       9.5857      0.00000
      6       9.8744      0.00000

 k-point  42 :       0.1786    0.1071    0.1071
  band No.  band energies     occupation 
      1       1.3930      2.00000
      2       4.6101      2.00000
      3       4.7134      2.00000
      4       9.6367      0.00000
      5      10.0102      0.00000
      6      11.4233      0.00000

 k-point  43 :       0.2500    0.1071    0.1071
  band No.  band energies     occupation 
      1       2.1342      2.00000
      2       4.3120      2.00000
      3       4.9252      2.00000
      4       9.8188      0.00000
      5      10.3330      0.00000
      6      13.0210      0.00000

 k-point  44 :       0.3214    0.1071    0.1071
  band No.  band energies     occupation 
      1       2.3398      2.00000
      2       4.1345      2.00000
      3       5.7355     -0.00167
      4       9.9497      0.00000
      5      10.5532      0.00000
      6      14.3534      0.00000

 k-point  45 :       0.3929    0.1071    0.1071
  band No.  band energies     occupation 
      1       2.3470      2.00000
      2       4.0757      2.00000
      3       6.2339      0.00000
      4       9.9586      0.00000
      5      10.6350      0.00000
      6      14.9214      0.00000

 k-point  46 :      -0.1071    0.1071    0.1071
  band No.  band energies     occupation 
      1      -1.2147      2.00000
      2       6.3450      0.00000
      3       6.3450      0.00000
      4       6.9159      0.00000
      5       8.2062      0.00000
      6      10.2089      0.00000

 k-point  47 :       0.1786    0.1786    0.1071
  band No.  band energies     occupation 
      1       2.3811      2.00000
      2       4.3533      2.00000
      3       4.4512      2.00000
      4       9.8769      0.00000
      5      10.2955      0.00000
      6      13.0936      0.00000

 k-point  48 :       0.2500    0.1786    0.1071
  band No.  band energies     occupation 
      1       2.9461      2.00000
      2       4.1963      2.00000
      3       4.8157      2.00000
      4      10.0693      0.00000
      5      10.5246      0.00000
      6      14.6463      0.00000

 k-point  49 :       0.3214    0.1786    0.1071
  band No.  band energies     occupation 
      1       3.0056      2.00000
      2       4.1218      2.00000
      3       5.5280      2.00003
      4      10.1717      0.00000
      5      10.6454      0.00000
      6      14.7647      0.00000

 k-point  50 :      -0.1786    0.1786    0.1071
  band No.  band energies     occupation 
      1      -0.4429      2.00000
      2       6.0623      0.00000
      3       6.1420      0.00000
      4       7.6325      0.00000
      5       7.6483      0.00000
      6      10.4613      0.00000

 k-point  51 :       0.2500    0.2500    0.1071
  band No.  band energies     occupation 
      1       3.3783      2.00000
      2       4.3490      2.00000
      3       4.9096      2.00000
      4      10.2920      0.00000
      5      10.5992      0.00000
      6      14.4922      0.00000

 k-point  52 :       0.3214    0.2500    0.1071
  band No.  band energies     occupation 
      1       3.4374      2.00000
      2       4.4395      2.00000
      3       5.0857      2.00000
      4      10.4050      0.00000
      5      10.6169      0.00000
      6      13.7490      0.00000

 k-point  53 :      -0.2500    0.2500    0.1071
  band No.  band energies     occupation 
      1       0.5126      2.00000
      2       5.5784      2.00545
      3       5.6098      2.03992
      4       7.8110      0.00000
      5       8.8387      0.00000
      6      10.6102      0.00000

 k-point  54 :      -0.1786    0.2500    0.1071
  band No.  band energies     occupation 
      1       0.4132      2.00000
      2       5.6792      1.45601
      3       5.9948      0.00000
      4       7.3400      0.00000
      5       8.4342      0.00000
      6      10.6940      0.00000

 k-point  55 :      -0.3214    0.3214    0.1071
  band No.  band energies     occupation 
      1       1.3440      2.00000
      2       5.1877      2.00000
      3       5.2563      2.00000
      4       8.3260      0.00000
      5      10.3395      0.00000
      6      10.6845      0.00000

 k-point  56 :      -0.2500    0.3214    0.1071
  band No.  band energies     occupation 
      1       1.3374      2.00000
      2       5.0318      2.00000
      3       5.7309      0.04611
      4       7.6907      0.00000
      5       9.7167      0.00000
      6      10.7832      0.00000

 k-point  57 :      -0.3929    0.3929    0.1071
  band No.  band energies     occupation 
      1       1.7359      2.00000
      2       4.8735      2.00000
      3       5.5192      2.00001
      4       8.6829      0.00000
      5      10.9588      0.00000
      6      11.9274      0.00000

 k-point  58 :      -0.3214    0.3929    0.1071
  band No.  band energies     occupation 
      1       1.9944      2.00000
      2       4.7543      2.00000
      3       5.4700      2.00000
      4       8.2173      0.00000
      5      10.6104      0.00000
      6      11.5498      0.00000

 k-point  59 :      -0.2500    0.3929    0.1071
  band No.  band energies     occupation 
      1       2.1630      2.00000
      2       4.4411      2.00000
      3       5.7436     -0.05187
      4       7.9822      0.00000
      5      10.3078      0.00000
      6      11.5618      0.00000

 k-point  60 :      -0.4643    0.4643    0.1071
  band No.  band energies     occupation 
      1       1.7988      2.00000
      2       4.7071      2.00000
      3       6.0117      0.00000
      4       8.5752      0.00000
      5      11.5641      0.00000
      6      13.1259      0.00000

 k-point  61 :      -0.3929    0.4643    0.1071
  band No.  band energies     occupation 
      1       2.1913      2.00000
      2       4.8841      2.00000
      3       5.3868      2.00000
      4       8.3268      0.00000
      5      11.2587      0.00000
      6      13.0370      0.00000

 k-point  62 :      -0.3214    0.4643    0.1071
  band No.  band energies     occupation 
      1       2.7013      2.00000
      2       4.2371      2.00000
      3       5.5188      2.00001
      4       8.4618      0.00000
      5      10.4707      0.00000
      6      13.2262      0.00000

 k-point  63 :      -0.4643   -0.4643    0.1071
  band No.  band energies     occupation 
      1       2.1972      2.00000
      2       4.9407      2.00000
      3       5.4733      2.00000
      4       8.2154      0.00000
      5      11.8020      0.00000
      6      13.7903      0.00000

 k-point  64 :      -0.3929   -0.4643    0.1071
  band No.  band energies     occupation 
      1       2.8043      2.00000
      2       4.5869      2.00000
      3       5.1016      2.00000
      4       8.5873      0.00000
      5      11.1190      0.00000
      6      14.7298      0.00000

 k-point  65 :      -0.3214   -0.4643    0.1071
  band No.  band energies     occupation 
      1       3.3624      2.00000
      2       3.9573      2.00000
      3       5.0736      2.00000
      4       9.1593      0.00000
      5      10.4339      0.00000
      6      15.0571      0.00000

 k-point  66 :      -0.3929   -0.3929    0.1071
  band No.  band energies     occupation 
      1       3.5454      2.00000
      2       4.3687      2.00000
      3       4.4045      2.00000
      4       9.5065      0.00000
      5      10.5867      0.00000
      6      15.2111      0.00000

 k-point  67 :       0.1786    0.1786    0.1786
  band No.  band energies     occupation 
      1       3.4246      2.00000
      2       4.1987      2.00000
      3       4.1987      2.00000
      4      10.3632      0.00000
      5      10.3632      0.00000
      6      14.7742      0.00000

 k-point  68 :       0.2500    0.1786    0.1786
  band No.  band energies     occupation 
      1       3.7409      2.00000
      2       4.1298      2.00000
      3       4.7477      2.00000
      4      10.4556      0.00000
      5      10.6262      0.00000
      6      14.4241      0.00000

 k-point  69 :       0.3214    0.1786    0.1786
  band No.  band energies     occupation 
      1       3.6971      2.00000
      2       4.1115      2.00000
      3       5.2173      2.00000
      4      10.4855      0.00000
      5      10.7068      0.00000
      6      13.6532      0.00000

 k-point  70 :      -0.1786    0.1786    0.1786
  band No.  band energies     occupation 
      1       0.2881      2.00000
      2       6.4403      0.00000
      3       6.4403      0.00000
      4       6.4574      0.00000
      5       7.7343      0.00000
      6      10.7725      0.00000

 k-point  71 :       0.2500    0.2500    0.1786
  band No.  band energies     occupation 
      1       3.9784      2.00000
      2       4.4336      2.00000
      3       4.7614      2.00000
      4      10.6366      0.00000
      5      10.6969      0.00000
      6      13.2276      0.00000

 k-point  72 :      -0.2500    0.2500    0.1786
  band No.  band energies     occupation 
      1       1.1898      2.00000
      2       5.4047      2.00000
      3       6.3096      0.00000
      4       6.9657      0.00000
      5       8.6685      0.00000
      6      10.8218      0.00000

 k-point  73 :      -0.3214    0.3214    0.1786
  band No.  band energies     occupation 
      1       1.9976      2.00000
      2       4.7133      2.00000
      3       5.9917      0.00000
      4       7.6018      0.00000
      5      10.1143      0.00000
      6      10.8060      0.00000

 k-point  74 :      -0.2500    0.3214    0.1786
  band No.  band energies     occupation 
      1       2.0174      2.00000
      2       4.6582      2.00000
      3       6.4380      0.00000
      4       7.2597      0.00000
      5       9.5862      0.00000
      6      10.7806      0.00000

 k-point  75 :      -0.3929    0.3929    0.1786
  band No.  band energies     occupation 
      1       2.3860      2.00000
      2       4.6024      2.00000
      3       5.7239      0.14763
      4       7.8499      0.00000
      5      11.3703      0.00000
      6      11.7085      0.00000

 k-point  76 :      -0.3214    0.3929    0.1786
  band No.  band energies     occupation 
      1       2.6473      2.00000
      2       4.1279      2.00000
      3       6.2152      0.00000
      4       7.8117      0.00000
      5      10.3972      0.00000
      6      11.6008      0.00000

 k-point  77 :      -0.4643    0.4643    0.1786
  band No.  band energies     occupation 
      1       2.4107      2.00000
      2       4.8563      2.00000
      3       5.5776      2.00514
      4       7.6440      0.00000
      5      12.5060      0.00000
      6      12.9429      0.00000

 k-point  78 :      -0.3929    0.4643    0.1786
  band No.  band energies     occupation 
      1       2.8083      2.00000
      2       4.1649      2.00000
      3       5.8852      0.00000
      4       7.9299      0.00000
      5      11.3767      0.00000
      6      13.2042      0.00000

 k-point  79 :      -0.3214    0.4643    0.1786
  band No.  band energies     occupation 
      1       3.1999      2.00000
      2       3.6641      2.00000
      3       5.8741      0.00000
      4       8.5744      0.00000
      5      10.4522      0.00000
      6      13.3429      0.00000

 k-point  80 :      -0.4643   -0.4643    0.1786
  band No.  band energies     occupation 
      1       2.7706      2.00000
      2       4.3476      2.00000
      3       5.6931      1.00511
      4       7.8680      0.00000
      5      12.1270      0.00000
      6      14.2231      0.00000

 k-point  81 :      -0.3929   -0.4643    0.1786
  band No.  band energies     occupation 
      1       3.2575      2.00000
      2       3.8103      2.00000
      3       5.3775      2.00000
      4       9.0338      0.00000
      5      11.0467      0.00000
      6      15.1052      0.00000

 k-point  82 :      -0.3929   -0.3929    0.1786
  band No.  band energies     occupation 
      1       3.5995      2.00000
      2       3.5995      2.00000
      3       5.0310      2.00000
      4      10.2845      0.00000
      5      10.2845      0.00000
      6      15.3503      0.00000

 k-point  83 :       0.2500    0.2500    0.2500
  band No.  band energies     occupation 
      1       4.4716      2.00000
      2       4.4716      2.00000
      3       4.4716      2.00000
      4      10.7391      0.00000
      5      10.7391      0.00000
      6      12.7448      0.00000

 k-point  84 :      -0.2500    0.2500    0.2500
  band No.  band energies     occupation 
      1       1.9705      2.00000
      2       4.7854      2.00000
      3       6.9534      0.00000
      4       6.9534      0.00000
      5       8.8812      0.00000
      6      10.6842      0.00000

 k-point  85 :      -0.3214    0.3214    0.2500
  band No.  band energies     occupation 
      1       2.6207      2.00000
      2       4.0634      2.00000
      3       7.0592      0.00000
      4       7.4640      0.00000
      5       9.9561      0.00000
      6      10.6292      0.00000

 k-point  86 :      -0.3929    0.3929    0.2500
  band No.  band energies     occupation 
      1       2.8991      2.00000
      2       3.7130      2.00000
      3       6.9301      0.00000
      4       7.6309      0.00000
      5      11.4691      0.00000
      6      11.5049      0.00000

 k-point  87 :      -0.3214    0.3929    0.2500
  band No.  band energies     occupation 
      1       2.9960      2.00000
      2       3.4861      2.00000
      3       7.1062      0.00000
      4       8.1662      0.00000
      5      10.4198      0.00000
      6      11.5165      0.00000

 k-point  88 :      -0.4643    0.4643    0.2500
  band No.  band energies     occupation 
      1       2.8076      2.00000
      2       3.7904      2.00000
      3       6.8309      0.00000
      4       7.4567      0.00000
      5      12.7236      0.00000
      6      13.1422      0.00000

 k-point  89 :      -0.3929    0.4643    0.2500
  band No.  band energies     occupation 
      1       2.9831      2.00000
      2       3.3149      2.00000
      3       6.8237      0.00000
      4       8.6326      0.00000
      5      11.3128      0.00000
      6      13.2790      0.00000

 k-point  90 :      -0.4643   -0.4643    0.2500
  band No.  band energies     occupation 
      1       2.8634      2.00000
      2       3.3707      2.00000
      3       6.6881      0.00000
      4       8.6947      0.00000
      5      12.0844      0.00000
      6      14.6950      0.00000

 k-point  91 :      -0.3929   -0.4643    0.2500
  band No.  band energies     occupation 
      1       2.9962      2.00000
      2       3.1025      2.00000
      3       6.5241      0.00000
      4       9.9728      0.00000
      5      11.0984      0.00000
      6      15.2145      0.00000

 k-point  92 :      -0.3214    0.3214    0.3214
  band No.  band energies     occupation 
      1       2.9135      2.00000
      2       3.4268      2.00000
      3       8.0201      0.00000
      4       8.0201      0.00000
      5      10.2239      0.00000
      6      10.5729      0.00000

 k-point  93 :      -0.3929    0.3929    0.3214
  band No.  band energies     occupation 
      1       2.8797      2.00000
      2       2.9940      2.00000
      3       8.3683      0.00000
      4       8.4417      0.00000
      5      11.3141      0.00000
      6      11.5182      0.00000

 k-point  94 :      -0.4643    0.4643    0.3214
  band No.  band energies     occupation 
      1       2.6421      2.00000
      2       2.9319      2.00000
      3       8.3997      0.00000
      4       8.4415      0.00000
      5      12.5144      0.00000
      6      13.4258      0.00000

 k-point  95 :      -0.3929    0.4643    0.3214
  band No.  band energies     occupation 
      1       2.6147      2.00000
      2       2.7229      2.00000
      3       8.3214      0.00000
      4       9.7490      0.00000
      5      11.5454      0.00000
      6      13.2446      0.00000

 k-point  96 :      -0.4643   -0.4643    0.3214
  band No.  band energies     occupation 
      1       2.5094      2.00000
      2       2.6259      2.00000
      3       8.2624      0.00000
      4      10.2227      0.00000
      5      11.9392      0.00000
      6      14.9677      0.00000

 k-point  97 :      -0.3929    0.3929    0.3929
  band No.  band energies     occupation 
      1       2.4840      2.00000
      2       2.5868      2.00000
      3       9.6685      0.00000
      4       9.6685      0.00000
      5      11.5154      0.00000
      6      11.9466      0.00000

 k-point  98 :      -0.4643    0.4643    0.3929
  band No.  band energies     occupation 
      1       2.2526      2.00000
      2       2.3398      2.00000
      3      10.1636      0.00000
      4      10.1697      0.00000
      5      12.3592      0.00000
      6      13.5380      0.00000

 k-point  99 :      -0.4643   -0.4643    0.3929
  band No.  band energies     occupation 
      1       2.1614      2.00000
      2       2.1614      2.00000
      3      10.2038      0.00000
      4      11.8174      0.00000
      5      11.8174      0.00000
      6      15.0686      0.00000

 k-point 100 :      -0.4643    0.4643    0.4643
  band No.  band energies     occupation 
      1       2.0033      2.00000
      2       2.0290      2.00000
      3      11.7717      0.00000
      4      11.7717      0.00000
      5      12.3579      0.00000
      6      13.8765      0.00000


--------------------------------------------------------------------------------------------------------


 soft charge-density along one line, spin component           1
         0         1         2         3         4         5         6         7         8         9
 total charge-density along one line
 
 pseudopotential strength for first ion, spin component:           1
 -6.575   0.000   0.003   0.000   0.002   0.089   0.000   0.000
  0.000  -6.572   0.000   0.003   0.000   0.000   0.089   0.000
  0.003   0.000  -6.572   0.000  -0.001   0.000   0.000   0.089
  0.000   0.003   0.000  -6.575   0.000   0.000   0.000   0.000
  0.002   0.000  -0.001   0.000  -6.571   0.000   0.000   0.000
  0.089   0.000   0.000   0.000   0.000   0.071   0.000   0.000
  0.000   0.089   0.000   0.000   0.000   0.000   0.071   0.000
  0.000   0.000   0.089   0.000   0.000   0.000   0.000   0.071
  0.000   0.000   0.000   0.089   0.000   0.000   0.000   0.000
  0.000   0.000   0.000   0.000   0.089   0.000   0.000   0.000
  0.000   0.000   0.000   0.000   0.000   0.000   0.000   0.000
  0.000   0.000   0.000   0.000   0.000   0.000   0.000   0.000
  0.000   0.000   0.000   0.000   0.000   0.000   0.000   0.000
  0.000   0.000   0.000   0.000   0.000   0.000   0.000   0.000
  0.000   0.000   0.000   0.000   0.000   0.000   0.000   0.000
  0.000   0.000   0.000   0.000   0.000   0.000   0.000   0.000
  0.000   0.000   0.000   0.000   0.000   0.000   0.000   0.000
  0.000   0.000   0.000   0.000   0.000   0.000   0.000   0.000
 total augmentation occupancy for first ion, spin component:           1
  0.640   0.000   0.081   0.000   0.047  -0.519   0.000  -0.020   0.000  -0.012   0.000   0.000   0.000   0.000   0.000   0.000
  0.000   0.706   0.000   0.093   0.000   0.000  -0.535   0.000  -0.024   0.000   0.000   0.000   0.000   0.000   0.000   0.000
  0.081   0.000   0.722   0.000  -0.029  -0.020   0.000  -0.539   0.000   0.007   0.000   0.000   0.000   0.000   0.000   0.000
  0.000   0.093   0.000   0.640   0.000   0.000  -0.024   0.000  -0.519   0.000   0.000   0.000   0.000   0.000   0.000   0.000
  0.047   0.000  -0.029   0.000   0.755  -0.012   0.000   0.007   0.000  -0.548   0.000   0.000   0.000   0.000   0.000   0.000
 -0.519   0.000  -0.020   0.000  -0.012   0.465   0.000  -0.014   0.000  -0.008   0.000   0.000   0.000   0.000   0.000   0.000
  0.000  -0.535   0.000  -0.024   0.000   0.000   0.453   0.000  -0.017   0.000   0.000   0.000   0.000   0.000   0.000   0.000
 -0.020   0.000  -0.539   0.000   0.007  -0.014   0.000   0.450   0.000   0.005   0.000   0.000   0.000   0.000   0.000   0.000
  0.000  -0.024   0.000  -0.519   0.000   0.000  -0.017   0.000   0.465   0.000   0.000   0.000   0.000   0.000   0.000   0.000
 -0.012   0.000   0.007   0.000  -0.548  -0.008   0.000   0.005   0.000   0.444   0.000   0.000   0.000   0.000   0.000   0.000
  0.000   0.000   0.000   0.000   0.000   0.000   0.000   0.000   0.000   0.000   1.403  -0.279   0.000   0.000   0.000   0.000
  0.000   0.000   0.000   0.000   0.000   0.000   0.000   0.000   0.000   0.000  -0.279   0.060   0.000   0.000   0.000   0.000
  0.000   0.000   0.000   0.000   0.000   0.000   0.000   0.000   0.000   0.000   0.000   0.000   0.301   0.000   0.000   0.012
  0.000   0.000   0.000   0.000   0.000   0.000   0.000   0.000   0.000   0.000   0.000   0.000   0.000   0.301   0.000   0.000
  0.000   0.000   0.000   0.000   0.000   0.000   0.000   0.000   0.000   0.000   0.000   0.000   0.000   0.000   0.301   0.000
  0.000   0.000   0.000   0.000   0.000   0.000   0.000   0.000   0.000   0.000   0.000   0.000   0.012   0.000   0.000   0.001
  0.000   0.000   0.000   0.000   0.000   0.000   0.000   0.000   0.000   0.000   0.000   0.000   0.000   0.012   0.000   0.000
  0.000   0.000   0.000   0.000   0.000   0.000   0.000   0.000   0.000   0.000   0.000   0.000   0.000   0.000   0.012   0.000


------------------------ aborting loop because EDIFF is reached ----------------------------------------


    CHARGE:  cpu time    0.09: real time    0.10
    FORLOC:  cpu time    0.00: real time    0.00
    FORNL :  cpu time    0.14: real time    0.14
    STRESS:  cpu time    0.43: real time    0.43
    FORCOR:  cpu time    0.06: real time    0.06
    FORHAR:  cpu time    0.02: real time    0.02
    MIXING:  cpu time    0.00: real time    0.00

  FORCE on cell =-STRESS in cart. coord.  units (eV):
  Direction    XX          YY          ZZ          XY          YZ          ZX
  --------------------------------------------------------------------------------------
  Alpha Z    30.58334    30.58334    30.58334
  Ewald     -65.96700   -65.96700   -65.96700     0.00000     0.00000     0.00000
  Hartree     0.19548     0.19548     0.19548     0.00000     0.00000     0.00000
  E(xc)     -22.45651   -22.45651   -22.45651     0.00000     0.00000     0.00000
  Local       3.84800     3.84800     3.84800     0.00000     0.00000     0.00000
  n-local    -7.90774    -8.61518    -5.49465     1.72444    -2.23531    -1.66475
  augment     2.91590     2.91590     2.91590     0.00000     0.00000     0.00000
  Kinetic    59.60771    60.04484    54.74212    -0.38880     2.95370     1.72583
  Fock        0.00000     0.00000     0.00000     0.00000     0.00000     0.00000
  -------------------------------------------------------------------------------------
  Total      -0.08842    -0.08842    -0.08842     0.00000     0.00000     0.00000
  in kB      -7.81308    -7.81308    -7.81308     0.00000     0.00000     0.00000
  external pressure =       -7.81 kB  Pullay stress =        0.00 kB


 VOLUME and BASIS-vectors are now :
 -----------------------------------------------------------------------------
  energy-cutoff  :      350.00
  volume of cell :       18.13
      direct lattice vectors                 reciprocal lattice vectors
     2.866544087  0.000000000  0.000000000     0.348852126  0.123337852  0.213627426
    -0.955514696  2.702603683  0.000000000     0.000000000  0.370013556  0.213627426
    -0.955514696 -1.351301841  2.340523446     0.000000000  0.000000000  0.427254853

  length of vectors
     2.866544087  2.866544087  2.866544087     0.427254853  0.427254853  0.427254853


 FORCES acting on ions
    electron-ion (+dipol)            ewald-force                    non-local-force                 convergence-correction
 -----------------------------------------------------------------------------------------------
   0.427E-15 0.112E-14 0.361E-14   -.279E-15 -.214E-15 0.640E-15   0.993E-23 -.662E-23 0.000E+00   -.224E-15 -.200E-15 0.576E-16
 -----------------------------------------------------------------------------------------------
   0.427E-15 0.112E-14 0.361E-14   -.279E-15 -.214E-15 0.640E-15   0.993E-23 -.662E-23 0.000E+00   -.224E-15 -.200E-15 0.576E-16
 
 
 POSITION                                       TOTAL-FORCE (eV/Angst)
 -----------------------------------------------------------------------------------
      0.00000      0.00000      0.00000         0.000000      0.000000      0.000000
 -----------------------------------------------------------------------------------
    total drift:                                0.000000      0.000000      0.000000


--------------------------------------------------------------------------------------------------------



  FREE ENERGIE OF THE ION-ELECTRON SYSTEM (eV)
  ---------------------------------------------------
  free  energy   TOTEN  =       -11.856335 eV

  energy  without entropy=      -11.856169  energy(sigma->0) =      -11.856280
 


--------------------------------------------------------------------------------------------------------


    POTLOK:  cpu time    0.07: real time    0.07


--------------------------------------------------------------------------------------------------------


 writing wavefunctions
     LOOP+:  cpu time   14.38: real time   19.00
    4ORBIT:  cpu time    0.00: real time    0.00

 total amount of memory used by VASP on root node    41076. kBytes
========================================================================

   base      :      30000. kBytes
   nonl-proj :       3993. kBytes
   fftplans  :       1676. kBytes
   grid      :       2560. kBytes
   one-center:         15. kBytes
   wavefun   :       2832. kBytes
 
  
  
 General timing and accounting informations for this job:
 ========================================================
  
                  Total CPU time used (sec):       14.850
                            User time (sec):       14.737
                          System time (sec):        0.113
                         Elapsed time (sec):       24.047
  
                   Maximum memory used (kb):           0.
                   Average memory used (kb):           0.
  
                          Minor page faults:         9201
                          Major page faults:            0
                 Voluntary context switches:          740
