 vasp.5.2.12 11Nov11 complex                                                    
  
 executed on             LinuxIFC date 2012.10.17  10:14:54
 running on    1 nodes
 distr:  one band on    1 nodes,    1 groups


--------------------------------------------------------------------------------------------------------


 INCAR:
 POTCAR:    PAW_PBE Ta 17Jan2003                  
 POTCAR:    PAW_PBE Ta 17Jan2003                  
   VRHFIN =Ta:  6s5d                                                            
   LEXCH  = PE                                                                  
   EATOM  =   130.6506 eV,    9.6025 Ry                                         
                                                                                
   TITEL  = PAW_PBE Ta 17Jan2003                                                
   LULTRA =        F    use ultrasoft PP ?                                      
   IUNSCR =        1    unscreen: 0-lin 1-nonlin 2-no                           
   RPACOR =    2.330    partial core radius                                     
   POMASS =  180.948; ZVAL   =    5.000    mass and valenz                      
   RCORE  =    2.900    outmost cutoff radius                                   
   RWIGS  =    2.840; RWIGS  =    1.503    wigner-seitz radius (au A)           
   ENMAX  =  223.667; ENMIN  =  167.750 eV                                      
   RCLOC  =    2.205    cutoff for local pot                                    
   LCOR   =        T    correct aug charges                                     
   LPAW   =        T    paw PP                                                  
   EAUG   =  332.075                                                            
   DEXC   =    -.049                                                            
   RMAX   =    3.083    core radius for proj-oper                               
   RAUG   =    1.300    factor for augmentation sphere                          
   RDEP   =    3.060    radius for radial grids                                 
   QCUT   =   -4.055; QGAM   =    8.109    optimization parameters              
                                                                                
   Description                                                                  
     l     E      TYP  RCUT    TYP  RCUT                                        
     2   .000     23  2.500                                                     
     2   .000     23  2.500                                                     
     0   .000     23  2.500                                                     
     0   .000     23  2.500                                                     
     1   .000     23  2.900                                                     
     1  2.000     23  2.900                                                     
     3   .000      7   .000                                                     
  local pseudopotential read in
  partial core-charges read in
  atomic valenz-charges read in
  non local Contribution for L=           2  read in
    real space projection operators read in
  non local Contribution for L=           2  read in
    real space projection operators read in
  non local Contribution for L=           0  read in
    real space projection operators read in
  non local Contribution for L=           0  read in
    real space projection operators read in
  non local Contribution for L=           1  read in
    real space projection operators read in
  non local Contribution for L=           1  read in
    real space projection operators read in
    PAW grid and wavefunctions read in
 
   number of l-projection  operators is LMAX  =           6
   number of lm-projection operators is LMMAX =          18
 
  PAW_PBE Ta 17Jan2003                  :
 energy of atom  1       EATOM= -130.6506
 kinetic energy error for atom=    0.0044 (will be added to EATOM!!)
 
 
 POSCAR: Ta                                      
  positions in cartesian coordinates
  No initial velocities read in
 exchange correlation table for  LEXCH =        8
   RHO(1)=    0.500       N(1)  =     2000
   RHO(2)=  100.500       N(2)  =     4000
 


--------------------------------------------------------------------------------------------------------


 ion  position               nearest neighbor table
   1  0.000  0.000  0.000-
 
  LATTYP: Found a body centered cubic cell.
 ALAT       =     3.3100000000
  
  Lattice vectors:
  
 A1 = (   2.8665440865,   0.0000000000,   0.0000000000)
 A2 = (  -0.9555146955,   2.7026036829,   0.0000000000)
 A3 = (  -0.9555146955,  -1.3513018414,   2.3405234457)
 Subroutine PRICEL returns:
 Original cell was already a primitive cell.
 

Analysis of symmetry for initial positions (statically):

 Routine SETGRP: Setting up the symmetry group for a 
 body centered cubic supercell.


 Subroutine GETGRP returns: Found 48 space group operations
 (whereof 48 operations were pure point group operations)
 out of a pool of 48 trial point group operations.


The static configuration has the point symmetry O_h .

Analysis of symmetry for dynamics (positions and initial velocities):

 Subroutine DYNSYM returns: Found 48 space group operations
 (whereof 48 operations were pure point group operations)
 out of a pool of 48 trial space group operations
 (whereof 48 operations were pure point group operations)
 and found also     1 'primitive' translations


The dynamic configuration has the point symmetry O_h .

Analysis of magnetic symmetry:

 Subroutine MAGSYM returns: Found 48 space group operations
 (whereof 48 operations were pure point group operations)
 out of a pool of 48 trial space group operations
 (whereof 48 operations were pure point group operations)
 and found also     1 'primitive' translations


The magnetic configuration has the point symmetry O_h .
 
 
 KPOINTS: KPOINTS created by Atomic Simulation Env

Automatic generation of k-mesh.
 
 Subroutine IBZKPT returns following result:
 ===========================================
 
 Found    100 irreducible k-points:
 
 Following reciprocal coordinates:
            Coordinates               Weight
  0.035714  0.035714  0.035714      8.000000
  0.107143  0.035714  0.035714     24.000000
  0.178571  0.035714  0.035714     24.000000
  0.250000  0.035714  0.035714     24.000000
  0.321429  0.035714  0.035714     24.000000
  0.392857  0.035714  0.035714     24.000000
  0.464286  0.035714  0.035714     12.000000
 -0.035714  0.035714  0.035714      6.000000
  0.107143  0.107143  0.035714     24.000000
  0.178571  0.107143  0.035714     48.000000
  0.250000  0.107143  0.035714     48.000000
  0.321429  0.107143  0.035714     48.000000
  0.392857  0.107143  0.035714     48.000000
 -0.107143  0.107143  0.035714     24.000000
  0.178571  0.178571  0.035714     24.000000
  0.250000  0.178571  0.035714     48.000000
  0.321429  0.178571  0.035714     48.000000
  0.392857  0.178571  0.035714     24.000000
 -0.178571  0.178571  0.035714     24.000000
 -0.107143  0.178571  0.035714     24.000000
  0.250000  0.250000  0.035714     24.000000
  0.321429  0.250000  0.035714     48.000000
 -0.250000  0.250000  0.035714     24.000000
 -0.178571  0.250000  0.035714     48.000000
  0.321429  0.321429  0.035714      8.000000
 -0.321429  0.321429  0.035714     24.000000
 -0.250000  0.321429  0.035714     48.000000
 -0.178571  0.321429  0.035714     24.000000
 -0.392857  0.392857  0.035714     24.000000
 -0.321429  0.392857  0.035714     48.000000
 -0.250000  0.392857  0.035714     48.000000
 -0.464286  0.464286  0.035714     24.000000
 -0.392857  0.464286  0.035714     48.000000
 -0.321429  0.464286  0.035714     48.000000
 -0.250000  0.464286  0.035714     24.000000
 -0.464286 -0.464286  0.035714     24.000000
 -0.392857 -0.464286  0.035714     48.000000
 -0.321429 -0.464286  0.035714     48.000000
 -0.392857 -0.392857  0.035714     24.000000
 -0.321429 -0.392857  0.035714     24.000000
  0.107143  0.107143  0.107143      8.000000
  0.178571  0.107143  0.107143     24.000000
  0.250000  0.107143  0.107143     24.000000
  0.321429  0.107143  0.107143     24.000000
  0.392857  0.107143  0.107143     12.000000
 -0.107143  0.107143  0.107143      6.000000
  0.178571  0.178571  0.107143     24.000000
  0.250000  0.178571  0.107143     48.000000
  0.321429  0.178571  0.107143     48.000000
 -0.178571  0.178571  0.107143     24.000000
  0.250000  0.250000  0.107143     24.000000
  0.321429  0.250000  0.107143     24.000000
 -0.250000  0.250000  0.107143     24.000000
 -0.178571  0.250000  0.107143     24.000000
 -0.321429  0.321429  0.107143     24.000000
 -0.250000  0.321429  0.107143     48.000000
 -0.392857  0.392857  0.107143     24.000000
 -0.321429  0.392857  0.107143     48.000000
 -0.250000  0.392857  0.107143     24.000000
 -0.464286  0.464286  0.107143     24.000000
 -0.392857  0.464286  0.107143     48.000000
 -0.321429  0.464286  0.107143     48.000000
 -0.464286 -0.464286  0.107143     24.000000
 -0.392857 -0.464286  0.107143     48.000000
 -0.321429 -0.464286  0.107143     24.000000
 -0.392857 -0.392857  0.107143     24.000000
  0.178571  0.178571  0.178571      8.000000
  0.250000  0.178571  0.178571     24.000000
  0.321429  0.178571  0.178571     12.000000
 -0.178571  0.178571  0.178571      6.000000
  0.250000  0.250000  0.178571     24.000000
 -0.250000  0.250000  0.178571     24.000000
 -0.321429  0.321429  0.178571     24.000000
 -0.250000  0.321429  0.178571     24.000000
 -0.392857  0.392857  0.178571     24.000000
 -0.321429  0.392857  0.178571     48.000000
 -0.464286  0.464286  0.178571     24.000000
 -0.392857  0.464286  0.178571     48.000000
 -0.321429  0.464286  0.178571     24.000000
 -0.464286 -0.464286  0.178571     24.000000
 -0.392857 -0.464286  0.178571     48.000000
 -0.392857 -0.392857  0.178571      8.000000
  0.250000  0.250000  0.250000      2.000000
 -0.250000  0.250000  0.250000      6.000000
 -0.321429  0.321429  0.250000     24.000000
 -0.392857  0.392857  0.250000     24.000000
 -0.321429  0.392857  0.250000     24.000000
 -0.464286  0.464286  0.250000     24.000000
 -0.392857  0.464286  0.250000     48.000000
 -0.464286 -0.464286  0.250000     24.000000
 -0.392857 -0.464286  0.250000     24.000000
 -0.321429  0.321429  0.321429      6.000000
 -0.392857  0.392857  0.321429     24.000000
 -0.464286  0.464286  0.321429     24.000000
 -0.392857  0.464286  0.321429     24.000000
 -0.464286 -0.464286  0.321429     24.000000
 -0.392857  0.392857  0.392857      6.000000
 -0.464286  0.464286  0.392857     24.000000
 -0.464286 -0.464286  0.392857      8.000000
 -0.464286  0.464286  0.464286      6.000000
 
 Following cartesian coordinates:
            Coordinates               Weight
  0.012459  0.017620  0.030518      8.000000
  0.037377  0.026430  0.045777     24.000000
  0.062295  0.035239  0.061036     24.000000
  0.087213  0.044049  0.076296     24.000000
  0.112131  0.052859  0.091555     24.000000
  0.137049  0.061669  0.106814     24.000000
  0.161967  0.070479  0.122073     12.000000
 -0.012459  0.008810  0.015259      6.000000
  0.037377  0.052859  0.061036     24.000000
  0.062295  0.061669  0.076296     48.000000
  0.087213  0.070479  0.091555     48.000000
  0.112131  0.079289  0.106814     48.000000
  0.137049  0.088098  0.122073     48.000000
 -0.037377  0.026430  0.015259     24.000000
  0.062295  0.088098  0.091555     24.000000
  0.087213  0.096908  0.106814     48.000000
  0.112131  0.105718  0.122073     48.000000
  0.137049  0.114528  0.137332     24.000000
 -0.062295  0.044049  0.015259     24.000000
 -0.037377  0.052859  0.030518     24.000000
  0.087213  0.123338  0.122073     24.000000
  0.112131  0.132148  0.137332     48.000000
 -0.087213  0.061669  0.015259     24.000000
 -0.062295  0.070479  0.030518     48.000000
  0.112131  0.158577  0.152591      8.000000
 -0.112131  0.079289  0.015259     24.000000
 -0.087213  0.088098  0.030518     48.000000
 -0.062295  0.096908  0.045777     24.000000
 -0.137049  0.096908  0.015259     24.000000
 -0.112131  0.105718  0.030518     48.000000
 -0.087213  0.114528  0.045777     48.000000
 -0.161967  0.114528  0.015259     24.000000
 -0.137049  0.123338  0.030518     48.000000
 -0.112131  0.132148  0.045777     48.000000
 -0.087213  0.140958  0.061036     24.000000
 -0.161967 -0.229056 -0.183109     24.000000
 -0.137049 -0.220246 -0.167850     48.000000
 -0.112131 -0.211436 -0.152591     48.000000
 -0.137049 -0.193817 -0.152591     24.000000
 -0.112131 -0.185007 -0.137332     24.000000
  0.037377  0.052859  0.091555      8.000000
  0.062295  0.061669  0.106814     24.000000
  0.087213  0.070479  0.122073     24.000000
  0.112131  0.079289  0.137332     24.000000
  0.137049  0.088098  0.152591     12.000000
 -0.037377  0.026430  0.045777      6.000000
  0.062295  0.088098  0.122073     24.000000
  0.087213  0.096908  0.137332     48.000000
  0.112131  0.105718  0.152591     48.000000
 -0.062295  0.044049  0.045777     24.000000
  0.087213  0.123338  0.152591     24.000000
  0.112131  0.132148  0.167850     24.000000
 -0.087213  0.061669  0.045777     24.000000
 -0.062295  0.070479  0.061036     24.000000
 -0.112131  0.079289  0.045777     24.000000
 -0.087213  0.088098  0.061036     48.000000
 -0.137049  0.096908  0.045777     24.000000
 -0.112131  0.105718  0.061036     48.000000
 -0.087213  0.114528  0.076296     24.000000
 -0.161967  0.114528  0.045777     24.000000
 -0.137049  0.123338  0.061036     48.000000
 -0.112131  0.132148  0.076296     48.000000
 -0.161967 -0.229056 -0.152591     24.000000
 -0.137049 -0.220246 -0.137332     48.000000
 -0.112131 -0.211436 -0.122073     24.000000
 -0.137049 -0.193817 -0.122073     24.000000
  0.062295  0.088098  0.152591      8.000000
  0.087213  0.096908  0.167850     24.000000
  0.112131  0.105718  0.183109     12.000000
 -0.062295  0.044049  0.076296      6.000000
  0.087213  0.123338  0.183109     24.000000
 -0.087213  0.061669  0.076296     24.000000
 -0.112131  0.079289  0.076296     24.000000
 -0.087213  0.088098  0.091555     24.000000
 -0.137049  0.096908  0.076296     24.000000
 -0.112131  0.105718  0.091555     48.000000
 -0.161967  0.114528  0.076296     24.000000
 -0.137049  0.123338  0.091555     48.000000
 -0.112131  0.132148  0.106814     24.000000
 -0.161967 -0.229056 -0.122073     24.000000
 -0.137049 -0.220246 -0.106814     48.000000
 -0.137049 -0.193817 -0.091555      8.000000
  0.087213  0.123338  0.213627      2.000000
 -0.087213  0.061669  0.106814      6.000000
 -0.112131  0.079289  0.106814     24.000000
 -0.137049  0.096908  0.106814     24.000000
 -0.112131  0.105718  0.122073     24.000000
 -0.161967  0.114528  0.106814     24.000000
 -0.137049  0.123338  0.122073     48.000000
 -0.161967 -0.229056 -0.091555     24.000000
 -0.137049 -0.220246 -0.076296     24.000000
 -0.112131  0.079289  0.137332      6.000000
 -0.137049  0.096908  0.137332     24.000000
 -0.161967  0.114528  0.137332     24.000000
 -0.137049  0.123338  0.152591     24.000000
 -0.161967 -0.229056 -0.061036     24.000000
 -0.137049  0.096908  0.167850      6.000000
 -0.161967  0.114528  0.167850     24.000000
 -0.161967 -0.229056 -0.030518      8.000000
 -0.161967  0.114528  0.198368      6.000000
 


--------------------------------------------------------------------------------------------------------




 Dimension of arrays:
   k-points           NKPTS =    100   k-points in BZ     NKDIM =    100   number of bands    NBANDS=      6
   number of dos      NEDOS =    301   number of ions     NIONS =      1
   non local maximal  LDIM  =      6   non local SUM 2l+1 LMDIM =     18
   total plane-waves  NPLWV =   5832
   max r-space proj   IRMAX =      1   max aug-charges    IRDMAX=  22091
   dimension x,y,z NGX =    18 NGY =   18 NGZ =   18
   dimension x,y,z NGXF=    36 NGYF=   36 NGZF=   36
   support grid    NGXF=    36 NGYF=   36 NGZF=   36
   ions per type =               1
 NGX,Y,Z   is equivalent  to a cutoff of  10.44, 10.44, 10.44 a.u.
 NGXF,Y,Z  is equivalent  to a cutoff of  20.88, 20.88, 20.88 a.u.


 I would recommend the setting:
   dimension x,y,z NGX =    17 NGY =   17 NGZ =   17
 SYSTEM =  unknown system                          
 POSCAR =  Ta                                      

 Startparameter for this run:
   NWRITE =      2    write-flag & timer
   PREC   = accura    normal or accurate (medium, high low for compatibility)
   ISTART =      0    job   : 0-new  1-cont  2-samecut
   ICHARG =      2    charge: 1-file 2-atom 10-const
   ISPIN  =      2    spin polarized calculation?
   LNONCOLLINEAR =      F non collinear calculations
   LSORBIT =      F    spin-orbit coupling
   INIWAV =      1    electr: 0-lowe 1-rand  2-diag
   LASPH  =      F    aspherical Exc in radial PAW
   METAGGA=      F    non-selfconsistent MetaGGA calc.

 Electronic Relaxation 1
   ENCUT  =  350.0 eV  25.72 Ry    5.07 a.u.   4.37  4.37  4.37*2*pi/ulx,y,z
   ENINI  =  350.0     initial cutoff
   ENAUG  =  332.1 eV  augmentation charge cutoff
   NELM   =     60;   NELMIN=  2; NELMDL= -5     # of ELM steps 
   EDIFF  = 0.1E-03   stopping-criterion for ELM
   LREAL  =      F    real-space projection
   NLSPLINE    = F    spline interpolate recip. space projectors
   LCOMPAT=      F    compatible to vasp.4.4
   GGA_COMPAT  = T    GGA compatible to vasp.4.4-vasp.4.6
   LMAXPAW     = -100 max onsite density
   LMAXMIX     =    2 max onsite mixed and CHGCAR
   VOSKOWN=      0    Vosko Wilk Nusair interpolation
   ROPT   =    0.00000
 Ionic relaxation
   EDIFFG = 0.1E-02   stopping-criterion for IOM
   NSW    =      0    number of steps for IOM
   NBLOCK =      1;   KBLOCK =      1    inner block; outer block 
   IBRION =     -1    ionic relax: 0-MD 1-quasi-New 2-CG
   NFREE  =      0    steps in history (QN), initial steepest desc. (CG)
   ISIF   =      2    stress and relaxation
   IWAVPR =     10    prediction:  0-non 1-charg 2-wave 3-comb
   ISYM   =      2    0-nonsym 1-usesym 2-fastsym
   LCORR  =      T    Harris-Foulkes like correction to forces

   POTIM  = 0.5000    time-step for ionic-motion
   TEIN   =    0.0    initial temperature
   TEBEG  =    0.0;   TEEND  =   0.0 temperature during run
   SMASS  =  -3.00    Nose mass-parameter (am)
   estimated Nose-frequenzy (Omega)   =  0.10E-29 period in steps =****** mass=  -0.188E-27a.u.
   SCALEE = 1.0000    scale energy and forces
   NPACO  =    256;   APACO  = 16.0  distance and # of slots for P.C.
   PSTRESS=    0.0 pullay stress

  Mass of Ions in am
   POMASS = 180.95
  Ionic Valenz
   ZVAL   =   5.00
  Atomic Wigner-Seitz radii
   RWIGS  =  -1.00
  virtual crystal weights 
   VCA    =   1.00
   NELECT =       5.0000    total number of electrons
   NUPDOWN=      -1.0000    fix difference up-down

 DOS related values:
   EMIN   =  10.00;   EMAX   =-10.00  energy-range for DOS
   EFERMI =   0.00
   ISMEAR =     1;   SIGMA  =   0.05  broadening in eV -4-tet -1-fermi 0-gaus

 Electronic relaxation 2 (details)
   IALGO  =     38    algorithm
   LDIAG  =      T    sub-space diagonalisation (order eigenvalues)
   LSUBROT=      T    optimize rotation matrix (better conditioning)
   TURBO    =      0    0=normal 1=particle mesh
   IRESTART =      0    0=no restart 2=restart with 2 vectors
   NREBOOT  =      0    no. of reboots
   NMIN     =      0    reboot dimension
   EREF     =   0.00    reference energy to select bands
   IMIX   =      4    mixing-type and parameters
     AMIX     =   0.40;   BMIX     =  1.00
     AMIX_MAG =   1.60;   BMIX_MAG =  1.00
     AMIN     =   0.10
     WC   =   100.;   INIMIX=   1;  MIXPRE=   1

 Intra band minimization:
   WEIMIN = 0.0000     energy-eigenvalue tresh-hold
   EBREAK =  0.42E-05  absolut break condition
   DEPER  =   0.30     relativ break condition  

   TIME   =   0.40     timestep for ELM

  volume/ion in A,a.u.               =      18.13       122.36
  Fermi-wavevector in a.u.,A,eV,Ry     =   1.065566  2.013627 15.448462  1.135430
  Thomas-Fermi vector in A             =   2.201121
 
 Write flags
   LWAVE  =      T    write WAVECAR
   LCHARG =      T    write CHGCAR
   LVTOT  =      F    write LOCPOT, total local potential
   LVHAR  =      F    write LOCPOT, Hartree potential only
   LELF   =      F    write electronic localiz. function (ELF)
   LORBIT =     11    0 simple, 1 ext, 2 COOP (PROOUT)


 Dipole corrections
   LMONO  =      F    monopole corrections only (constant potential shift)
   LDIPOL =      F    correct potential (dipole corrections)
   IDIPOL =      0    1-x, 2-y, 3-z, 4-all directions 
   EPSILON=  1.0000000 bulk dielectric constant

 Exchange correlation treatment:
   GGA     =    --    GGA type
   LEXCH   =     8    internal setting for exchange type
   VOSKOWN=      0    Vosko Wilk Nusair interpolation
   LHFCALC =     F    Hartree Fock is set to
   LHFONE  =     F    Hartree Fock one center treatment
   AEXX    =    0.0000 exact exchange contribution

 Linear response parameters
   LEPSILON=     F    determine dielectric tensor
   LRPA    =     F    only Hartree local field effects (RPA)
   LNABLA  =     F    use nabla operator in PAW spheres
   LVEL    =     F    velocity operator in full k-point grid
   LINTERFAST=   F  fast interpolation
   KINTER  =     0    interpolate to denser k-point grid
   CSHIFT  =0.1000    complex shift for real part using Kramers Kronig
   OMEGAMAX=  -1.0    maximum frequency
   RTIME   =    0.100 relaxation time in fs

 Orbital magnetization related:
   ORBITALMAG=     F  switch on orbital magnetization
   LCHIMAG   =     F  perturbation theory with respect to B field
   DQ        =  0.001000  dq finite difference perturbation B field



--------------------------------------------------------------------------------------------------------


 Static calculation
 charge density and potential will be updated during run
 spin polarized calculation
 Variant of blocked Davidson
 Davidson routine will perform the subspace rotation
 perform sub-space diagonalisation
    after iterative eigenvector-optimisation
 modified Broyden-mixing scheme, WC =      100.0
 initial mixing is a Kerker type mixing with AMIX =  0.4000 and BMIX =      1.0000
 Hartree-type preconditioning will be used
 using additional bands            3
 reciprocal scheme for non local part
 use partial core corrections
 calculate Harris-corrections to forces 
   (improved forces if not selfconsistent)
 use gradient corrections 
 use of overlap-Matrix (Vanderbilt PP)
 Methfessel and Paxton  Order N= 1 SIGMA  =   0.05


--------------------------------------------------------------------------------------------------------


  energy-cutoff  :      350.00
  volume of cell :       18.13
      direct lattice vectors                 reciprocal lattice vectors
     2.866544087  0.000000000  0.000000000     0.348852126  0.123337852  0.213627426
    -0.955514696  2.702603683  0.000000000     0.000000000  0.370013556  0.213627426
    -0.955514696 -1.351301841  2.340523446     0.000000000  0.000000000  0.427254853

  length of vectors
     2.866544087  2.866544087  2.866544087     0.427254853  0.427254853  0.427254853


 
 k-points in units of 2pi/SCALE and weight: KPOINTS created by Atomic Simulation Env
   0.01245900  0.01761969  0.03051820       0.003
   0.03737701  0.02642954  0.04577731       0.009
   0.06229502  0.03523939  0.06103641       0.009
   0.08721303  0.04404923  0.07629551       0.009
   0.11213104  0.05285908  0.09155461       0.009
   0.13704905  0.06166893  0.10681371       0.009
   0.16196706  0.07047877  0.12207282       0.004
  -0.01245900  0.00880985  0.01525910       0.002
   0.03737701  0.05285908  0.06103641       0.009
   0.06229502  0.06166893  0.07629551       0.017
   0.08721303  0.07047877  0.09155461       0.017
   0.11213104  0.07928862  0.10681371       0.017
   0.13704905  0.08809847  0.12207282       0.017
  -0.03737701  0.02642954  0.01525910       0.009
   0.06229502  0.08809847  0.09155461       0.009
   0.08721303  0.09690831  0.10681371       0.017
   0.11213104  0.10571816  0.12207282       0.017
   0.13704905  0.11452801  0.13733192       0.009
  -0.06229502  0.04404923  0.01525910       0.009
  -0.03737701  0.05285908  0.03051820       0.009
   0.08721303  0.12333785  0.12207282       0.009
   0.11213104  0.13214770  0.13733192       0.017
  -0.08721303  0.06166893  0.01525910       0.009
  -0.06229502  0.07047877  0.03051820       0.017
   0.11213104  0.15857724  0.15259102       0.003
  -0.11213104  0.07928862  0.01525910       0.009
  -0.08721303  0.08809847  0.03051820       0.017
  -0.06229502  0.09690831  0.04577731       0.009
  -0.13704905  0.09690831  0.01525910       0.009
  -0.11213104  0.10571816  0.03051820       0.017
  -0.08721303  0.11452801  0.04577731       0.017
  -0.16196706  0.11452801  0.01525910       0.009
  -0.13704905  0.12333785  0.03051820       0.017
  -0.11213104  0.13214770  0.04577731       0.017
  -0.08721303  0.14095755  0.06103641       0.009
  -0.16196706 -0.22905601 -0.18310922       0.009
  -0.13704905 -0.22024616 -0.16785012       0.017
  -0.11213104 -0.21143632 -0.15259102       0.017
  -0.13704905 -0.19381662 -0.15259102       0.009
  -0.11213104 -0.18500678 -0.13733192       0.009
   0.03737701  0.05285908  0.09155461       0.003
   0.06229502  0.06166893  0.10681371       0.009
   0.08721303  0.07047877  0.12207282       0.009
   0.11213104  0.07928862  0.13733192       0.009
   0.13704905  0.08809847  0.15259102       0.004
  -0.03737701  0.02642954  0.04577731       0.002
   0.06229502  0.08809847  0.12207282       0.009
   0.08721303  0.09690831  0.13733192       0.017
   0.11213104  0.10571816  0.15259102       0.017
  -0.06229502  0.04404923  0.04577731       0.009
   0.08721303  0.12333785  0.15259102       0.009
   0.11213104  0.13214770  0.16785012       0.009
  -0.08721303  0.06166893  0.04577731       0.009
  -0.06229502  0.07047877  0.06103641       0.009
  -0.11213104  0.07928862  0.04577731       0.009
  -0.08721303  0.08809847  0.06103641       0.017
  -0.13704905  0.09690831  0.04577731       0.009
  -0.11213104  0.10571816  0.06103641       0.017
  -0.08721303  0.11452801  0.07629551       0.009
  -0.16196706  0.11452801  0.04577731       0.009
  -0.13704905  0.12333785  0.06103641       0.017
  -0.11213104  0.13214770  0.07629551       0.017
  -0.16196706 -0.22905601 -0.15259102       0.009
  -0.13704905 -0.22024616 -0.13733192       0.017
  -0.11213104 -0.21143632 -0.12207282       0.009
  -0.13704905 -0.19381662 -0.12207282       0.009
   0.06229502  0.08809847  0.15259102       0.003
   0.08721303  0.09690831  0.16785012       0.009
   0.11213104  0.10571816  0.18310922       0.004
  -0.06229502  0.04404923  0.07629551       0.002
   0.08721303  0.12333785  0.18310922       0.009
  -0.08721303  0.06166893  0.07629551       0.009
  -0.11213104  0.07928862  0.07629551       0.009
  -0.08721303  0.08809847  0.09155461       0.009
  -0.13704905  0.09690831  0.07629551       0.009
  -0.11213104  0.10571816  0.09155461       0.017
  -0.16196706  0.11452801  0.07629551       0.009
  -0.13704905  0.12333785  0.09155461       0.017
  -0.11213104  0.13214770  0.10681371       0.009
  -0.16196706 -0.22905601 -0.12207282       0.009
  -0.13704905 -0.22024616 -0.10681371       0.017
  -0.13704905 -0.19381662 -0.09155461       0.003
   0.08721303  0.12333785  0.21362743       0.001
  -0.08721303  0.06166893  0.10681371       0.002
  -0.11213104  0.07928862  0.10681371       0.009
  -0.13704905  0.09690831  0.10681371       0.009
  -0.11213104  0.10571816  0.12207282       0.009
  -0.16196706  0.11452801  0.10681371       0.009
  -0.13704905  0.12333785  0.12207282       0.017
  -0.16196706 -0.22905601 -0.09155461       0.009
  -0.13704905 -0.22024616 -0.07629551       0.009
  -0.11213104  0.07928862  0.13733192       0.002
  -0.13704905  0.09690831  0.13733192       0.009
  -0.16196706  0.11452801  0.13733192       0.009
  -0.13704905  0.12333785  0.15259102       0.009
  -0.16196706 -0.22905601 -0.06103641       0.009
  -0.13704905  0.09690831  0.16785012       0.002
  -0.16196706  0.11452801  0.16785012       0.009
  -0.16196706 -0.22905601 -0.03051820       0.003
  -0.16196706  0.11452801  0.19836832       0.002
 
 k-points in reciprocal lattice and weights: KPOINTS created by Atomic Simulation Env
   0.03571429  0.03571429  0.03571429       0.003
   0.10714286  0.03571429  0.03571429       0.009
   0.17857143  0.03571429  0.03571429       0.009
   0.25000000  0.03571429  0.03571429       0.009
   0.32142857  0.03571429  0.03571429       0.009
   0.39285714  0.03571429  0.03571429       0.009
   0.46428571  0.03571429  0.03571429       0.004
  -0.03571429  0.03571429  0.03571429       0.002
   0.10714286  0.10714286  0.03571429       0.009
   0.17857143  0.10714286  0.03571429       0.017
   0.25000000  0.10714286  0.03571429       0.017
   0.32142857  0.10714286  0.03571429       0.017
   0.39285714  0.10714286  0.03571429       0.017
  -0.10714286  0.10714286  0.03571429       0.009
   0.17857143  0.17857143  0.03571429       0.009
   0.25000000  0.17857143  0.03571429       0.017
   0.32142857  0.17857143  0.03571429       0.017
   0.39285714  0.17857143  0.03571429       0.009
  -0.17857143  0.17857143  0.03571429       0.009
  -0.10714286  0.17857143  0.03571429       0.009
   0.25000000  0.25000000  0.03571429       0.009
   0.32142857  0.25000000  0.03571429       0.017
  -0.25000000  0.25000000  0.03571429       0.009
  -0.17857143  0.25000000  0.03571429       0.017
   0.32142857  0.32142857  0.03571429       0.003
  -0.32142857  0.32142857  0.03571429       0.009
  -0.25000000  0.32142857  0.03571429       0.017
  -0.17857143  0.32142857  0.03571429       0.009
  -0.39285714  0.39285714  0.03571429       0.009
  -0.32142857  0.39285714  0.03571429       0.017
  -0.25000000  0.39285714  0.03571429       0.017
  -0.46428571  0.46428571  0.03571429       0.009
  -0.39285714  0.46428571  0.03571429       0.017
  -0.32142857  0.46428571  0.03571429       0.017
  -0.25000000  0.46428571  0.03571429       0.009
  -0.46428571 -0.46428571  0.03571429       0.009
  -0.39285714 -0.46428571  0.03571429       0.017
  -0.32142857 -0.46428571  0.03571429       0.017
  -0.39285714 -0.39285714  0.03571429       0.009
  -0.32142857 -0.39285714  0.03571429       0.009
   0.10714286  0.10714286  0.10714286       0.003
   0.17857143  0.10714286  0.10714286       0.009
   0.25000000  0.10714286  0.10714286       0.009
   0.32142857  0.10714286  0.10714286       0.009
   0.39285714  0.10714286  0.10714286       0.004
  -0.10714286  0.10714286  0.10714286       0.002
   0.17857143  0.17857143  0.10714286       0.009
   0.25000000  0.17857143  0.10714286       0.017
   0.32142857  0.17857143  0.10714286       0.017
  -0.17857143  0.17857143  0.10714286       0.009
   0.25000000  0.25000000  0.10714286       0.009
   0.32142857  0.25000000  0.10714286       0.009
  -0.25000000  0.25000000  0.10714286       0.009
  -0.17857143  0.25000000  0.10714286       0.009
  -0.32142857  0.32142857  0.10714286       0.009
  -0.25000000  0.32142857  0.10714286       0.017
  -0.39285714  0.39285714  0.10714286       0.009
  -0.32142857  0.39285714  0.10714286       0.017
  -0.25000000  0.39285714  0.10714286       0.009
  -0.46428571  0.46428571  0.10714286       0.009
  -0.39285714  0.46428571  0.10714286       0.017
  -0.32142857  0.46428571  0.10714286       0.017
  -0.46428571 -0.46428571  0.10714286       0.009
  -0.39285714 -0.46428571  0.10714286       0.017
  -0.32142857 -0.46428571  0.10714286       0.009
  -0.39285714 -0.39285714  0.10714286       0.009
   0.17857143  0.17857143  0.17857143       0.003
   0.25000000  0.17857143  0.17857143       0.009
   0.32142857  0.17857143  0.17857143       0.004
  -0.17857143  0.17857143  0.17857143       0.002
   0.25000000  0.25000000  0.17857143       0.009
  -0.25000000  0.25000000  0.17857143       0.009
  -0.32142857  0.32142857  0.17857143       0.009
  -0.25000000  0.32142857  0.17857143       0.009
  -0.39285714  0.39285714  0.17857143       0.009
  -0.32142857  0.39285714  0.17857143       0.017
  -0.46428571  0.46428571  0.17857143       0.009
  -0.39285714  0.46428571  0.17857143       0.017
  -0.32142857  0.46428571  0.17857143       0.009
  -0.46428571 -0.46428571  0.17857143       0.009
  -0.39285714 -0.46428571  0.17857143       0.017
  -0.39285714 -0.39285714  0.17857143       0.003
   0.25000000  0.25000000  0.25000000       0.001
  -0.25000000  0.25000000  0.25000000       0.002
  -0.32142857  0.32142857  0.25000000       0.009
  -0.39285714  0.39285714  0.25000000       0.009
  -0.32142857  0.39285714  0.25000000       0.009
  -0.46428571  0.46428571  0.25000000       0.009
  -0.39285714  0.46428571  0.25000000       0.017
  -0.46428571 -0.46428571  0.25000000       0.009
  -0.39285714 -0.46428571  0.25000000       0.009
  -0.32142857  0.32142857  0.32142857       0.002
  -0.39285714  0.39285714  0.32142857       0.009
  -0.46428571  0.46428571  0.32142857       0.009
  -0.39285714  0.46428571  0.32142857       0.009
  -0.46428571 -0.46428571  0.32142857       0.009
  -0.39285714  0.39285714  0.39285714       0.002
  -0.46428571  0.46428571  0.39285714       0.009
  -0.46428571 -0.46428571  0.39285714       0.003
  -0.46428571  0.46428571  0.46428571       0.002
 
 position of ions in fractional coordinates (direct lattice) 
   0.00000000  0.00000000  0.00000000
 
 position of ions in cartesian coordinates  (Angst):
   0.00000000  0.00000000  0.00000000
 


--------------------------------------------------------------------------------------------------------


 k-point  1 :  0.03570.03570.0357  plane waves:     273
 k-point  2 :  0.10710.03570.0357  plane waves:     272
 k-point  3 :  0.17860.03570.0357  plane waves:     272
 k-point  4 :  0.25000.03570.0357  plane waves:     270
 k-point  5 :  0.32140.03570.0357  plane waves:     273
 k-point  6 :  0.39290.03570.0357  plane waves:     269
 k-point  7 :  0.46430.03570.0357  plane waves:     272
 k-point  8 :  -.03570.03570.0357  plane waves:     261
 k-point  9 :  0.10710.10710.0357  plane waves:     270
 k-point 10 :  0.17860.10710.0357  plane waves:     271
 k-point 11 :  0.25000.10710.0357  plane waves:     267
 k-point 12 :  0.32140.10710.0357  plane waves:     271
 k-point 13 :  0.39290.10710.0357  plane waves:     270
 k-point 14 :  -.10710.10710.0357  plane waves:     274
 k-point 15 :  0.17860.17860.0357  plane waves:     273
 k-point 16 :  0.25000.17860.0357  plane waves:     272
 k-point 17 :  0.32140.17860.0357  plane waves:     270
 k-point 18 :  0.39290.17860.0357  plane waves:     268
 k-point 19 :  -.17860.17860.0357  plane waves:     271
 k-point 20 :  -.10710.17860.0357  plane waves:     276
 k-point 21 :  0.25000.25000.0357  plane waves:     272
 k-point 22 :  0.32140.25000.0357  plane waves:     272
 k-point 23 :  -.25000.25000.0357  plane waves:     271
 k-point 24 :  -.17860.25000.0357  plane waves:     273
 k-point 25 :  0.32140.32140.0357  plane waves:     273
 k-point 26 :  -.32140.32140.0357  plane waves:     267
 k-point 27 :  -.25000.32140.0357  plane waves:     269
 k-point 28 :  -.17860.32140.0357  plane waves:     273
 k-point 29 :  -.39290.39290.0357  plane waves:     273
 k-point 30 :  -.32140.39290.0357  plane waves:     270
 k-point 31 :  -.25000.39290.0357  plane waves:     271
 k-point 32 :  -.46430.46430.0357  plane waves:     272
 k-point 33 :  -.39290.46430.0357  plane waves:     269
 k-point 34 :  -.32140.46430.0357  plane waves:     271
 k-point 35 :  -.25000.46430.0357  plane waves:     274
 k-point 36 :  -.4643-.46430.0357  plane waves:     272
 k-point 37 :  -.3929-.46430.0357  plane waves:     269
 k-point 38 :  -.3214-.46430.0357  plane waves:     274
 k-point 39 :  -.3929-.39290.0357  plane waves:     272
 k-point 40 :  -.3214-.39290.0357  plane waves:     274
 k-point 41 :  0.10710.10710.1071  plane waves:     267
 k-point 42 :  0.17860.10710.1071  plane waves:     265
 k-point 43 :  0.25000.10710.1071  plane waves:     272
 k-point 44 :  0.32140.10710.1071  plane waves:     271
 k-point 45 :  0.39290.10710.1071  plane waves:     272
 k-point 46 :  -.10710.10710.1071  plane waves:     265
 k-point 47 :  0.17860.17860.1071  plane waves:     269
 k-point 48 :  0.25000.17860.1071  plane waves:     273
 k-point 49 :  0.32140.17860.1071  plane waves:     269
 k-point 50 :  -.17860.17860.1071  plane waves:     268
 k-point 51 :  0.25000.25000.1071  plane waves:     270
 k-point 52 :  0.32140.25000.1071  plane waves:     270
 k-point 53 :  -.25000.25000.1071  plane waves:     271
 k-point 54 :  -.17860.25000.1071  plane waves:     269
 k-point 55 :  -.32140.32140.1071  plane waves:     271
 k-point 56 :  -.25000.32140.1071  plane waves:     269
 k-point 57 :  -.39290.39290.1071  plane waves:     271
 k-point 58 :  -.32140.39290.1071  plane waves:     272
 k-point 59 :  -.25000.39290.1071  plane waves:     270
 k-point 60 :  -.46430.46430.1071  plane waves:     274
 k-point 61 :  -.39290.46430.1071  plane waves:     272
 k-point 62 :  -.32140.46430.1071  plane waves:     271
 k-point 63 :  -.4643-.46430.1071  plane waves:     274
 k-point 64 :  -.3929-.46430.1071  plane waves:     273
 k-point 65 :  -.3214-.46430.1071  plane waves:     272
 k-point 66 :  -.3929-.39290.1071  plane waves:     274
 k-point 67 :  0.17860.17860.1786  plane waves:     273
 k-point 68 :  0.25000.17860.1786  plane waves:     270
 k-point 69 :  0.32140.17860.1786  plane waves:     272
 k-point 70 :  -.17860.17860.1786  plane waves:     269
 k-point 71 :  0.25000.25000.1786  plane waves:     271
 k-point 72 :  -.25000.25000.1786  plane waves:     268
 k-point 73 :  -.32140.32140.1786  plane waves:     268
 k-point 74 :  -.25000.32140.1786  plane waves:     273
 k-point 75 :  -.39290.39290.1786  plane waves:     268
 k-point 76 :  -.32140.39290.1786  plane waves:     268
 k-point 77 :  -.46430.46430.1786  plane waves:     271
 k-point 78 :  -.39290.46430.1786  plane waves:     266
 k-point 79 :  -.32140.46430.1786  plane waves:     270
 k-point 80 :  -.4643-.46430.1786  plane waves:     270
 k-point 81 :  -.3929-.46430.1786  plane waves:     269
 k-point 82 :  -.3929-.39290.1786  plane waves:     267
 k-point 83 :  0.25000.25000.2500  plane waves:     276
 k-point 84 :  -.25000.25000.2500  plane waves:     277
 k-point 85 :  -.32140.32140.2500  plane waves:     268
 k-point 86 :  -.39290.39290.2500  plane waves:     263
 k-point 87 :  -.32140.39290.2500  plane waves:     262
 k-point 88 :  -.46430.46430.2500  plane waves:     262
 k-point 89 :  -.39290.46430.2500  plane waves:     260
 k-point 90 :  -.4643-.46430.2500  plane waves:     259
 k-point 91 :  -.3929-.46430.2500  plane waves:     261
 k-point 92 :  -.32140.32140.3214  plane waves:     265
 k-point 93 :  -.39290.39290.3214  plane waves:     258
 k-point 94 :  -.46430.46430.3214  plane waves:     261
 k-point 95 :  -.39290.46430.3214  plane waves:     258
 k-point 96 :  -.4643-.46430.3214  plane waves:     260
 k-point 97 :  -.39290.39290.3929  plane waves:     261
 k-point 98 :  -.46430.46430.3929  plane waves:     257
 k-point 99 :  -.4643-.46430.3929  plane waves:     257
 k-point ** :  -.46430.46430.4643  plane waves:     261

 maximum and minimum number of plane-waves per node :       277      257

 maximum number of plane-waves:       277
 maximum index in each direction: 
   IXMAX=    4   IYMAX=    4   IZMAX=    4
   IXMIN=   -4   IYMIN=   -4   IZMIN=   -4

 NGX is ok and might be reduce to  18
 NGY is ok and might be reduce to  18
 NGZ is ok and might be reduce to  18

 serial   3D FFT for wavefunctions
 parallel 3D FFT for charge:
    minimum data exchange during FFTs selected (reduces bandwidth)


 total amount of memory used by VASP on root node    45345. kBytes
========================================================================

   base      :      30000. kBytes
   nonl-proj :       3993. kBytes
   fftplans  :       1676. kBytes
   grid      :       3981. kBytes
   one-center:         31. kBytes
   wavefun   :       5664. kBytes
 
 Broyden mixing: mesh for mixing (old mesh)
   NGX =  9   NGY =  9   NGZ =  9
  (NGX  = 36   NGY  = 36   NGZ  = 36)
  gives a total of    729 points

 initial charge density was supplied:
 charge density of overlapping atoms calculated
 number of electron       5.0000000 magnetization       6.0000000
 keeping initial charge density in first step


--------------------------------------------------------------------------------------------------------


 Maximum index for augmentation-charges        21187 (set IRDMAX)


--------------------------------------------------------------------------------------------------------


 First call to EWALD:  gamma=   0.675
 Maximum number of real-space cells 3x 3x 3
 Maximum number of reciprocal cells 3x 3x 3

    FEWALD:  cpu time    0.00: real time    0.00


----------------------------------------- Iteration    1(   1)  ---------------------------------------


    POTLOK:  cpu time    0.14: real time    0.14
    SETDIJ:  cpu time    0.03: real time    0.03
     EDDAV:  cpu time    2.29: real time    2.29
       DOS:  cpu time    0.01: real time    0.01
    --------------------------------------------
      LOOP:  cpu time    2.47: real time    2.57

 eigenvalue-minimisations  :  2490
 total energy-change (2. order) : 0.1099366E+02  (-0.2014454E+03)
 number of electron       5.0000000 magnetization       6.0000000
 augmentation part        5.0000000 magnetization       6.0000000

 Free energy of the ion-electron system (eV)
  ---------------------------------------------------
  alpha Z        PSCENC =        30.58334069
  Ewald energy   TEWEN  =      -197.90100875
  -1/2 Hartree   DENC   =        -2.50452612
  -exchange  EXHF       =         0.00000000
  -V(xc)+E(xc)   XCENC  =       -60.69825643
  PAW double counting   =       143.51874798      -69.33493833
  entropy T*S    EENTRO =         0.00003838
  eigenvalues    EBANDS =        36.68404874
  atomic energy  EATOM  =       130.64621481
  ---------------------------------------------------
  free energy    TOTEN  =        10.99366096 eV

  energy without entropy =       10.99362258  energy(sigma->0) =       10.99364817


--------------------------------------------------------------------------------------------------------




----------------------------------------- Iteration    1(   2)  ---------------------------------------


     EDDAV:  cpu time    3.54: real time    3.54
       DOS:  cpu time    0.01: real time    0.01
    --------------------------------------------
      LOOP:  cpu time    3.55: real time    3.56

 eigenvalue-minimisations  :  4284
 total energy-change (2. order) :-0.1220434E+02  (-0.1074739E+02)
 number of electron       5.0000000 magnetization       6.0000000
 augmentation part        5.0000000 magnetization       6.0000000

 Free energy of the ion-electron system (eV)
  ---------------------------------------------------
  alpha Z        PSCENC =        30.58334069
  Ewald energy   TEWEN  =      -197.90100875
  -1/2 Hartree   DENC   =        -2.50452612
  -exchange  EXHF       =         0.00000000
  -V(xc)+E(xc)   XCENC  =       -60.69825643
  PAW double counting   =       143.51874798      -69.33493833
  entropy T*S    EENTRO =        -0.00026934
  eigenvalues    EBANDS =        24.48002127
  atomic energy  EATOM  =       130.64621481
  ---------------------------------------------------
  free energy    TOTEN  =        -1.21067422 eV

  energy without entropy =       -1.21040488  energy(sigma->0) =       -1.21058444


--------------------------------------------------------------------------------------------------------




----------------------------------------- Iteration    1(   3)  ---------------------------------------


     EDDAV:  cpu time    2.28: real time    2.28
       DOS:  cpu time    0.01: real time    0.01
    --------------------------------------------
      LOOP:  cpu time    2.29: real time    2.39

 eigenvalue-minimisations  :  2484
 total energy-change (2. order) :-0.8370614E-01  (-0.8353287E-01)
 number of electron       5.0000000 magnetization       6.0000000
 augmentation part        5.0000000 magnetization       6.0000000

 Free energy of the ion-electron system (eV)
  ---------------------------------------------------
  alpha Z        PSCENC =        30.58334069
  Ewald energy   TEWEN  =      -197.90100875
  -1/2 Hartree   DENC   =        -2.50452612
  -exchange  EXHF       =         0.00000000
  -V(xc)+E(xc)   XCENC  =       -60.69825643
  PAW double counting   =       143.51874798      -69.33493833
  entropy T*S    EENTRO =        -0.00019895
  eigenvalues    EBANDS =        24.39624474
  atomic energy  EATOM  =       130.64621481
  ---------------------------------------------------
  free energy    TOTEN  =        -1.29438036 eV

  energy without entropy =       -1.29418141  energy(sigma->0) =       -1.29431404


--------------------------------------------------------------------------------------------------------




----------------------------------------- Iteration    1(   4)  ---------------------------------------


     EDDAV:  cpu time    2.77: real time    2.77
       DOS:  cpu time    0.01: real time    0.01
    --------------------------------------------
      LOOP:  cpu time    2.78: real time    2.79

 eigenvalue-minimisations  :  3204
 total energy-change (2. order) :-0.4764956E-03  (-0.4765174E-03)
 number of electron       5.0000000 magnetization       6.0000000
 augmentation part        5.0000000 magnetization       6.0000000

 Free energy of the ion-electron system (eV)
  ---------------------------------------------------
  alpha Z        PSCENC =        30.58334069
  Ewald energy   TEWEN  =      -197.90100875
  -1/2 Hartree   DENC   =        -2.50452612
  -exchange  EXHF       =         0.00000000
  -V(xc)+E(xc)   XCENC  =       -60.69825643
  PAW double counting   =       143.51874798      -69.33493833
  entropy T*S    EENTRO =        -0.00019758
  eigenvalues    EBANDS =        24.39576688
  atomic energy  EATOM  =       130.64621481
  ---------------------------------------------------
  free energy    TOTEN  =        -1.29485686 eV

  energy without entropy =       -1.29465928  energy(sigma->0) =       -1.29479100


--------------------------------------------------------------------------------------------------------




----------------------------------------- Iteration    1(   5)  ---------------------------------------


     EDDAV:  cpu time    2.12: real time    2.12
       DOS:  cpu time    0.01: real time    0.01
    CHARGE:  cpu time    0.22: real time    0.22
    MIXING:  cpu time    0.00: real time    0.00
    --------------------------------------------
      LOOP:  cpu time    2.35: real time    2.36

 eigenvalue-minimisations  :  2226
 total energy-change (2. order) :-0.7571005E-05  (-0.7571608E-05)
 number of electron       5.0000001 magnetization       1.9946985
 augmentation part        0.4550878 magnetization      -0.8314460

 Broyden mixing:
  rms(total) = 0.76102E+00    rms(broyden)= 0.76102E+00
  rms(prec ) = 0.97131E+00
  weight for this iteration     100.00

 Free energy of the ion-electron system (eV)
  ---------------------------------------------------
  alpha Z        PSCENC =        30.58334069
  Ewald energy   TEWEN  =      -197.90100875
  -1/2 Hartree   DENC   =        -2.50452612
  -exchange  EXHF       =         0.00000000
  -V(xc)+E(xc)   XCENC  =       -60.69825643
  PAW double counting   =       143.51874798      -69.33493833
  entropy T*S    EENTRO =        -0.00019760
  eigenvalues    EBANDS =        24.39575933
  atomic energy  EATOM  =       130.64621481
  ---------------------------------------------------
  free energy    TOTEN  =        -1.29486443 eV

  energy without entropy =       -1.29466683  energy(sigma->0) =       -1.29479856


--------------------------------------------------------------------------------------------------------




----------------------------------------- Iteration    1(   6)  ---------------------------------------


    POTLOK:  cpu time    0.14: real time    0.14
    SETDIJ:  cpu time    0.03: real time    0.03
     EDDAV:  cpu time    2.30: real time    2.31
       DOS:  cpu time    0.01: real time    0.01
    CHARGE:  cpu time    0.19: real time    0.19
    MIXING:  cpu time    0.00: real time    0.00
    --------------------------------------------
      LOOP:  cpu time    2.68: real time    2.69

 eigenvalue-minimisations  :  2526
 total energy-change (2. order) :-0.1039644E+02  (-0.3428773E+00)
 number of electron       5.0000001 magnetization       1.7691993
 augmentation part        0.3696352 magnetization       1.0602008

 Broyden mixing:
  rms(total) = 0.39187E+00    rms(broyden)= 0.39186E+00
  rms(prec ) = 0.11300E+01
  weight for this iteration     100.00

 eigenvalues of (default mixing * dielectric matrix)
  average eigenvalue GAMMA=   1.5202
  1.5202

 Free energy of the ion-electron system (eV)
  ---------------------------------------------------
  alpha Z        PSCENC =        30.58334069
  Ewald energy   TEWEN  =      -197.90100875
  -1/2 Hartree   DENC   =        -1.99899864
  -exchange  EXHF       =         0.00000000
  -V(xc)+E(xc)   XCENC  =       -66.15470998
  PAW double counting   =       163.85496649      -89.91122237
  entropy T*S    EENTRO =        -0.00015120
  eigenvalues    EBANDS =        19.19026891
  atomic energy  EATOM  =       130.64621481
  ---------------------------------------------------
  free energy    TOTEN  =       -11.69130004 eV

  energy without entropy =      -11.69114884  energy(sigma->0) =      -11.69124964


--------------------------------------------------------------------------------------------------------




----------------------------------------- Iteration    1(   7)  ---------------------------------------


    POTLOK:  cpu time    0.14: real time    0.14
    SETDIJ:  cpu time    0.03: real time    0.03
     EDDAV:  cpu time    2.44: real time    2.44
       DOS:  cpu time    0.01: real time    0.01
    CHARGE:  cpu time    0.19: real time    0.19
    MIXING:  cpu time    0.00: real time    0.00
    --------------------------------------------
      LOOP:  cpu time    2.82: real time    2.85

 eigenvalue-minimisations  :  2724
 total energy-change (2. order) :-0.7428244E-01  (-0.2319453E-02)
 number of electron       5.0000001 magnetization       1.8827082
 augmentation part        0.3701266 magnetization       1.2101177

 Broyden mixing:
  rms(total) = 0.34741E+00    rms(broyden)= 0.34741E+00
  rms(prec ) = 0.10610E+01
  weight for this iteration     100.00

 eigenvalues of (default mixing * dielectric matrix)
  average eigenvalue GAMMA=   1.0356
  1.0356  1.0356

 Free energy of the ion-electron system (eV)
  ---------------------------------------------------
  alpha Z        PSCENC =        30.58334069
  Ewald energy   TEWEN  =      -197.90100875
  -1/2 Hartree   DENC   =        -1.88886634
  -exchange  EXHF       =         0.00000000
  -V(xc)+E(xc)   XCENC  =       -66.21439126
  PAW double counting   =       165.81067590      -91.89914142
  entropy T*S    EENTRO =         0.00009297
  eigenvalues    EBANDS =        19.09750092
  atomic energy  EATOM  =       130.64621481
  ---------------------------------------------------
  free energy    TOTEN  =       -11.76558248 eV

  energy without entropy =      -11.76567545  energy(sigma->0) =      -11.76561347


--------------------------------------------------------------------------------------------------------




----------------------------------------- Iteration    1(   8)  ---------------------------------------


    POTLOK:  cpu time    0.14: real time    0.14
    SETDIJ:  cpu time    0.03: real time    0.03
     EDDAV:  cpu time    2.36: real time    2.36
       DOS:  cpu time    0.01: real time    0.01
    CHARGE:  cpu time    0.19: real time    0.19
    MIXING:  cpu time    0.00: real time    0.00
    --------------------------------------------
      LOOP:  cpu time    2.73: real time    2.74

 eigenvalue-minimisations  :  2604
 total energy-change (2. order) : 0.1393059E+00  (-0.2843834E-01)
 number of electron       5.0000001 magnetization       0.5803822
 augmentation part        0.3899586 magnetization      -0.0660976

 Broyden mixing:
  rms(total) = 0.32248E+00    rms(broyden)= 0.32248E+00
  rms(prec ) = 0.52451E+00
  weight for this iteration     100.00

 eigenvalues of (default mixing * dielectric matrix)
  average eigenvalue GAMMA=   1.1473
  1.4158  1.3302  0.6957

 Free energy of the ion-electron system (eV)
  ---------------------------------------------------
  alpha Z        PSCENC =        30.58334069
  Ewald energy   TEWEN  =      -197.90100875
  -1/2 Hartree   DENC   =        -1.02169629
  -exchange  EXHF       =         0.00000000
  -V(xc)+E(xc)   XCENC  =       -65.88506421
  PAW double counting   =       174.52622683     -100.88693828
  entropy T*S    EENTRO =        -0.00000808
  eigenvalues    EBANDS =        18.31265672
  atomic energy  EATOM  =       130.64621481
  ---------------------------------------------------
  free energy    TOTEN  =       -11.62627655 eV

  energy without entropy =      -11.62626847  energy(sigma->0) =      -11.62627386


--------------------------------------------------------------------------------------------------------




----------------------------------------- Iteration    1(   9)  ---------------------------------------


    POTLOK:  cpu time    0.14: real time    0.14
    SETDIJ:  cpu time    0.03: real time    0.03
     EDDAV:  cpu time    2.41: real time    2.41
       DOS:  cpu time    0.01: real time    0.01
    CHARGE:  cpu time    0.19: real time    0.19
    MIXING:  cpu time    0.00: real time    0.00
    --------------------------------------------
      LOOP:  cpu time    2.78: real time    2.79

 eigenvalue-minimisations  :  2688
 total energy-change (2. order) :-0.2010658E+00  (-0.1785268E-01)
 number of electron       5.0000001 magnetization       0.2483335
 augmentation part        0.4018402 magnetization      -0.0110525

 Broyden mixing:
  rms(total) = 0.76803E-01    rms(broyden)= 0.76801E-01
  rms(prec ) = 0.80244E-01
  weight for this iteration     100.00

 eigenvalues of (default mixing * dielectric matrix)
  average eigenvalue GAMMA=   1.1304
  2.1748  0.8157  0.8157  0.7153

 Free energy of the ion-electron system (eV)
  ---------------------------------------------------
  alpha Z        PSCENC =        30.58334069
  Ewald energy   TEWEN  =      -197.90100875
  -1/2 Hartree   DENC   =        -0.56490221
  -exchange  EXHF       =         0.00000000
  -V(xc)+E(xc)   XCENC  =       -65.95794856
  PAW double counting   =       187.75411046     -114.29777676
  entropy T*S    EENTRO =        -0.00036021
  eigenvalues    EBANDS =        17.91098813
  atomic energy  EATOM  =       130.64621481
  ---------------------------------------------------
  free energy    TOTEN  =       -11.82734239 eV

  energy without entropy =      -11.82698218  energy(sigma->0) =      -11.82722232


--------------------------------------------------------------------------------------------------------




----------------------------------------- Iteration    1(  10)  ---------------------------------------


    POTLOK:  cpu time    0.14: real time    0.14
    SETDIJ:  cpu time    0.03: real time    0.03
     EDDAV:  cpu time    2.46: real time    2.46
       DOS:  cpu time    0.01: real time    0.01
    CHARGE:  cpu time    0.19: real time    0.19
    MIXING:  cpu time    0.00: real time    0.00
    --------------------------------------------
      LOOP:  cpu time    2.83: real time    2.85

 eigenvalue-minimisations  :  2760
 total energy-change (2. order) :-0.2507523E-01  (-0.5131419E-03)
 number of electron       5.0000001 magnetization       0.1005566
 augmentation part        0.4028387 magnetization      -0.0207499

 Broyden mixing:
  rms(total) = 0.31724E-01    rms(broyden)= 0.31722E-01
  rms(prec ) = 0.54766E-01
  weight for this iteration     100.00

 eigenvalues of (default mixing * dielectric matrix)
  average eigenvalue GAMMA=   1.1302
  1.8753  0.9616  0.9616  1.2164  0.6359

 Free energy of the ion-electron system (eV)
  ---------------------------------------------------
  alpha Z        PSCENC =        30.58334069
  Ewald energy   TEWEN  =      -197.90100875
  -1/2 Hartree   DENC   =        -0.54228336
  -exchange  EXHF       =         0.00000000
  -V(xc)+E(xc)   XCENC  =       -65.96933625
  PAW double counting   =       189.98215483     -116.54990291
  entropy T*S    EENTRO =        -0.00000156
  eigenvalues    EBANDS =        17.89840488
  atomic energy  EATOM  =       130.64621481
  ---------------------------------------------------
  free energy    TOTEN  =       -11.85241762 eV

  energy without entropy =      -11.85241606  energy(sigma->0) =      -11.85241710


--------------------------------------------------------------------------------------------------------




----------------------------------------- Iteration    1(  11)  ---------------------------------------


    POTLOK:  cpu time    0.14: real time    0.14
    SETDIJ:  cpu time    0.03: real time    0.03
     EDDAV:  cpu time    2.35: real time    2.35
       DOS:  cpu time    0.01: real time    0.01
    CHARGE:  cpu time    0.19: real time    0.19
    MIXING:  cpu time    0.00: real time    0.00
    --------------------------------------------
      LOOP:  cpu time    2.72: real time    2.74

 eigenvalue-minimisations  :  2604
 total energy-change (2. order) :-0.3369510E-02  (-0.4662438E-03)
 number of electron       5.0000001 magnetization      -0.0548287
 augmentation part        0.4010775 magnetization      -0.1117416

 Broyden mixing:
  rms(total) = 0.11263E-01    rms(broyden)= 0.11261E-01
  rms(prec ) = 0.20204E-01
  weight for this iteration     100.00

 eigenvalues of (default mixing * dielectric matrix)
  average eigenvalue GAMMA=   1.2082
  1.9222  1.9222  0.9942  0.9942  0.6283  0.7880

 Free energy of the ion-electron system (eV)
  ---------------------------------------------------
  alpha Z        PSCENC =        30.58334069
  Ewald energy   TEWEN  =      -197.90100875
  -1/2 Hartree   DENC   =        -0.59653494
  -exchange  EXHF       =         0.00000000
  -V(xc)+E(xc)   XCENC  =       -66.00633655
  PAW double counting   =       191.00414407     -117.56792957
  entropy T*S    EENTRO =        -0.00017614
  eigenvalues    EBANDS =        17.98249924
  atomic energy  EATOM  =       130.64621481
  ---------------------------------------------------
  free energy    TOTEN  =       -11.85578713 eV

  energy without entropy =      -11.85561100  energy(sigma->0) =      -11.85572842


--------------------------------------------------------------------------------------------------------




----------------------------------------- Iteration    1(  12)  ---------------------------------------


    POTLOK:  cpu time    0.14: real time    0.14
    SETDIJ:  cpu time    0.03: real time    0.03
     EDDAV:  cpu time    2.25: real time    2.25
       DOS:  cpu time    0.01: real time    0.01
    CHARGE:  cpu time    0.19: real time    0.19
    MIXING:  cpu time    0.00: real time    0.00
    --------------------------------------------
      LOOP:  cpu time    2.62: real time    2.64

 eigenvalue-minimisations  :  2460
 total energy-change (2. order) :-0.3987240E-03  (-0.1162161E-03)
 number of electron       5.0000001 magnetization      -0.0461725
 augmentation part        0.4013971 magnetization      -0.0125066

 Broyden mixing:
  rms(total) = 0.48691E-02    rms(broyden)= 0.48625E-02
  rms(prec ) = 0.10843E-01
  weight for this iteration     100.00

 eigenvalues of (default mixing * dielectric matrix)
  average eigenvalue GAMMA=   1.1981
  2.2013  2.2013  0.8960  0.8960  0.9738  0.6092  0.6092

 Free energy of the ion-electron system (eV)
  ---------------------------------------------------
  alpha Z        PSCENC =        30.58334069
  Ewald energy   TEWEN  =      -197.90100875
  -1/2 Hartree   DENC   =        -0.59362280
  -exchange  EXHF       =         0.00000000
  -V(xc)+E(xc)   XCENC  =       -66.00318086
  PAW double counting   =       193.39565932     -119.97707603
  entropy T*S    EENTRO =        -0.00017481
  eigenvalues    EBANDS =        17.99366258
  atomic energy  EATOM  =       130.64621481
  ---------------------------------------------------
  free energy    TOTEN  =       -11.85618586 eV

  energy without entropy =      -11.85601104  energy(sigma->0) =      -11.85612758


--------------------------------------------------------------------------------------------------------




----------------------------------------- Iteration    1(  13)  ---------------------------------------


    POTLOK:  cpu time    0.14: real time    0.14
    SETDIJ:  cpu time    0.03: real time    0.03
     EDDAV:  cpu time    1.47: real time    1.47
       DOS:  cpu time    0.01: real time    0.01
    --------------------------------------------
      LOOP:  cpu time    1.65: real time    1.67

 eigenvalue-minimisations  :  1236
 total energy-change (2. order) :-0.4187129E-04  (-0.5140811E-05)
 number of electron       5.0000001 magnetization      -0.0461725
 augmentation part        0.4013971 magnetization      -0.0125066

 Free energy of the ion-electron system (eV)
  ---------------------------------------------------
  alpha Z        PSCENC =        30.58334069
  Ewald energy   TEWEN  =      -197.90100875
  -1/2 Hartree   DENC   =        -0.58826948
  -exchange  EXHF       =         0.00000000
  -V(xc)+E(xc)   XCENC  =       -66.00004205
  PAW double counting   =       193.52013486     -120.10263559
  entropy T*S    EENTRO =        -0.00016588
  eigenvalues    EBANDS =        17.98620366
  atomic energy  EATOM  =       130.64621481
  ---------------------------------------------------
  free energy    TOTEN  =       -11.85622773 eV

  energy without entropy =      -11.85606185  energy(sigma->0) =      -11.85617243


--------------------------------------------------------------------------------------------------------




 average (electrostatic) potential at core
  the test charge radii are     1.2538
  (the norm of the test charge is              1.0000)
       1 -35.0258
 
 
 
 E-fermi :   5.6918     XC(G=0): -12.3699     alpha+bet :-13.5035


 spin component 1

 k-point   1 :       0.0357    0.0357    0.0357
  band No.  band energies     occupation 
      1      -1.8340      1.00000
      2       6.2814      0.00000
      3       6.2814      0.00000
      4       6.8474      0.00000
      5       9.5338      0.00000
      6       9.5338      0.00000

 k-point   2 :       0.1071    0.0357    0.0357
  band No.  band energies     occupation 
      1      -1.2135      1.00000
      2       5.8802      0.00000
      3       6.0383      0.00000
      4       7.5501      0.00000
      5       9.1694      0.00000
      6       9.6338      0.00000

 k-point   3 :       0.1786    0.0357    0.0357
  band No.  band energies     occupation 
      1      -0.3025      1.00000
      2       5.3808      1.00000
      3       5.6573      0.95632
      4       8.6098      0.00000
      5       9.0871      0.00000
      6       9.7804      0.00000

 k-point   4 :       0.2500    0.0357    0.0357
  band No.  band energies     occupation 
      1       0.6546      1.00000
      2       4.9009      1.00000
      3       5.4204      1.00000
      4       9.2671      0.00000
      5       9.9864      0.00000
      6      10.0182      0.00000

 k-point   5 :       0.3214    0.0357    0.0357
  band No.  band energies     occupation 
      1       1.2832      1.00000
      2       4.5154      1.00000
      3       5.7588     -0.03371
      4       9.5558      0.00000
      5      10.2440      0.00000
      6      11.5675      0.00000

 k-point   6 :       0.3929    0.0357    0.0357
  band No.  band energies     occupation 
      1       1.4759      1.00000
      2       4.2690      1.00000
      3       6.6098      0.00000
      4       9.6695      0.00000
      5      10.4856      0.00000
      6      12.9903      0.00000

 k-point   7 :       0.4643    0.0357    0.0357
  band No.  band energies     occupation 
      1       1.4945      1.00000
      2       4.1845      1.00000
      3       7.1293      0.00000
      4       9.6173      0.00000
      5      10.5892      0.00000
      6      13.6394      0.00000

 k-point   8 :      -0.0357    0.0357    0.0357
  band No.  band energies     occupation 
      1      -2.0516      1.00000
      2       6.4403      0.00000
      3       6.4403      0.00000
      4       6.5118      0.00000
      5       9.4948      0.00000
      6       9.7525      0.00000

 k-point   9 :       0.1071    0.1071    0.0357
  band No.  band energies     occupation 
      1      -0.4550      1.00000
      2       5.5065      1.00000
      3       5.5557      1.00041
      4       8.5552      0.00000
      5       9.0678      0.00000
      6       9.7704      0.00000

 k-point  10 :       0.1786    0.1071    0.0357
  band No.  band energies     occupation 
      1       0.5153      1.00000
      2       5.0293      1.00000
      3       5.1803      1.00000
      4       9.0885      0.00000
      5       9.8759      0.00000
      6      10.0424      0.00000

 k-point  11 :       0.2500    0.1071    0.0357
  band No.  band energies     occupation 
      1       1.3891      1.00000
      2       4.6211      1.00000
      3       5.1499      1.00000
      4       9.3336      0.00000
      5      10.2826      0.00000
      6      11.4079      0.00000

 k-point  12 :       0.3214    0.1071    0.0357
  band No.  band energies     occupation 
      1       1.8051      1.00000
      2       4.3431      1.00000
      3       5.7392     -0.01899
      4       9.6048      0.00000
      5      10.4778      0.00000
      6      12.9402      0.00000

 k-point  13 :       0.3929    0.1071    0.0357
  band No.  band energies     occupation 
      1       1.8756      1.00000
      2       4.2010      1.00000
      3       6.4992      0.00000
      4       9.6603      0.00000
      5      10.6537      0.00000
      6      14.0388      0.00000

 k-point  14 :      -0.1071    0.1071    0.0357
  band No.  band energies     occupation 
      1      -1.6197      1.00000
      2       6.1857      0.00000
      3       6.3431      0.00000
      4       6.9295      0.00000
      5       9.0366      0.00000
      6       9.8408      0.00000

 k-point  15 :       0.1786    0.1786    0.0357
  band No.  band energies     occupation 
      1       1.4746      1.00000
      2       4.6501      1.00000
      3       4.8888      1.00000
      4       9.1733      0.00000
      5      10.3498      0.00000
      6      11.3900      0.00000

 k-point  16 :       0.2500    0.1786    0.0357
  band No.  band energies     occupation 
      1       2.2210      1.00000
      2       4.3881      1.00000
      3       4.9955      1.00000
      4       9.4286      0.00000
      5      10.5039      0.00000
      6      13.0170      0.00000

 k-point  17 :       0.3214    0.1786    0.0357
  band No.  band energies     occupation 
      1       2.4661      1.00000
      2       4.2689      1.00000
      3       5.5736      1.00209
      4       9.6701      0.00000
      5      10.6014      0.00000
      6      14.4648      0.00000

 k-point  18 :       0.3929    0.1786    0.0357
  band No.  band energies     occupation 
      1       2.4851      1.00000
      2       4.2316      1.00000
      3       5.9427      0.00000
      4       9.7054      0.00000
      5      10.7226      0.00000
      6      15.1346      0.00000

 k-point  19 :      -0.1786    0.1786    0.0357
  band No.  band energies     occupation 
      1      -0.8288      1.00000
      2       5.7352     -0.00550
      3       6.0323      0.00000
      4       7.7849      0.00000
      5       8.7423      0.00000
      6       9.9287      0.00000

 k-point  20 :      -0.1071    0.1786    0.0357
  band No.  band energies     occupation 
      1      -1.0089      1.00000
      2       5.9881      0.00000
      3       6.0852      0.00000
      4       7.5103      0.00000
      5       8.5095      0.00000
      6      10.0666      0.00000

 k-point  21 :       0.2500    0.2500    0.0357
  band No.  band energies     occupation 
      1       2.8497      1.00000
      2       4.2999      1.00000
      3       5.0584      1.00000
      4       9.6865      0.00000
      5      10.5206      0.00000
      6      14.6710      0.00000

 k-point  22 :       0.3214    0.2500    0.0357
  band No.  band energies     occupation 
      1       3.0560      1.00000
      2       4.3680      1.00000
      3       5.2481      1.00000
      4       9.9335      0.00000
      5      10.5548      0.00000
      6      14.7724      0.00000

 k-point  23 :      -0.2500    0.2500    0.0357
  band No.  band energies     occupation 
      1       0.1442      1.00000
      2       5.2341      1.00000
      3       5.6298      1.03543
      4       8.8485      0.00000
      5       9.0076      0.00000
      6      10.0687      0.00000

 k-point  24 :      -0.1786    0.2500    0.0357
  band No.  band energies     occupation 
      1      -0.1106      1.00000
      2       5.5448      1.00013
      3       5.6892      0.54296
      4       8.3416      0.00000
      5       8.5618      0.00000
      6      10.2671      0.00000

 k-point  25 :       0.3214    0.3214    0.0357
  band No.  band energies     occupation 
      1       3.2764      1.00000
      2       4.7671      1.00000
      3       4.7671      1.00000
      4      10.3241      0.00000
      5      10.3241      0.00000
      6      14.1177      0.00000

 k-point  26 :      -0.3214    0.3214    0.0357
  band No.  band energies     occupation 
      1       0.9707      1.00000
      2       4.7851      1.00000
      3       5.5966      1.01077
      4       9.1926      0.00000
      5      10.2510      0.00000
      6      10.5037      0.00000

 k-point  27 :      -0.2500    0.3214    0.0357
  band No.  band energies     occupation 
      1       0.8413      1.00000
      2       5.0590      1.00000
      3       5.3881      1.00000
      4       8.5998      0.00000
      5       9.9342      0.00000
      6      10.4353      0.00000

 k-point  28 :      -0.1786    0.3214    0.0357
  band No.  band energies     occupation 
      1       0.8141      1.00000
      2       5.0869      1.00000
      3       5.4045      1.00000
      4       8.2921      0.00000
      5       9.7778      0.00000
      6      10.5282      0.00000

 k-point  29 :      -0.3929    0.3929    0.0357
  band No.  band energies     occupation 
      1       1.3546      1.00000
      2       4.4548      1.00000
      3       6.1977      0.00000
      4       9.4810      0.00000
      5      10.4663      0.00000
      6      12.0738      0.00000

 k-point  30 :      -0.3214    0.3929    0.0357
  band No.  band energies     occupation 
      1       1.4787      1.00000
      2       4.6972      1.00000
      3       5.5491      1.00021
      4       9.0258      0.00000
      5      10.5380      0.00000
      6      11.5296      0.00000

 k-point  31 :      -0.2500    0.3929    0.0357
  band No.  band energies     occupation 
      1       1.6804      1.00000
      2       4.6684      1.00000
      3       5.2866      1.00000
      4       8.5850      0.00000
      5      10.5157      0.00000
      6      11.4133      0.00000

 k-point  32 :      -0.4643    0.4643    0.0357
  band No.  band energies     occupation 
      1       1.4270      1.00000
      2       4.2812      1.00000
      3       6.9643      0.00000
      4       9.4585      0.00000
      5      10.7061      0.00000
      6      13.2464      0.00000

 k-point  33 :      -0.3929    0.4643    0.0357
  band No.  band energies     occupation 
      1       1.6733      1.00000
      2       4.4698      1.00000
      3       6.1836      0.00000
      4       9.2071      0.00000
      5      10.8144      0.00000
      6      12.9842      0.00000

 k-point  34 :      -0.3214    0.4643    0.0357
  band No.  band energies     occupation 
      1       2.1342      1.00000
      2       4.5267      1.00000
      3       5.4522      1.00000
      4       8.9688      0.00000
      5      10.6081      0.00000
      6      13.0269      0.00000

 k-point  35 :      -0.2500    0.4643    0.0357
  band No.  band energies     occupation 
      1       2.4424      1.00000
      2       4.3192      1.00000
      3       5.3006      1.00000
      4       8.8663      0.00000
      5      10.4559      0.00000
      6      13.0986      0.00000

 k-point  36 :      -0.4643   -0.4643    0.0357
  band No.  band energies     occupation 
      1       1.6899      1.00000
      2       4.3911      1.00000
      3       6.5791      0.00000
      4       9.1317      0.00000
      5      11.0648      0.00000
      6      13.6558      0.00000

 k-point  37 :      -0.3929   -0.4643    0.0357
  band No.  band energies     occupation 
      1       2.2168      1.00000
      2       4.4899      1.00000
      3       5.8132     -0.00158
      4       9.0347      0.00000
      5      10.9764      0.00000
      6      14.2768      0.00000

 k-point  38 :      -0.3214   -0.4643    0.0357
  band No.  band energies     occupation 
      1       2.8276      1.00000
      2       4.3196      1.00000
      3       5.2718      1.00000
      4       9.2390      0.00000
      5      10.5193      0.00000
      6      14.7835      0.00000

 k-point  39 :      -0.3929   -0.3929    0.0357
  band No.  band energies     occupation 
      1       2.8883      1.00000
      2       4.4470      1.00000
      3       5.2199      1.00000
      4       9.3311      0.00000
      5      10.7648      0.00000
      6      15.3222      0.00000

 k-point  40 :      -0.3214   -0.3929    0.0357
  band No.  band energies     occupation 
      1       3.3238      1.00000
      2       4.3546      1.00000
      3       4.8565      1.00000
      4       9.8037      0.00000
      5      10.3687      0.00000
      6      14.8614      0.00000

 k-point  41 :       0.1071    0.1071    0.1071
  band No.  band energies     occupation 
      1       0.4059      1.00000
      2       5.0435      1.00000
      3       5.0435      1.00000
      4       9.5968      0.00000
      5       9.5968      0.00000
      6       9.8925      0.00000

 k-point  42 :       0.1786    0.1071    0.1071
  band No.  band energies     occupation 
      1       1.4094      1.00000
      2       4.6284      1.00000
      3       4.7307      1.00000
      4       9.6486      0.00000
      5      10.0211      0.00000
      6      11.4407      0.00000

 k-point  43 :       0.2500    0.1071    0.1071
  band No.  band energies     occupation 
      1       2.1508      1.00000
      2       4.3304      1.00000
      3       4.9415      1.00000
      4       9.8310      0.00000
      5      10.3437      0.00000
      6      13.0374      0.00000

 k-point  44 :       0.3214    0.1071    0.1071
  band No.  band energies     occupation 
      1       2.3565      1.00000
      2       4.1531      1.00000
      3       5.7513     -0.03528
      4       9.9621      0.00000
      5      10.5638      0.00000
      6      14.3687      0.00000

 k-point  45 :       0.3929    0.1071    0.1071
  band No.  band energies     occupation 
      1       2.3636      1.00000
      2       4.0943      1.00000
      3       6.2495      0.00000
      4       9.9709      0.00000
      5      10.6455      0.00000
      6      14.9360      0.00000

 k-point  46 :      -0.1071    0.1071    0.1071
  band No.  band energies     occupation 
      1      -1.1984      1.00000
      2       6.3641      0.00000
      3       6.3641      0.00000
      4       6.9351      0.00000
      5       8.2165      0.00000
      6      10.2184      0.00000

 k-point  47 :       0.1786    0.1786    0.1071
  band No.  band energies     occupation 
      1       2.3976      1.00000
      2       4.3704      1.00000
      3       4.4692      1.00000
      4       9.8888      0.00000
      5      10.3064      0.00000
      6      13.1100      0.00000

 k-point  48 :       0.2500    0.1786    0.1071
  band No.  band energies     occupation 
      1       2.9630      1.00000
      2       4.2140      1.00000
      3       4.8324      1.00000
      4      10.0813      0.00000
      5      10.5353      0.00000
      6      14.6617      0.00000

 k-point  49 :       0.3214    0.1786    0.1071
  band No.  band energies     occupation 
      1       3.0226      1.00000
      2       4.1398      1.00000
      3       5.5441      1.00012
      4      10.1836      0.00000
      5      10.6561      0.00000
      6      14.7831      0.00000

 k-point  50 :      -0.1786    0.1786    0.1071
  band No.  band energies     occupation 
      1      -0.4268      1.00000
      2       6.0814      0.00000
      3       6.1597      0.00000
      4       7.6515      0.00000
      5       7.6602      0.00000
      6      10.4710      0.00000

 k-point  51 :       0.2500    0.2500    0.1071
  band No.  band energies     occupation 
      1       3.3960      1.00000
      2       4.3655      1.00000
      3       4.9264      1.00000
      4      10.3038      0.00000
      5      10.6101      0.00000
      6      14.5108      0.00000

 k-point  52 :       0.3214    0.2500    0.1071
  band No.  band energies     occupation 
      1       3.4554      1.00000
      2       4.4562      1.00000
      3       5.1019      1.00000
      4      10.4166      0.00000
      5      10.6281      0.00000
      6      13.7679      0.00000

 k-point  53 :      -0.2500    0.2500    0.1071
  band No.  band energies     occupation 
      1       0.5286      1.00000
      2       5.5936      1.00900
      3       5.6289      1.03530
      4       7.8252      0.00000
      5       8.8573      0.00000
      6      10.6205      0.00000

 k-point  54 :      -0.1786    0.2500    0.1071
  band No.  band energies     occupation 
      1       0.4292      1.00000
      2       5.6948      0.44925
      3       6.0136      0.00000
      4       7.3542      0.00000
      5       8.4528      0.00000
      6      10.7043      0.00000

 k-point  55 :      -0.3214    0.3214    0.1071
  band No.  band energies     occupation 
      1       1.3601      1.00000
      2       5.2067      1.00000
      3       5.2704      1.00000
      4       8.3410      0.00000
      5      10.3574      0.00000
      6      10.6954      0.00000

 k-point  56 :      -0.2500    0.3214    0.1071
  band No.  band energies     occupation 
      1       1.3533      1.00000
      2       5.0462      1.00000
      3       5.7494     -0.03459
      4       7.7062      0.00000
      5       9.7347      0.00000
      6      10.7944      0.00000

 k-point  57 :      -0.3929    0.3929    0.1071
  band No.  band energies     occupation 
      1       1.7520      1.00000
      2       4.8924      1.00000
      3       5.5327      1.00003
      4       8.6973      0.00000
      5      10.9707      0.00000
      6      11.9445      0.00000

 k-point  58 :      -0.3214    0.3929    0.1071
  band No.  band energies     occupation 
      1       2.0103      1.00000
      2       4.7686      1.00000
      3       5.4878      1.00000
      4       8.2327      0.00000
      5      10.6240      0.00000
      6      11.5656      0.00000

 k-point  59 :      -0.2500    0.3929    0.1071
  band No.  band energies     occupation 
      1       2.1788      1.00000
      2       4.4549      1.00000
      3       5.7617     -0.03183
      4       7.9981      0.00000
      5      10.3220      0.00000
      6      11.5771      0.00000

 k-point  60 :      -0.4643    0.4643    0.1071
  band No.  band energies     occupation 
      1       1.8148      1.00000
      2       4.7261      1.00000
      3       6.0250      0.00000
[...]
      3       5.8693      0.00000
      4       7.9159      0.00000
      5      11.3636      0.00000
      6      13.1913      0.00000

 k-point  79 :      -0.3214    0.4643    0.1786
  band No.  band energies     occupation 
      1       3.1864      1.00000
      2       3.6529      1.00000
      3       5.8587     -0.00001
      4       8.5597      0.00000
      5      10.4388      0.00000
      6      13.3299      0.00000

 k-point  80 :      -0.4643   -0.4643    0.1786
  band No.  band energies     occupation 
      1       2.7576      1.00000
      2       4.3362      1.00000
      3       5.6771      0.73670
      4       7.8539      0.00000
      5      12.1141      0.00000
      6      14.2103      0.00000

 k-point  81 :      -0.3929   -0.4643    0.1786
  band No.  band energies     occupation 
      1       3.2454      1.00000
      2       3.7987      1.00000
      3       5.3615      1.00000
      4       9.0194      0.00000
      5      11.0331      0.00000
      6      15.0925      0.00000

 k-point  82 :      -0.3929   -0.3929    0.1786
  band No.  band energies     occupation 
      1       3.5881      1.00000
      2       3.5881      1.00000
      3       5.0142      1.00000
      4      10.2705      0.00000
      5      10.2706      0.00000
      6      15.3350      0.00000

 k-point  83 :       0.2500    0.2500    0.2500
  band No.  band energies     occupation 
      1       4.4557      1.00000
      2       4.4557      1.00000
      3       4.4557      1.00000
      4      10.7323      0.00000
      5      10.7323      0.00000
      6      12.7259      0.00000

 k-point  84 :      -0.2500    0.2500    0.2500
  band No.  band energies     occupation 
      1       1.9557      1.00000
      2       4.7755      1.00000
      3       6.9372      0.00000
      4       6.9372      0.00000
      5       8.8657      0.00000
      6      10.6748      0.00000

 k-point  85 :      -0.3214    0.3214    0.2500
  band No.  band energies     occupation 
      1       2.6068      1.00000
      2       4.0530      1.00000
      3       7.0430      0.00000
      4       7.4484      0.00000
      5       9.9413      0.00000
      6      10.6176      0.00000

 k-point  86 :      -0.3929    0.3929    0.2500
  band No.  band energies     occupation 
      1       2.8864      1.00000
      2       3.7020      1.00000
      3       6.9139      0.00000
      4       7.6161      0.00000
      5      11.4554      0.00000
      6      11.4912      0.00000

 k-point  87 :      -0.3214    0.3929    0.2500
  band No.  band energies     occupation 
      1       2.9832      1.00000
      2       3.4755      1.00000
      3       7.0904      0.00000
      4       8.1506      0.00000
      5      10.4059      0.00000
      6      11.5027      0.00000

 k-point  88 :      -0.4643    0.4643    0.2500
  band No.  band energies     occupation 
      1       2.7955      1.00000
      2       3.7791      1.00000
      3       6.8147      0.00000
      4       7.4420      0.00000
      5      12.7113      0.00000
      6      13.1274      0.00000

 k-point  89 :      -0.3929    0.4643    0.2500
  band No.  band energies     occupation 
      1       2.9716      1.00000
      2       3.3037      1.00000
      3       6.8077      0.00000
      4       8.6173      0.00000
      5      11.2987      0.00000
      6      13.2651      0.00000

 k-point  90 :      -0.4643   -0.4643    0.2500
  band No.  band energies     occupation 
      1       2.8520      1.00000
      2       3.3596      1.00000
      3       6.6720      0.00000
      4       8.6795      0.00000
      5      12.0710      0.00000
      6      14.6803      0.00000

 k-point  91 :      -0.3929   -0.4643    0.2500
  band No.  band energies     occupation 
      1       2.9853      1.00000
      2       3.0913      1.00000
      3       6.5077      0.00000
      4       9.9580      0.00000
      5      11.0842      0.00000
      6      15.2007      0.00000

 k-point  92 :      -0.3214    0.3214    0.3214
  band No.  band energies     occupation 
      1       2.9009      1.00000
      2       3.4164      1.00000
      3       8.0042      0.00000
      4       8.0043      0.00000
      5      10.2094      0.00000
      6      10.5592      0.00000

 k-point  93 :      -0.3929    0.3929    0.3214
  band No.  band energies     occupation 
      1       2.8684      1.00000
      2       2.9830      1.00000
      3       8.3526      0.00000
      4       8.4261      0.00000
      5      11.3004      0.00000
      6      11.5029      0.00000

 k-point  94 :      -0.4643    0.4643    0.3214
  band No.  band energies     occupation 
      1       2.6311      1.00000
      2       2.9209      1.00000
      3       8.3839      0.00000
      4       8.4258      0.00000
      5      12.5019      0.00000
      6      13.4094      0.00000

 k-point  95 :      -0.3929    0.4643    0.3214
  band No.  band energies     occupation 
      1       2.6040      1.00000
      2       2.7117      1.00000
      3       8.3056      0.00000
      4       9.7338      0.00000
      5      11.5312      0.00000
      6      13.2296      0.00000

 k-point  96 :      -0.4643   -0.4643    0.3214
  band No.  band energies     occupation 
      1       2.4985      1.00000
      2       2.6149      1.00000
      3       8.2464      0.00000
      4      10.2077      0.00000
      5      11.9255      0.00000
      6      14.9514      0.00000

 k-point  97 :      -0.3929    0.3929    0.3929
  band No.  band energies     occupation 
      1       2.4734      1.00000
      2       2.5756      1.00000
      3       9.6531      0.00000
      4       9.6532      0.00000
      5      11.5020      0.00000
      6      11.9299      0.00000

 k-point  98 :      -0.4643    0.4643    0.3929
  band No.  band energies     occupation 
      1       2.2418      1.00000
      2       2.3288      1.00000
      3      10.1483      0.00000
      4      10.1547      0.00000
      5      12.3467      0.00000
      6      13.5205      0.00000

 k-point  99 :      -0.4643   -0.4643    0.3929
  band No.  band energies     occupation 
      1       2.1506      1.00000
      2       2.1506      1.00000
      3      10.1885      0.00000
      4      11.8035      0.00000
      5      11.8035      0.00000
      6      15.0515      0.00000

 k-point 100 :      -0.4643    0.4643    0.4643
  band No.  band energies     occupation 
      1       1.9925      1.00000
      2       2.0181      1.00000
      3      11.7578      0.00000
      4      11.7578      0.00000
      5      12.3455      0.00000
      6      13.8579      0.00000


--------------------------------------------------------------------------------------------------------


 soft charge-density along one line, spin component           1
         0         1         2         3         4         5         6         7         8         9
 total charge-density along one line
 
 soft charge-density along one line, spin component           2
         0         1         2         3         4         5         6         7         8         9
 total charge-density along one line
 
 pseudopotential strength for first ion, spin component:           1
 -6.574   0.000   0.003   0.000   0.002   0.090   0.000   0.000
  0.000  -6.571   0.000   0.003   0.000   0.000   0.090   0.000
  0.003   0.000  -6.571   0.000  -0.001   0.000   0.000   0.090
  0.000   0.003   0.000  -6.574   0.000   0.000   0.000   0.000
  0.002   0.000  -0.001   0.000  -6.570   0.000   0.000   0.000
  0.090   0.000   0.000   0.000   0.000   0.071   0.000   0.000
  0.000   0.090   0.000   0.000   0.000   0.000   0.071   0.000
  0.000   0.000   0.090   0.000   0.000   0.000   0.000   0.071
  0.000   0.000   0.000   0.090   0.000   0.000   0.000   0.000
  0.000   0.000   0.000   0.000   0.090   0.000   0.000   0.000
  0.000   0.000   0.000   0.000   0.000   0.000   0.000   0.000
  0.000   0.000   0.000   0.000   0.000   0.000   0.000   0.000
  0.000   0.000   0.000   0.000   0.000   0.000   0.000   0.000
  0.000   0.000   0.000   0.000   0.000   0.000   0.000   0.000
  0.000   0.000   0.000   0.000   0.000   0.000   0.000   0.000
  0.000   0.000   0.000   0.000   0.000   0.000   0.000   0.000
  0.000   0.000   0.000   0.000   0.000   0.000   0.000   0.000
  0.000   0.000   0.000   0.000   0.000   0.000   0.000   0.000
 pseudopotential strength for first ion, spin component:           2
 -6.574   0.000   0.003   0.000   0.001   0.089   0.000   0.000
  0.000  -6.572   0.000   0.003   0.000   0.000   0.089   0.000
  0.003   0.000  -6.571   0.000  -0.001   0.000   0.000   0.089
  0.000   0.003   0.000  -6.574   0.000   0.000   0.000   0.000
  0.001   0.000  -0.001   0.000  -6.570   0.000   0.000   0.000
  0.089   0.000   0.000   0.000   0.000   0.071   0.000   0.000
  0.000   0.089   0.000   0.000   0.000   0.000   0.071   0.000
  0.000   0.000   0.089   0.000   0.000   0.000   0.000   0.071
  0.000   0.000   0.000   0.089   0.000   0.000   0.000   0.000
  0.000   0.000   0.000   0.000   0.089   0.000   0.000   0.000
  0.000   0.000   0.000   0.000   0.000   0.000   0.000   0.000
  0.000   0.000   0.000   0.000   0.000   0.000   0.000   0.000
  0.000   0.000   0.000   0.000   0.000   0.000   0.000   0.000
  0.000   0.000   0.000   0.000   0.000   0.000   0.000   0.000
  0.000   0.000   0.000   0.000   0.000   0.000   0.000   0.000
  0.000   0.000   0.000   0.000   0.000   0.000   0.000   0.000
  0.000   0.000   0.000   0.000   0.000   0.000   0.000   0.000
  0.000   0.000   0.000   0.000   0.000   0.000   0.000   0.000
 total augmentation occupancy for first ion, spin component:           1
  0.639   0.000   0.081   0.000   0.047  -0.519   0.000  -0.020   0.000  -0.012   0.000   0.000   0.000   0.000   0.000   0.000
  0.000   0.705   0.000   0.093   0.000   0.000  -0.536   0.000  -0.024   0.000   0.000   0.000   0.000   0.000   0.000   0.000
  0.081   0.000   0.721   0.000  -0.029  -0.020   0.000  -0.540   0.000   0.007   0.000   0.000   0.000   0.000   0.000   0.000
  0.000   0.093   0.000   0.639   0.000   0.000  -0.024   0.000  -0.519   0.000   0.000   0.000   0.000   0.000   0.000   0.000
  0.047   0.000  -0.029   0.000   0.754  -0.012   0.000   0.007   0.000  -0.548   0.000   0.000   0.000   0.000   0.000   0.000
 -0.519   0.000  -0.020   0.000  -0.012   0.466   0.000  -0.014   0.000  -0.008   0.000   0.000   0.000   0.000   0.000   0.000
  0.000  -0.536   0.000  -0.024   0.000   0.000   0.454   0.000  -0.017   0.000   0.000   0.000   0.000   0.000   0.000   0.000
 -0.020   0.000  -0.540   0.000   0.007  -0.014   0.000   0.452   0.000   0.005   0.000   0.000   0.000   0.000   0.000   0.000
  0.000  -0.024   0.000  -0.519   0.000   0.000  -0.017   0.000   0.466   0.000   0.000   0.000   0.000   0.000   0.000   0.000
 -0.012   0.000   0.007   0.000  -0.548  -0.008   0.000   0.005   0.000   0.446   0.000   0.000   0.000   0.000   0.000   0.000
  0.000   0.000   0.000   0.000   0.000   0.000   0.000   0.000   0.000   0.000   1.403  -0.280   0.000   0.000   0.000   0.000
  0.000   0.000   0.000   0.000   0.000   0.000   0.000   0.000   0.000   0.000  -0.280   0.060   0.000   0.000   0.000   0.000
  0.000   0.000   0.000   0.000   0.000   0.000   0.000   0.000   0.000   0.000   0.000   0.000   0.302   0.000   0.000   0.012
  0.000   0.000   0.000   0.000   0.000   0.000   0.000   0.000   0.000   0.000   0.000   0.000   0.000   0.302   0.000   0.000
  0.000   0.000   0.000   0.000   0.000   0.000   0.000   0.000   0.000   0.000   0.000   0.000   0.000   0.000   0.302   0.000
  0.000   0.000   0.000   0.000   0.000   0.000   0.000   0.000   0.000   0.000   0.000   0.000   0.012   0.000   0.000   0.000
  0.000   0.000   0.000   0.000   0.000   0.000   0.000   0.000   0.000   0.000   0.000   0.000   0.000   0.012   0.000   0.000
  0.000   0.000   0.000   0.000   0.000   0.000   0.000   0.000   0.000   0.000   0.000   0.000   0.000   0.000   0.012   0.000
 total augmentation occupancy for first ion, spin component:           2
 -0.004   0.000  -0.003   0.000  -0.002   0.003   0.000   0.001   0.000   0.001   0.000   0.000   0.000   0.000   0.000   0.000
  0.000  -0.007   0.000  -0.004   0.000   0.000   0.004   0.000   0.002   0.000   0.000   0.000   0.000   0.000   0.000   0.000
 -0.003   0.000  -0.008   0.000   0.001   0.001   0.000   0.004   0.000  -0.001   0.000   0.000   0.000   0.000   0.000   0.000
  0.000  -0.004   0.000  -0.004   0.000   0.000   0.002   0.000   0.003   0.000   0.000   0.000   0.000   0.000   0.000   0.000
 -0.002   0.000   0.001   0.000  -0.009   0.001   0.000  -0.001   0.000   0.005   0.000   0.000   0.000   0.000   0.000   0.000
  0.003   0.000   0.001   0.000   0.001  -0.002   0.000  -0.001   0.000   0.000   0.000   0.000   0.000   0.000   0.000   0.000
  0.000   0.004   0.000   0.002   0.000   0.000  -0.003   0.000  -0.001   0.000   0.000   0.000   0.000   0.000   0.000   0.000
  0.001   0.000   0.004   0.000  -0.001  -0.001   0.000  -0.003   0.000   0.000   0.000   0.000   0.000   0.000   0.000   0.000
  0.000   0.002   0.000   0.003   0.000   0.000  -0.001   0.000  -0.002   0.000   0.000   0.000   0.000   0.000   0.000   0.000
  0.001   0.000  -0.001   0.000   0.005   0.000   0.000   0.000   0.000  -0.003   0.000   0.000   0.000   0.000   0.000   0.000
  0.000   0.000   0.000   0.000   0.000   0.000   0.000   0.000   0.000   0.000  -0.002   0.000   0.000   0.000   0.000   0.000
  0.000   0.000   0.000   0.000   0.000   0.000   0.000   0.000   0.000   0.000   0.000   0.000   0.000   0.000   0.000   0.000
  0.000   0.000   0.000   0.000   0.000   0.000   0.000   0.000   0.000   0.000   0.000   0.000  -0.003   0.000   0.000   0.000
  0.000   0.000   0.000   0.000   0.000   0.000   0.000   0.000   0.000   0.000   0.000   0.000   0.000  -0.003   0.000   0.000
  0.000   0.000   0.000   0.000   0.000   0.000   0.000   0.000   0.000   0.000   0.000   0.000   0.000   0.000  -0.003   0.000
  0.000   0.000   0.000   0.000   0.000   0.000   0.000   0.000   0.000   0.000   0.000   0.000   0.000   0.000   0.000   0.000
  0.000   0.000   0.000   0.000   0.000   0.000   0.000   0.000   0.000   0.000   0.000   0.000   0.000   0.000   0.000   0.000
  0.000   0.000   0.000   0.000   0.000   0.000   0.000   0.000   0.000   0.000   0.000   0.000   0.000   0.000   0.000   0.000


------------------------ aborting loop because EDIFF is reached ----------------------------------------


 


 total charge     
 
# of ion     s       p       d       tot
----------------------------------------
  1        0.709   0.699   3.352   4.760
 


 magnetization (x)
 
# of ion     s       p       d       tot
----------------------------------------
  1       -0.001  -0.004  -0.025  -0.031
 
    CHARGE:  cpu time    0.19: real time    0.19
    FORLOC:  cpu time    0.00: real time    0.00
    FORNL :  cpu time    0.27: real time    0.27
    STRESS:  cpu time    0.60: real time    0.60
    FORCOR:  cpu time    0.14: real time    0.14
    FORHAR:  cpu time    0.01: real time    0.02
    MIXING:  cpu time    0.00: real time    0.00

  FORCE on cell =-STRESS in cart. coord.  units (eV):
  Direction    XX          YY          ZZ          XY          YZ          ZX
  --------------------------------------------------------------------------------------
  Alpha Z    30.58334    30.58334    30.58334
  Ewald     -65.96700   -65.96700   -65.96700     0.00000     0.00000     0.00000
  Hartree     0.19489     0.19489     0.19489     0.00000     0.00000     0.00000
  E(xc)     -22.45810   -22.45810   -22.45810     0.00000     0.00000     0.00000
  Local       3.84156     3.84156     3.84156     0.00000     0.00000     0.00000
  n-local    -7.86625    -8.58880    -5.48498     1.71443    -2.23440    -1.65594
  augment     2.91422     2.91422     2.91422     0.00000     0.00000     0.00000
  Kinetic    59.56773    60.02594    54.74358    -0.34642     2.95360     1.71866
  Fock        0.00000     0.00000     0.00000     0.00000     0.00000     0.00000
  -------------------------------------------------------------------------------------
  Total      -0.09202    -0.09202    -0.09202     0.00000     0.00000     0.00000
  in kB      -8.13132    -8.13132    -8.13132     0.00000     0.00000     0.00000
  external pressure =       -8.13 kB  Pullay stress =        0.00 kB


 VOLUME and BASIS-vectors are now :
 -----------------------------------------------------------------------------
  energy-cutoff  :      350.00
  volume of cell :       18.13
      direct lattice vectors                 reciprocal lattice vectors
     2.866544087  0.000000000  0.000000000     0.348852126  0.123337852  0.213627426
    -0.955514696  2.702603683  0.000000000     0.000000000  0.370013556  0.213627426
    -0.955514696 -1.351301841  2.340523446     0.000000000  0.000000000  0.427254853

  length of vectors
     2.866544087  2.866544087  2.866544087     0.427254853  0.427254853  0.427254853


 FORCES acting on ions
    electron-ion (+dipol)            ewald-force                    non-local-force                 convergence-correction
 -----------------------------------------------------------------------------------------------
   0.628E-15 -.111E-15 0.192E-14   -.279E-15 -.214E-15 0.640E-15   0.186E-23 0.827E-24 0.000E+00   -.502E-15 -.218E-15 -.671E-16
 -----------------------------------------------------------------------------------------------
   0.628E-15 -.111E-15 0.192E-14   -.279E-15 -.214E-15 0.640E-15   0.186E-23 0.827E-24 0.000E+00   -.502E-15 -.218E-15 -.671E-16
 
 
 POSITION                                       TOTAL-FORCE (eV/Angst)
 -----------------------------------------------------------------------------------
      0.00000      0.00000      0.00000         0.000000      0.000000      0.000000
 -----------------------------------------------------------------------------------
    total drift:                                0.000000      0.000000      0.000000


--------------------------------------------------------------------------------------------------------



  FREE ENERGIE OF THE ION-ELECTRON SYSTEM (eV)
  ---------------------------------------------------
  free  energy   TOTEN  =       -11.856228 eV

  energy  without entropy=      -11.856062  energy(sigma->0) =      -11.856172
 


--------------------------------------------------------------------------------------------------------


    POTLOK:  cpu time    0.17: real time    0.17


--------------------------------------------------------------------------------------------------------


 writing wavefunctions
     LOOP+:  cpu time   35.93: real time   36.43
    4ORBIT:  cpu time    0.00: real time    0.00
 


 total charge     
 
# of ion     s       p       d       tot
----------------------------------------
  1        0.709   0.699   3.352   4.760
 


 magnetization (x)
 
# of ion     s       p       d       tot
----------------------------------------
  1       -0.001  -0.004  -0.025  -0.031
 

 total amount of memory used by VASP on root node    45345. kBytes
========================================================================

   base      :      30000. kBytes
   nonl-proj :       3993. kBytes
   fftplans  :       1676. kBytes
   grid      :       3981. kBytes
   one-center:         31. kBytes
   wavefun   :       5664. kBytes
 
  
  
 General timing and accounting informations for this job:
 ========================================================
  
                  Total CPU time used (sec):       36.594
                            User time (sec):       36.469
                          System time (sec):        0.125
                         Elapsed time (sec):       37.435
  
                   Maximum memory used (kb):           0.
                   Average memory used (kb):           0.
  
                          Minor page faults:        11493
                          Major page faults:            0
                 Voluntary context switches:          930
