PROCAR lm decomposed
# of k-points:  100         # of bands:   6         # of ions:   1

 k-point    1 :    0.03571429 0.03571429 0.03571429     weight = 0.00291545

band   1 # energy   -1.83399200 # occ.  1.00000000
 
ion      s     py     pz     px    dxy    dyz    dz2    dxz    dx2    tot
  1  0.835  0.006  0.017  0.003  0.000  0.000  0.000  0.000  0.000  0.861
 
band   2 # energy    6.28135696 # occ.  0.00000000
 
ion      s     py     pz     px    dxy    dyz    dz2    dxz    dx2    tot
  1  0.000  0.002  0.001  0.000  0.225  0.160  0.349  0.054  0.255  1.046
 
band   3 # energy    6.28135696 # occ.  0.00000000
 
ion      s     py     pz     px    dxy    dyz    dz2    dxz    dx2    tot
  1  0.000  0.000  0.000  0.003  0.003  0.072  0.220  0.065  0.683  1.046
 
band   4 # energy    6.84740373 # occ.  0.00000000
 
ion      s     py     pz     px    dxy    dyz    dz2    dxz    dx2    tot
  1  0.000  0.003  0.008  0.001  0.076  0.459  0.258  0.229  0.010  1.043
 
band   5 # energy    9.53381918 # occ.  0.00000000
 
ion      s     py     pz     px    dxy    dyz    dz2    dxz    dx2    tot
  1  0.000  0.000  0.000  0.000  0.011  0.295  0.002  0.602  0.003  0.913
 
band   6 # energy    9.53381918 # occ.  0.00000000
 
ion      s     py     pz     px    dxy    dyz    dz2    dxz    dx2    tot
  1  0.000  0.000  0.000  0.000  0.646  0.009  0.171  0.002  0.086  0.913
 

 k-point    2 :    0.10714286 0.03571429 0.03571429     weight = 0.00874636

band   1 # energy   -1.21353259 # occ.  1.00000000
 
ion      s     py     pz     px    dxy    dyz    dz2    dxz    dx2    tot
  1  0.794  0.012  0.035  0.023  0.001  0.003  0.001  0.004  0.000  0.873
 
band   2 # energy    5.88022187 # occ. -0.00000067
 
ion      s     py     pz     px    dxy    dyz    dz2    dxz    dx2    tot
  1  0.000  0.003  0.001  0.000  0.187  0.196  0.440  0.062  0.147  1.036
 
band   3 # energy    6.03827955 # occ.  0.00000000
 
ion      s     py     pz     px    dxy    dyz    dz2    dxz    dx2    tot
  1  0.001  0.000  0.000  0.021  0.054  0.058  0.089  0.162  0.631  1.017
 
band   4 # energy    7.55011841 # occ.  0.00000000
 
ion      s     py     pz     px    dxy    dyz    dz2    dxz    dx2    tot
  1  0.001  0.008  0.023  0.000  0.065  0.343  0.307  0.196  0.080  1.024
 
band   5 # energy    9.16942272 # occ.  0.00000000
 
ion      s     py     pz     px    dxy    dyz    dz2    dxz    dx2    tot
  1  0.000  0.000  0.000  0.000  0.106  0.329  0.033  0.319  0.121  0.909
 
band   6 # energy    9.63383254 # occ.  0.00000000
 
ion      s     py     pz     px    dxy    dyz    dz2    dxz    dx2    tot
  1  0.000  0.001  0.000  0.000  0.538  0.049  0.110  0.179  0.037  0.914
 

 k-point    3 :    0.17857143 0.03571429 0.03571429     weight = 0.00874636

band   1 # energy   -0.30248612 # occ.  1.00000000
 
ion      s     py     pz     px    dxy    dyz    dz2    dxz    dx2    tot
  1  0.721  0.018  0.053  0.053  0.008  0.009  0.000  0.024  0.006  0.893
 
band   2 # energy    5.38076964 # occ.  1.00000000
 
ion      s     py     pz     px    dxy    dyz    dz2    dxz    dx2    tot
  1  0.000  0.004  0.001  0.000  0.185  0.195  0.438  0.062  0.146  1.031
 
band   3 # energy    5.65725983 # occ.  0.95632265
 
ion      s     py     pz     px    dxy    dyz    dz2    dxz    dx2    tot
  1  0.006  0.002  0.007  0.063  0.090  0.028  0.072  0.271  0.434  0.975
 
band   4 # energy    8.60978596 # occ.  0.00000000
 
ion      s     py     pz     px    dxy    dyz    dz2    dxz    dx2    tot
  1  0.002  0.014  0.041  0.000  0.070  0.184  0.288  0.209  0.189  0.995
 
band   5 # energy    9.08706328 # occ.  0.00000000
 
ion      s     py     pz     px    dxy    dyz    dz2    dxz    dx2    tot
  1  0.001  0.001  0.002  0.002  0.052  0.497  0.052  0.155  0.176  0.936
 
band   6 # energy    9.78040902 # occ.  0.00000000
 
ion      s     py     pz     px    dxy    dyz    dz2    dxz    dx2    tot
  1  0.000  0.002  0.001  0.000  0.539  0.048  0.109  0.180  0.036  0.915
 

 k-point    4 :    0.25000000 0.03571429 0.03571429     weight = 0.00874636

band   1 # energy    0.65457913 # occ.  1.00000000
 
ion      s     py     pz     px    dxy    dyz    dz2    dxz    dx2    tot
  1  0.602  0.020  0.060  0.064  0.030  0.018  0.000  0.091  0.034  0.920
 
band   2 # energy    4.90090772 # occ.  1.00000000
 
ion      s     py     pz     px    dxy    dyz    dz2    dxz    dx2    tot
  1  0.000  0.005  0.002  0.000  0.197  0.191  0.430  0.066  0.143  1.033
 
band   3 # energy    5.42039004 # occ.  1.00000000
 
ion      s     py     pz     px    dxy    dyz    dz2    dxz    dx2    tot
  1  0.032  0.010  0.031  0.151  0.094  0.005  0.065  0.282  0.270  0.938
 
band   4 # energy    9.26714895 # occ.  0.00000000
 
ion      s     py     pz     px    dxy    dyz    dz2    dxz    dx2    tot
  1  0.003  0.000  0.000  0.010  0.060  0.353  0.003  0.180  0.351  0.959
 
band   5 # energy    9.98642296 # occ.  0.00000000
 
ion      s     py     pz     px    dxy    dyz    dz2    dxz    dx2    tot
  1  0.000  0.003  0.001  0.000  0.531  0.053  0.119  0.177  0.040  0.923
 
band   6 # energy   10.01817272 # occ.  0.00000000
 
ion      s     py     pz     px    dxy    dyz    dz2    dxz    dx2    tot
  1  0.001  0.021  0.063  0.000  0.030  0.326  0.331  0.091  0.113  0.977
 

 k-point    5 :    0.32142857 0.03571429 0.03571429     weight = 0.00874636

band   1 # energy    1.28319080 # occ.  1.00000000
 
ion      s     py     pz     px    dxy    dyz    dz2    dxz    dx2    tot
  1  0.440  0.014  0.043  0.033  0.075  0.025  0.005  0.225  0.091  0.951
 
band   2 # energy    4.51539577 # occ.  1.00000000
 
ion      s     py     pz     px    dxy    dyz    dz2    dxz    dx2    tot
  1  0.000  0.005  0.002  0.000  0.215  0.186  0.418  0.072  0.139  1.036
 
band   3 # energy    5.75877775 # occ. -0.03370572
 
ion      s     py     pz     px    dxy    dyz    dz2    dxz    dx2    tot
  1  0.073  0.029  0.086  0.302  0.058  0.001  0.054  0.173  0.133  0.910
 
band   4 # energy    9.55583095 # occ.  0.00000000
 
ion      s     py     pz     px    dxy    dyz    dz2    dxz    dx2    tot
  1  0.010  0.001  0.004  0.024  0.046  0.427  0.012  0.137  0.317  0.979
 
band   5 # energy   10.24402997 # occ.  0.00000000
 
ion      s     py     pz     px    dxy    dyz    dz2    dxz    dx2    tot
  1  0.000  0.002  0.001  0.000  0.522  0.061  0.137  0.174  0.046  0.943
 
band   6 # energy   11.56750083 # occ.  0.00000000
 
ion      s     py     pz     px    dxy    dyz    dz2    dxz    dx2    tot
  1  0.000  0.023  0.069  0.000  0.032  0.233  0.326  0.097  0.185  0.966
 

 k-point    6 :    0.39285714 0.03571429 0.03571429     weight = 0.00874636

band   1 # energy    1.47586187 # occ.  1.00000000
 
ion      s     py     pz     px    dxy    dyz    dz2    dxz    dx2    tot
  1  0.321  0.006  0.019  0.004  0.113  0.025  0.011  0.339  0.134  0.971
 
band   2 # energy    4.26901869 # occ.  1.00000000
 
ion      s     py     pz     px    dxy    dyz    dz2    dxz    dx2    tot
  1  0.000  0.006  0.002  0.000  0.236  0.179  0.404  0.079  0.135  1.041
 
band   3 # energy    6.60976101 # occ.  0.00000000
 
ion      s     py     pz     px    dxy    dyz    dz2    dxz    dx2    tot
  1  0.052  0.052  0.157  0.469  0.016  0.011  0.039  0.047  0.048  0.891
 
band   4 # energy    9.66950778 # occ.  0.00000000
 
ion      s     py     pz     px    dxy    dyz    dz2    dxz    dx2    tot
  1  0.039  0.002  0.007  0.026  0.051  0.439  0.023  0.152  0.250  0.988
 
band   5 # energy   10.48556141 # occ.  0.00000000
 
ion      s     py     pz     px    dxy    dyz    dz2    dxz    dx2    tot
  1  0.000  0.001  0.000  0.000  0.513  0.071  0.160  0.171  0.053  0.970
 
band   6 # energy   12.99026887 # occ.  0.00000000
 
ion      s     py     pz     px    dxy    dyz    dz2    dxz    dx2    tot
  1  0.000  0.016  0.047  0.003  0.030  0.189  0.341  0.089  0.259  0.973
 

 k-point    7 :    0.46428571 0.03571429 0.03571429     weight = 0.00437318

band   1 # energy    1.49448731 # occ.  1.00000000
 
ion      s     py     pz     px    dxy    dyz    dz2    dxz    dx2    tot
  1  0.285  0.001  0.004  0.003  0.125  0.024  0.014  0.374  0.147  0.976
 
band   2 # energy    4.18445264 # occ.  1.00000000
 
ion      s     py     pz     px    dxy    dyz    dz2    dxz    dx2    tot
  1  0.000  0.006  0.002  0.000  0.259  0.172  0.388  0.086  0.129  1.042
 
band   3 # energy    7.12934966 # occ.  0.00000000
 
ion      s     py     pz     px    dxy    dyz    dz2    dxz    dx2    tot
  1  0.000  0.070  0.209  0.556  0.001  0.008  0.017  0.004  0.016  0.880
 
band   4 # energy    9.61733809 # occ.  0.00000000
 
ion      s     py     pz     px    dxy    dyz    dz2    dxz    dx2    tot
  1  0.076  0.000  0.000  0.000  0.057  0.465  0.044  0.170  0.178  0.990
 
band   5 # energy   10.58921116 # occ.  0.00000000
 
ion      s     py     pz     px    dxy    dyz    dz2    dxz    dx2    tot
  1  0.000  0.000  0.000  0.000  0.492  0.082  0.185  0.164  0.062  0.984
 
band   6 # energy   13.63938707 # occ.  0.00000000
 
ion      s     py     pz     px    dxy    dyz    dz2    dxz    dx2    tot
  1  0.000  0.003  0.008  0.022  0.026  0.159  0.357  0.079  0.331  0.985
 

 k-point    8 :   -0.03571429 0.03571429 0.03571429     weight = 0.00218659

band   1 # energy   -2.05163362 # occ.  1.00000000
 
ion      s     py     pz     px    dxy    dyz    dz2    dxz    dx2    tot
  1  0.848  0.001  0.004  0.003  0.000  0.000  0.000  0.000  0.000  0.857
 
band   2 # energy    6.44027573 # occ.  0.00000000
 
ion      s     py     pz     px    dxy    dyz    dz2    dxz    dx2    tot
  1  0.000  0.000  0.001  0.002  0.029  0.175  0.394  0.087  0.364  1.052
 
band   3 # energy    6.44027627 # occ.  0.00000000
 
ion      s     py     pz     px    dxy    dyz    dz2    dxz    dx2    tot
  1  0.000  0.002  0.001  0.000  0.262  0.175  0.394  0.087  0.131  1.052
 
band   4 # energy    6.51178801 # occ.  0.00000000
 
ion      s     py     pz     px    dxy    dyz    dz2    dxz    dx2    tot
  1  0.000  0.000  0.000  0.000  0.059  0.352  0.000  0.176  0.469  1.055
 
band   5 # energy    9.49478383 # occ.  0.00000000
 
ion      s     py     pz     px    dxy    dyz    dz2    dxz    dx2    tot
  1  0.000  0.000  0.000  0.000  0.457  0.076  0.171  0.152  0.057  0.914
 
band   6 # energy    9.75248769 # occ.  0.00000000
 
ion      s     py     pz     px    dxy    dyz    dz2    dxz    dx2    tot
  1  0.000  0.000  0.000  0.000  0.154  0.232  0.058  0.463  0.019  0.927
 

 k-point    9 :    0.10714286 0.10714286 0.03571429     weight = 0.00874636

band   1 # energy   -0.45496071 # occ.  1.00000000
 
ion      s     py     pz     px    dxy    dyz    dz2    dxz    dx2    tot
  1  0.739  0.042  0.055  0.021  0.004  0.016  0.001  0.008  0.000  0.888
 
band   2 # energy    5.50653201 # occ.  1.00000107
 
ion      s     py     pz     px    dxy    dyz    dz2    dxz    dx2    tot
  1  0.001  0.012  0.000  0.006  0.043  0.272  0.546  0.136  0.005  1.021
 
band   3 # energy    5.55568323 # occ.  1.00040685
 
ion      s     py     pz     px    dxy    dyz    dz2    dxz    dx2    tot
  1  0.000  0.011  0.000  0.022  0.097  0.031  0.000  0.062  0.776  1.000
 
band   4 # energy    8.55523183 # occ.  0.00000000
 
ion      s     py     pz     px    dxy    dyz    dz2    dxz    dx2    tot
  1  0.002  0.012  0.049  0.006  0.112  0.341  0.295  0.170  0.014  1.001
 
band   5 # energy    9.06778753 # occ.  0.00000000
 
ion      s     py     pz     px    dxy    dyz    dz2    dxz    dx2    tot
  1  0.000  0.000  0.000  0.000  0.015  0.261  0.000  0.522  0.117  0.914
 
band   6 # energy    9.77035944 # occ.  0.00000000
 
ion      s     py     pz     px    dxy    dyz    dz2    dxz    dx2    tot
  1  0.001  0.000  0.001  0.000  0.687  0.022  0.121  0.011  0.086  0.929
 

 k-point   10 :    0.17857143 0.10714286 0.03571429     weight = 0.01749271

band   1 # energy    0.51531606 # occ.  1.00000000
 
ion      s     py     pz     px    dxy    dyz    dz2    dxz    dx2    tot
  1  0.650  0.050  0.073  0.044  0.017  0.033  0.000  0.040  0.002  0.908
 
band   2 # energy    5.02926911 # occ.  1.00000000
 
ion      s     py     pz     px    dxy    dyz    dz2    dxz    dx2    tot
  1  0.000  0.024  0.001  0.007  0.166  0.224  0.284  0.002  0.302  1.010
 
band   3 # energy    5.18029643 # occ.  1.00000000
 
ion      s     py     pz     px    dxy    dyz    dz2    dxz    dx2    tot
  1  0.008  0.003  0.003  0.076  0.008  0.036  0.253  0.276  0.317  0.980
 
band   4 # energy    9.08846299 # occ.  0.00000000
 
ion      s     py     pz     px    dxy    dyz    dz2    dxz    dx2    tot
  1  0.001  0.000  0.000  0.002  0.002  0.280  0.001  0.417  0.228  0.931
 
band   5 # energy    9.87590379 # occ.  0.00000000
 
ion      s     py     pz     px    dxy    dyz    dz2    dxz    dx2    tot
  1  0.004  0.026  0.075  0.007  0.139  0.333  0.253  0.099  0.043  0.978
 
band   6 # energy   10.04241861 # occ.  0.00000000
 
ion      s     py     pz     px    dxy    dyz    dz2    dxz    dx2    tot
  1  0.002  0.000  0.002  0.000  0.629  0.021  0.160  0.054  0.077  0.945
 

 k-point   11 :    0.25000000 0.10714286 0.03571429     weight = 0.01749271

band   1 # energy    1.38910259 # occ.  1.00000000
 
ion      s     py     pz     px    dxy    dyz    dz2    dxz    dx2    tot
  1  0.509  0.048  0.072  0.037  0.047  0.049  0.004  0.139  0.030  0.936
 
band   2 # energy    4.62111596 # occ.  1.00000000
 
ion      s     py     pz     px    dxy    dyz    dz2    dxz    dx2    tot
  1  0.000  0.024  0.003  0.008  0.191  0.229  0.327  0.009  0.228  1.019
 
band   3 # energy    5.14988670 # occ.  1.00000000
 
ion      s     py     pz     px    dxy    dyz    dz2    dxz    dx2    tot
  1  0.041  0.015  0.028  0.186  0.005  0.002  0.180  0.251  0.239  0.947
 
band   4 # energy    9.33361449 # occ.  0.00000000
 
ion      s     py     pz     px    dxy    dyz    dz2    dxz    dx2    tot
  1  0.003  0.000  0.000  0.010  0.001  0.350  0.000  0.313  0.274  0.951
 
band   5 # energy   10.28256914 # occ.  0.00000000
 
ion      s     py     pz     px    dxy    dyz    dz2    dxz    dx2    tot
  1  0.007  0.001  0.001  0.000  0.645  0.003  0.161  0.060  0.082  0.959
 
band   6 # energy   11.40790087 # occ.  0.00000000
 
ion      s     py     pz     px    dxy    dyz    dz2    dxz    dx2    tot
  1  0.002  0.038  0.098  0.011  0.080  0.281  0.277  0.102  0.076  0.965
 

 k-point   12 :    0.32142857 0.10714286 0.03571429     weight = 0.01749271

band   1 # energy    1.80514180 # occ.  1.00000000
 
ion      s     py     pz     px    dxy    dyz    dz2    dxz    dx2    tot
  1  0.350  0.033  0.045  0.006  0.085  0.049  0.016  0.287  0.091  0.963
 
band   2 # energy    4.34309091 # occ.  1.00000000
 
ion      s     py     pz     px    dxy    dyz    dz2    dxz    dx2    tot
  1  0.000  0.027  0.003  0.004  0.216  0.221  0.362  0.030  0.165  1.029
 
band   3 # energy    5.73920635 # occ. -0.01898772
 
ion      s     py     pz     px    dxy    dyz    dz2    dxz    dx2    tot
  1  0.066  0.037  0.088  0.344  0.000  0.013  0.094  0.118  0.157  0.916
 
band   4 # energy    9.60476568 # occ.  0.00000000
 
ion      s     py     pz     px    dxy    dyz    dz2    dxz    dx2    tot
  1  0.016  0.001  0.002  0.021  0.006  0.388  0.004  0.246  0.287  0.970
 
band   5 # energy   10.47780683 # occ.  0.00000000
 
ion      s     py     pz     px    dxy    dyz    dz2    dxz    dx2    tot
  1  0.011  0.002  0.000  0.003  0.593  0.003  0.218  0.099  0.044  0.973
 
band   6 # energy   12.94017369 # occ.  0.00000000
 
ion      s     py     pz     px    dxy    dyz    dz2    dxz    dx2    tot
  1  0.000  0.041  0.097  0.021  0.074  0.227  0.271  0.082  0.146  0.959
 

 k-point   13 :    0.39285714 0.10714286 0.03571429     weight = 0.01749271

band   1 # energy    1.87564487 # occ.  1.00000000
 
ion      s     py     pz     px    dxy    dyz    dz2    dxz    dx2    tot
  1  0.270  0.019  0.020  0.003  0.100  0.041  0.023  0.371  0.128  0.975
 
band   2 # energy    4.20102351 # occ.  1.00000000
 
ion      s     py     pz     px    dxy    dyz    dz2    dxz    dx2    tot
  1  0.000  0.030  0.002  0.002  0.256  0.201  0.360  0.048  0.133  1.033
 
band   3 # energy    6.49917679 # occ.  0.00000000
 
ion      s     py     pz     px    dxy    dyz    dz2    dxz    dx2    tot
  1  0.016  0.055  0.155  0.460  0.022  0.042  0.038  0.014  0.096  0.899
 
band   4 # energy    9.66028782 # occ.  0.00000000
 
ion      s     py     pz     px    dxy    dyz    dz2    dxz    dx2    tot
  1  0.058  0.000  0.001  0.008  0.039  0.394  0.039  0.207  0.232  0.978
 
band   5 # energy   10.65371632 # occ.  0.00000000
 
ion      s     py     pz     px    dxy    dyz    dz2    dxz    dx2    tot
  1  0.003  0.003  0.004  0.017  0.484  0.032  0.259  0.165  0.018  0.984
 
band   6 # energy   14.03882225 # occ.  0.00000000
 
ion      s     py     pz     px    dxy    dyz    dz2    dxz    dx2    tot
  1  0.000  0.023  0.056  0.049  0.061  0.181  0.274  0.059  0.262  0.964
 

 k-point   14 :   -0.10714286 0.10714286 0.03571429     weight = 0.00874636

band   1 # energy   -1.61974219 # occ.  1.00000000
 
ion      s     py     pz     px    dxy    dyz    dz2    dxz    dx2    tot
  1  0.821  0.012  0.004  0.025  0.001  0.000  0.001  0.000  0.000  0.865
 
band   2 # energy    6.18574150 # occ.  0.00000000
 
ion      s     py     pz     px    dxy    dyz    dz2    dxz    dx2    tot
  1  0.000  0.002  0.000  0.001  0.002  0.682  0.000  0.341  0.016  1.044
 
band   3 # energy    6.34311535 # occ.  0.00000000
 
ion      s     py     pz     px    dxy    dyz    dz2    dxz    dx2    tot
  1  0.000  0.005  0.001  0.010  0.328  0.000  0.649  0.000  0.041  1.034
 
band   4 # energy    6.92951847 # occ.  0.00000000
 
ion      s     py     pz     px    dxy    dyz    dz2    dxz    dx2    tot
  1  0.000  0.007  0.000  0.004  0.112  0.014  0.000  0.007  0.895  1.038
 
band   5 # energy    9.03657511 # occ.  0.00000000
 
ion      s     py     pz     px    dxy    dyz    dz2    dxz    dx2    tot
  1  0.000  0.000  0.000  0.000  0.389  0.053  0.297  0.105  0.049  0.892
 
band   6 # energy    9.84083642 # occ.  0.00000000
 
ion      s     py     pz     px    dxy    dyz    dz2    dxz    dx2    tot
  1  0.000  0.000  0.001  0.000  0.093  0.253  0.061  0.506  0.012  0.926
 

 k-point   15 :    0.17857143 0.17857143 0.03571429     weight = 0.00874636

band   1 # energy    1.47455374 # occ.  1.00000000
 
ion      s     py     pz     px    dxy    dyz    dz2    dxz    dx2    tot
  1  0.546  0.073  0.089  0.036  0.017  0.106  0.005  0.053  0.002  0.927
 
band   2 # energy    4.65008543 # occ.  1.00000000
 
ion      s     py     pz     px    dxy    dyz    dz2    dxz    dx2    tot
  1  0.000  0.032  0.000  0.064  0.074  0.069  0.000  0.137  0.592  0.968
 
band   3 # energy    4.88879026 # occ.  1.00000000
 
ion      s     py     pz     px    dxy    dyz    dz2    dxz    dx2    tot
  1  0.015  0.059  0.003  0.029  0.061  0.206  0.522  0.103  0.008  1.007
 
band   4 # energy    9.17326272 # occ.  0.00000000
 
ion      s     py     pz     px    dxy    dyz    dz2    dxz    dx2    tot
  1  0.000  0.001  0.000  0.003  0.030  0.222  0.000  0.443  0.238  0.937
 
band   5 # energy   10.34982286 # occ.  0.00000000
 
ion      s     py     pz     px    dxy    dyz    dz2    dxz    dx2    tot
  1  0.011  0.000  0.001  0.000  0.655  0.035  0.169  0.017  0.082  0.970
 
band   6 # energy   11.39000198 # occ.  0.00000000
 
ion      s     py     pz     px    dxy    dyz    dz2    dxz    dx2    tot
  1  0.004  0.040  0.107  0.020  0.137  0.257  0.253  0.129  0.017  0.964
 

 k-point   16 :    0.25000000 0.17857143 0.03571429     weight = 0.01749271

band   1 # energy    2.22103604 # occ.  1.00000000
 
ion      s     py     pz     px    dxy    dyz    dz2    dxz    dx2    tot
  1  0.391  0.060  0.083  0.017  0.038  0.133  0.034  0.186  0.014  0.955
 
band   2 # energy    4.38811015 # occ.  1.00000000
 
ion      s     py     pz     px    dxy    dyz    dz2    dxz    dx2    tot
  1  0.000  0.054  0.002  0.053  0.152  0.212  0.115  0.026  0.367  0.983
 
band   3 # energy    4.99545447 # occ.  1.00000000
 
ion      s     py     pz     px    dxy    dyz    dz2    dxz    dx2    tot
  1  0.044  0.056  0.028  0.164  0.049  0.021  0.337  0.153  0.119  0.970
 
band   4 # energy    9.42864105 # occ.  0.00000000
 
ion      s     py     pz     px    dxy    dyz    dz2    dxz    dx2    tot
  1  0.002  0.000  0.000  0.011  0.011  0.274  0.000  0.367  0.283  0.949
 
band   5 # energy   10.50389645 # occ.  0.00000000
 
ion      s     py     pz     px    dxy    dyz    dz2    dxz    dx2    tot
  1  0.026  0.000  0.000  0.001  0.591  0.017  0.251  0.038  0.060  0.984
 
band   6 # energy   13.01700569 # occ.  0.00000000
 
ion      s     py     pz     px    dxy    dyz    dz2    dxz    dx2    tot
  1  0.003  0.061  0.122  0.033  0.144  0.222  0.224  0.093  0.052  0.954
 

 k-point   17 :    0.32142857 0.17857143 0.03571429     weight = 0.01749271

band   1 # energy    2.46607022 # occ.  1.00000000
 
ion      s     py     pz     px    dxy    dyz    dz2    dxz    dx2    tot
  1  0.258  0.041  0.049  0.000  0.052  0.106  0.057  0.340  0.071  0.975
 
band   2 # energy    4.26894299 # occ.  1.00000000
 
ion      s     py     pz     px    dxy    dyz    dz2    dxz    dx2    tot
  1  0.000  0.072  0.002  0.023  0.228  0.241  0.243  0.000  0.197  1.006
 
band   3 # energy    5.57363712 # occ.  1.00209410
 
ion      s     py     pz     px    dxy    dyz    dz2    dxz    dx2    tot
  1  0.037  0.058  0.089  0.320  0.071  0.020  0.119  0.058  0.155  0.927
 
band   4 # energy    9.67006921 # occ.  0.00000000
 
ion      s     py     pz     px    dxy    dyz    dz2    dxz    dx2    tot
  1  0.024  0.000  0.001  0.014  0.003  0.316  0.020  0.291  0.292  0.962
 
band   5 # energy   10.60140470 # occ.  0.00000000
 
ion      s     py     pz     px    dxy    dyz    dz2    dxz    dx2    tot
  1  0.026  0.002  0.001  0.013  0.490  0.000  0.339  0.105  0.010  0.986
 
band   6 # energy   14.46480029 # occ.  0.00000000
 
ion      s     py     pz     px    dxy    dyz    dz2    dxz    dx2    tot
  1  0.000  0.061  0.109  0.066  0.135  0.185  0.201  0.057  0.133  0.947
 

 k-point   18 :    0.39285714 0.17857143 0.03571429     weight = 0.00874636

band   1 # energy    2.48512615 # occ.  1.00000000
 
ion      s     py     pz     px    dxy    dyz    dz2    dxz    dx2    tot
  1  0.219  0.026  0.022  0.022  0.046  0.084  0.057  0.400  0.104  0.980
 
band   2 # energy    4.23164603 # occ.  1.00000000
 
ion      s     py     pz     px    dxy    dyz    dz2    dxz    dx2    tot
  1  0.000  0.084  0.000  0.008  0.325  0.197  0.269  0.008  0.121  1.014
 
band   3 # energy    5.94267545 # occ.  0.00000000
 
ion      s     py     pz     px    dxy    dyz    dz2    dxz    dx2    tot
  1  0.000  0.047  0.140  0.374  0.104  0.088  0.022  0.000  0.138  0.913
 
band   4 # energy    9.70544260 # occ.  0.00000000
 
ion      s     py     pz     px    dxy    dyz    dz2    dxz    dx2    tot
  1  0.058  0.002  0.000  0.001  0.023  0.350  0.099  0.217  0.217  0.966
 
band   5 # energy   10.72263107 # occ.  0.00000000
 
ion      s     py     pz     px    dxy    dyz    dz2    dxz    dx2    tot
  1  0.000  0.004  0.011  0.030  0.345  0.016  0.360  0.220  0.001  0.987
 
band   6 # energy   15.13464578 # occ.  0.00000000
 
ion      s     py     pz     px    dxy    dyz    dz2    dxz    dx2    tot
  1  0.000  0.018  0.054  0.146  0.084  0.161  0.172  0.023  0.292  0.951
 

 k-point   19 :   -0.17857143 0.17857143 0.03571429     weight = 0.00874636

band   1 # energy   -0.82883976 # occ.  1.00000000
 
ion      s     py     pz     px    dxy    dyz    dz2    dxz    dx2    tot
  1  0.765  0.030  0.004  0.061  0.012  0.000  0.006  0.001  0.002  0.881
 
band   2 # energy    5.73516781 # occ. -0.00549508
 
ion      s     py     pz     px    dxy    dyz    dz2    dxz    dx2    tot
  1  0.000  0.002  0.000  0.001  0.001  0.686  0.000  0.343  0.004  1.036
 
band   3 # energy    6.03226637 # occ.  0.00000000
 
ion      s     py     pz     px    dxy    dyz    dz2    dxz    dx2    tot
  1  0.003  0.017  0.001  0.034  0.481  0.001  0.392  0.002  0.060  0.990
 
band   4 # energy    7.78489556 # occ.  0.00000000
 
ion      s     py     pz     px    dxy    dyz    dz2    dxz    dx2    tot
  1  0.000  0.019  0.000  0.010  0.109  0.004  0.000  0.002  0.871  1.015
 
band   5 # energy    8.74228065 # occ.  0.00000000
 
ion      s     py     pz     px    dxy    dyz    dz2    dxz    dx2    tot
  1  0.000  0.000  0.000  0.001  0.229  0.042  0.519  0.084  0.029  0.905
 
band   6 # energy    9.92866067 # occ.  0.00000000
 
ion      s     py     pz     px    dxy    dyz    dz2    dxz    dx2    tot
  1  0.002  0.000  0.002  0.000  0.060  0.261  0.073  0.521  0.007  0.926
 

 k-point   20 :   -0.10714286 0.17857143 0.03571429     weight = 0.00874636

band   1 # energy   -1.00894152 # occ.  1.00000000
 
ion      s     py     pz     px    dxy    dyz    dz2    dxz    dx2    tot
  1  0.779  0.045  0.016  0.024  0.005  0.004  0.001  0.001  0.001  0.876
 
band   2 # energy    5.98809954 # occ.  0.00000000
 
ion      s     py     pz     px    dxy    dyz    dz2    dxz    dx2    tot
  1  0.001  0.010  0.000  0.002  0.072  0.524  0.209  0.186  0.026  1.030
 
band   3 # energy    6.08524972 # occ.  0.00000000
 
ion      s     py     pz     px    dxy    dyz    dz2    dxz    dx2    tot
  1  0.000  0.002  0.007  0.017  0.110  0.214  0.235  0.032  0.394  1.011
 
band   4 # energy    7.51027799 # occ.  0.00000000
 
ion      s     py     pz     px    dxy    dyz    dz2    dxz    dx2    tot
  1  0.000  0.025  0.001  0.001  0.251  0.036  0.137  0.025  0.543  1.020
 
band   5 # energy    8.50954077 # occ.  0.00000000
 
ion      s     py     pz     px    dxy    dyz    dz2    dxz    dx2    tot
  1  0.000  0.000  0.000  0.000  0.345  0.021  0.314  0.200  0.003  0.883
 
band   6 # energy   10.06655687 # occ.  0.00000000
 
ion      s     py     pz     px    dxy    dyz    dz2    dxz    dx2    tot
  1  0.003  0.000  0.002  0.001  0.124  0.175  0.090  0.522  0.022  0.937
 

 k-point   21 :    0.25000000 0.25000000 0.03571429     weight = 0.00874636

band   1 # energy    2.84970198 # occ.  1.00000000
 
ion      s     py     pz     px    dxy    dyz    dz2    dxz    dx2    tot
  1  0.261  0.022  0.076  0.011  0.004  0.328  0.116  0.164  0.001  0.983
 
band   2 # energy    4.29994370 # occ.  1.00000000
 
ion      s     py     pz     px    dxy    dyz    dz2    dxz    dx2    tot
  1  0.000  0.066  0.000  0.131  0.058  0.081  0.000  0.161  0.460  0.957
 
band   3 # energy    5.05839560 # occ.  1.00000000
 
ion      s     py     pz     px    dxy    dyz    dz2    dxz    dx2    tot
  1  0.040  0.179  0.050  0.089  0.233  0.030  0.302  0.015  0.029  0.967
 
band   4 # energy    9.68646804 # occ.  0.00000000
 
ion      s     py     pz     px    dxy    dyz    dz2    dxz    dx2    tot
  1  0.000  0.005  0.000  0.010  0.034  0.212  0.000  0.424  0.269  0.953
 
band   5 # energy   10.52056645 # occ.  0.00000000
 
ion      s     py     pz     px    dxy    dyz    dz2    dxz    dx2    tot
  1  0.048  0.003  0.000  0.002  0.452  0.032  0.378  0.016  0.056  0.987
 
band   6 # energy   14.67104981 # occ.  0.00000000
 
ion      s     py     pz     px    dxy    dyz    dz2    dxz    dx2    tot
  1  0.002  0.098  0.127  0.049  0.218  0.165  0.178  0.083  0.027  0.945
 

 k-point   22 :    0.32142857 0.25000000 0.03571429     weight = 0.01749271

band   1 # energy    3.05602115 # occ.  1.00000000
 
ion      s     py     pz     px    dxy    dyz    dz2    dxz    dx2    tot
  1  0.181  0.013  0.045  0.005  0.001  0.254  0.150  0.321  0.029  0.998
 
band   2 # energy    4.36797023 # occ.  1.00000000
 
ion      s     py     pz     px    dxy    dyz    dz2    dxz    dx2    tot
  1  0.000  0.143  0.000  0.072  0.223  0.159  0.086  0.046  0.238  0.968
 
band   3 # energy    5.24811394 # occ.  1.00000000
 
ion      s     py     pz     px    dxy    dyz    dz2    dxz    dx2    tot
  1  0.008  0.084  0.095  0.246  0.214  0.036  0.095  0.008  0.148  0.934
 
band   4 # energy    9.93354530 # occ.  0.00000000
 
ion      s     py     pz     px    dxy    dyz    dz2    dxz    dx2    tot
  1  0.018  0.007  0.000  0.009  0.000  0.275  0.049  0.321  0.282  0.962
 
band   5 # energy   10.55482411 # occ.  0.00000000
 
ion      s     py     pz     px    dxy    dyz    dz2    dxz    dx2    tot
  1  0.019  0.005  0.005  0.020  0.345  0.001  0.462  0.124  0.001  0.982
 
band   6 # energy   14.77238297 # occ.  0.00000000
 
ion      s     py     pz     px    dxy    dyz    dz2    dxz    dx2    tot
  1  0.624  0.005  0.071  0.000  0.001  0.121  0.001  0.063  0.019  0.904
 

 k-point   23 :   -0.25000000 0.25000000 0.03571429     weight = 0.00874636

band   1 # energy    0.14416057 # occ.  1.00000000
 
ion      s     py     pz     px    dxy    dyz    dz2    dxz    dx2    tot
  1  0.669  0.045  0.004  0.090  0.061  0.001  0.027  0.001  0.008  0.905
 
band   2 # energy    5.23407638 # occ.  1.00000000
 
ion      s     py     pz     px    dxy    dyz    dz2    dxz    dx2    tot
  1  0.000  0.002  0.000  0.001  0.000  0.686  0.000  0.343  0.002  1.033
 
band   3 # energy    5.62981927 # occ.  1.03542811
 
ion      s     py     pz     px    dxy    dyz    dz2    dxz    dx2    tot
  1  0.018  0.044  0.000  0.088  0.537  0.003  0.182  0.006  0.067  0.944
 
band   4 # energy    8.84854376 # occ.  0.00000000
 
ion      s     py     pz     px    dxy    dyz    dz2    dxz    dx2    tot
  1  0.000  0.004  0.000  0.008  0.119  0.038  0.672  0.076  0.015  0.933
 
band   5 # energy    9.00764000 # occ.  0.00000000
 
ion      s     py     pz     px    dxy    dyz    dz2    dxz    dx2    tot
  1  0.000  0.033  0.000  0.016  0.104  0.002  0.000  0.001  0.832  0.988
 
band   6 # energy   10.06873241 # occ.  0.00000000
 
ion      s     py     pz     px    dxy    dyz    dz2    dxz    dx2    tot
  1  0.004  0.000  0.003  0.000  0.047  0.263  0.086  0.525  0.006  0.934
 

 k-point   24 :   -0.17857143 0.25000000 0.03571429     weight = 0.01749271
