<?xml version="1.0" encoding="ISO-8859-1"?>
<modeling>
 <generator>
  <i name="program" type="string">vasp </i>
  <i name="version" type="string">5.2.12  </i>
  <i name="subversion" type="string">11Nov11 complex                                                      parallel </i>
  <i name="platform" type="string">LinuxIFC </i>
  <i name="date" type="string">2012 10 17 </i>
  <i name="time" type="string">10:14:54 </i>
 </generator>
 <incar>
  <i type="int" name="ISTART">     0</i>
  <i type="string" name="PREC">accurate</i>
  <i type="int" name="ISPIN">     2</i>
  <i name="ENCUT">    350.00000000</i>
  <i type="int" name="NBANDS">     6</i>
  <v name="MAGMOM">      6.00000000</v>
  <i type="logical" name="LREAL"> F  </i>
  <i type="int" name="ISMEAR">     1</i>
  <i name="SIGMA">      0.05000000</i>
  <i type="logical" name="LORBIT"> F  </i>
 </incar>
 <kpoints>
  <generation param="Monkhorst-Pack">
   <v type="int" name="divisions">      14       14       14 </v>
   <v name="usershift">      0.00000000       0.00000000       0.00000000 </v>
   <v name="genvec1">      0.07142857       0.00000000       0.00000000 </v>
   <v name="genvec2">      0.00000000       0.07142857       0.00000000 </v>
   <v name="genvec3">      0.00000000       0.00000000       0.07142857 </v>
   <v name="shift">      0.50000000       0.50000000       0.50000000 </v>
  </generation>
  <varray name="kpointlist" >
   <v>       0.03571429       0.03571429       0.03571429 </v>
   <v>       0.10714286       0.03571429       0.03571429 </v>
   <v>       0.17857143       0.03571429       0.03571429 </v>
   <v>       0.25000000       0.03571429       0.03571429 </v>
   <v>       0.32142857       0.03571429       0.03571429 </v>
   <v>       0.39285714       0.03571429       0.03571429 </v>
   <v>       0.46428571       0.03571429       0.03571429 </v>
   <v>      -0.03571429       0.03571429       0.03571429 </v>
   <v>       0.10714286       0.10714286       0.03571429 </v>
   <v>       0.17857143       0.10714286       0.03571429 </v>
   <v>       0.25000000       0.10714286       0.03571429 </v>
   <v>       0.32142857       0.10714286       0.03571429 </v>
   <v>       0.39285714       0.10714286       0.03571429 </v>
   <v>      -0.10714286       0.10714286       0.03571429 </v>
   <v>       0.17857143       0.17857143       0.03571429 </v>
   <v>       0.25000000       0.17857143       0.03571429 </v>
   <v>       0.32142857       0.17857143       0.03571429 </v>
   <v>       0.39285714       0.17857143       0.03571429 </v>
   <v>      -0.17857143       0.17857143       0.03571429 </v>
   <v>      -0.10714286       0.17857143       0.03571429 </v>
   <v>       0.25000000       0.25000000       0.03571429 </v>
   <v>       0.32142857       0.25000000       0.03571429 </v>
   <v>      -0.25000000       0.25000000       0.03571429 </v>
   <v>      -0.17857143       0.25000000       0.03571429 </v>
   <v>       0.32142857       0.32142857       0.03571429 </v>
   <v>      -0.32142857       0.32142857       0.03571429 </v>
   <v>      -0.25000000       0.32142857       0.03571429 </v>
   <v>      -0.17857143       0.32142857       0.03571429 </v>
   <v>      -0.39285714       0.39285714       0.03571429 </v>
   <v>      -0.32142857       0.39285714       0.03571429 </v>
   <v>      -0.25000000       0.39285714       0.03571429 </v>
   <v>      -0.46428571       0.46428571       0.03571429 </v>
   <v>      -0.39285714       0.46428571       0.03571429 </v>
   <v>      -0.32142857       0.46428571       0.03571429 </v>
   <v>      -0.25000000       0.46428571       0.03571429 </v>
   <v>      -0.46428571      -0.46428571       0.03571429 </v>
   <v>      -0.39285714      -0.46428571       0.03571429 </v>
   <v>      -0.32142857      -0.46428571       0.03571429 </v>
   <v>      -0.39285714      -0.39285714       0.03571429 </v>
   <v>      -0.32142857      -0.39285714       0.03571429 </v>
   <v>       0.10714286       0.10714286       0.10714286 </v>
   <v>       0.17857143       0.10714286       0.10714286 </v>
   <v>       0.25000000       0.10714286       0.10714286 </v>
   <v>       0.32142857       0.10714286       0.10714286 </v>
   <v>       0.39285714       0.10714286       0.10714286 </v>
   <v>      -0.10714286       0.10714286       0.10714286 </v>
   <v>       0.17857143       0.17857143       0.10714286 </v>
   <v>       0.25000000       0.17857143       0.10714286 </v>
   <v>       0.32142857       0.17857143       0.10714286 </v>
   <v>      -0.17857143       0.17857143       0.10714286 </v>
   <v>       0.25000000       0.25000000       0.10714286 </v>
   <v>       0.32142857       0.25000000       0.10714286 </v>
   <v>      -0.25000000       0.25000000       0.10714286 </v>
   <v>      -0.17857143       0.25000000       0.10714286 </v>
   <v>      -0.32142857       0.32142857       0.10714286 </v>
   <v>      -0.25000000       0.32142857       0.10714286 </v>
   <v>      -0.39285714       0.39285714       0.10714286 </v>
   <v>      -0.32142857       0.39285714       0.10714286 </v>
   <v>      -0.25000000       0.39285714       0.10714286 </v>
   <v>      -0.46428571       0.46428571       0.10714286 </v>
   <v>      -0.39285714       0.46428571       0.10714286 </v>
   <v>      -0.32142857       0.46428571       0.10714286 </v>
   <v>      -0.46428571      -0.46428571       0.10714286 </v>
   <v>      -0.39285714      -0.46428571       0.10714286 </v>
   <v>      -0.32142857      -0.46428571       0.10714286 </v>
   <v>      -0.39285714      -0.39285714       0.10714286 </v>
   <v>       0.17857143       0.17857143       0.17857143 </v>
   <v>       0.25000000       0.17857143       0.17857143 </v>
   <v>       0.32142857       0.17857143       0.17857143 </v>
   <v>      -0.17857143       0.17857143       0.17857143 </v>
   <v>       0.25000000       0.25000000       0.17857143 </v>
   <v>      -0.25000000       0.25000000       0.17857143 </v>
   <v>      -0.32142857       0.32142857       0.17857143 </v>
   <v>      -0.25000000       0.32142857       0.17857143 </v>
   <v>      -0.39285714       0.39285714       0.17857143 </v>
   <v>      -0.32142857       0.39285714       0.17857143 </v>
   <v>      -0.46428571       0.46428571       0.17857143 </v>
   <v>      -0.39285714       0.46428571       0.17857143 </v>
   <v>      -0.32142857       0.46428571       0.17857143 </v>
   <v>      -0.46428571      -0.46428571       0.17857143 </v>
   <v>      -0.39285714      -0.46428571       0.17857143 </v>
   <v>      -0.39285714      -0.39285714       0.17857143 </v>
   <v>       0.25000000       0.25000000       0.25000000 </v>
   <v>      -0.25000000       0.25000000       0.25000000 </v>
   <v>      -0.32142857       0.32142857       0.25000000 </v>
   <v>      -0.39285714       0.39285714       0.25000000 </v>
   <v>      -0.32142857       0.39285714       0.25000000 </v>
   <v>      -0.46428571       0.46428571       0.25000000 </v>
   <v>      -0.39285714       0.46428571       0.25000000 </v>
   <v>      -0.46428571      -0.46428571       0.25000000 </v>
   <v>      -0.39285714      -0.46428571       0.25000000 </v>
   <v>      -0.32142857       0.32142857       0.32142857 </v>
   <v>      -0.39285714       0.39285714       0.32142857 </v>
   <v>      -0.46428571       0.46428571       0.32142857 </v>
   <v>      -0.39285714       0.46428571       0.32142857 </v>
   <v>      -0.46428571      -0.46428571       0.32142857 </v>
   <v>      -0.39285714       0.39285714       0.39285714 </v>
   <v>      -0.46428571       0.46428571       0.39285714 </v>
   <v>      -0.46428571      -0.46428571       0.39285714 </v>
   <v>      -0.46428571       0.46428571       0.46428571 </v>
  </varray>
  <varray name="weights" >
   <v>       0.00291545 </v>
   <v>       0.00874636 </v>
   <v>       0.00874636 </v>
   <v>       0.00874636 </v>
   <v>       0.00874636 </v>
   <v>       0.00874636 </v>
   <v>       0.00437318 </v>
   <v>       0.00218659 </v>
   <v>       0.00874636 </v>
   <v>       0.01749271 </v>
   <v>       0.01749271 </v>
   <v>       0.01749271 </v>
   <v>       0.01749271 </v>
   <v>       0.00874636 </v>
   <v>       0.00874636 </v>
   <v>       0.01749271 </v>
   <v>       0.01749271 </v>
   <v>       0.00874636 </v>
   <v>       0.00874636 </v>
   <v>       0.00874636 </v>
   <v>       0.00874636 </v>
   <v>       0.01749271 </v>
   <v>       0.00874636 </v>
   <v>       0.01749271 </v>
   <v>       0.00291545 </v>
   <v>       0.00874636 </v>
   <v>       0.01749271 </v>
   <v>       0.00874636 </v>
   <v>       0.00874636 </v>
   <v>       0.01749271 </v>
   <v>       0.01749271 </v>
   <v>       0.00874636 </v>
   <v>       0.01749271 </v>
   <v>       0.01749271 </v>
   <v>       0.00874636 </v>
   <v>       0.00874636 </v>
   <v>       0.01749271 </v>
   <v>       0.01749271 </v>
   <v>       0.00874636 </v>
   <v>       0.00874636 </v>
   <v>       0.00291545 </v>
   <v>       0.00874636 </v>
   <v>       0.00874636 </v>
   <v>       0.00874636 </v>
   <v>       0.00437318 </v>
   <v>       0.00218659 </v>
   <v>       0.00874636 </v>
   <v>       0.01749271 </v>
   <v>       0.01749271 </v>
   <v>       0.00874636 </v>
   <v>       0.00874636 </v>
   <v>       0.00874636 </v>
   <v>       0.00874636 </v>
   <v>       0.00874636 </v>
   <v>       0.00874636 </v>
   <v>       0.01749271 </v>
   <v>       0.00874636 </v>
   <v>       0.01749271 </v>
   <v>       0.00874636 </v>
   <v>       0.00874636 </v>
   <v>       0.01749271 </v>
   <v>       0.01749271 </v>
   <v>       0.00874636 </v>
   <v>       0.01749271 </v>
   <v>       0.00874636 </v>
   <v>       0.00874636 </v>
   <v>       0.00291545 </v>
   <v>       0.00874636 </v>
   <v>       0.00437318 </v>
   <v>       0.00218659 </v>
   <v>       0.00874636 </v>
   <v>       0.00874636 </v>
   <v>       0.00874636 </v>
   <v>       0.00874636 </v>
   <v>       0.00874636 </v>
   <v>       0.01749271 </v>
   <v>       0.00874636 </v>
   <v>       0.01749271 </v>
   <v>       0.00874636 </v>
   <v>       0.00874636 </v>
   <v>       0.01749271 </v>
   <v>       0.00291545 </v>
   <v>       0.00072886 </v>
   <v>       0.00218659 </v>
   <v>       0.00874636 </v>
   <v>       0.00874636 </v>
   <v>       0.00874636 </v>
   <v>       0.00874636 </v>
   <v>       0.01749271 </v>
   <v>       0.00874636 </v>
   <v>       0.00874636 </v>
   <v>       0.00218659 </v>
   <v>       0.00874636 </v>
   <v>       0.00874636 </v>
   <v>       0.00874636 </v>
   <v>       0.00874636 </v>
   <v>       0.00218659 </v>
   <v>       0.00874636 </v>
   <v>       0.00291545 </v>
   <v>       0.00218659 </v>
  </varray>
 </kpoints>
 <parameters>
  <separator name="general" >
   <i type="string" name="SYSTEM">unknown system</i>
   <i type="logical" name="LCOMPAT"> F  </i>
  </separator>
  <separator name="electronic" >
   <i type="string" name="PREC">accura</i>
   <i name="ENMAX">    350.00000000</i>
   <i name="ENAUG">    332.07500000</i>
   <i name="EDIFF">      0.00010000</i>
   <i type="int" name="IALGO">    38</i>
   <i type="int" name="IWAVPR">    10</i>
   <i type="int" name="NBANDS">     6</i>
   <i name="NELECT">      5.00000000</i>
   <i type="int" name="TURBO">     0</i>
   <i type="int" name="IRESTART">     0</i>
   <i type="int" name="NREBOOT">     0</i>
   <i type="int" name="NMIN">     0</i>
   <i name="EREF">      0.00000000</i>
   <separator name="electronic smearing" >
    <i type="int" name="ISMEAR">     1</i>
    <i name="SIGMA">      0.05000000</i>
    <i name="KSPACING">      0.50000000</i>
    <i type="logical" name="KGAMMA"> T  </i>
   </separator>
   <separator name="electronic projectors" >
    <i type="logical" name="LREAL"> F  </i>
    <v name="ROPT">      0.00000000</v>
    <i type="int" name="LMAXPAW">  -100</i>
    <i type="int" name="LMAXMIX">     2</i>
    <i type="logical" name="NLSPLINE"> F  </i>
   </separator>
   <separator name="electronic startup" >
    <i type="int" name="ISTART">     0</i>
    <i type="int" name="ICHARG">     2</i>
    <i type="int" name="INIWAV">     1</i>
   </separator>
   <separator name="electronic spin" >
    <i type="int" name="ISPIN">     2</i>
    <i type="logical" name="LNONCOLLINEAR"> F  </i>
    <v name="MAGMOM">      6.00000000</v>
    <i name="NUPDOWN">     -1.00000000</i>
    <i type="logical" name="LSORBIT"> F  </i>
    <v name="SAXIS">      0.00000000      0.00000000      1.00000000</v>
    <i type="logical" name="LSPIRAL"> F  </i>
    <v name="QSPIRAL">      0.00000000      0.00000000      0.00000000</v>
    <i type="logical" name="LZEROZ"> F  </i>
   </separator>
   <separator name="electronic exchange-correlation" >
    <i type="logical" name="LASPH"> F  </i>
    <i type="logical" name="LMETAGGA"> F  </i>
   </separator>
   <separator name="electronic convergence" >
    <i type="int" name="NELM">    60</i>
    <i type="int" name="NELMDL">    -5</i>
    <i type="int" name="NELMIN">     2</i>
    <i name="ENINI">    350.00000000</i>
    <separator name="electronic convergence detail" >
     <i type="logical" name="LDIAG"> T  </i>
     <i type="logical" name="LSUBROT"> T  </i>
     <i name="WEIMIN">      0.00000000</i>
     <i name="EBREAK">      0.00000417</i>
     <i name="DEPER">      0.30000000</i>
     <i type="int" name="NRMM">     4</i>
     <i name="TIME">      0.40000000</i>
    </separator>
   </separator>
   <separator name="electronic mixer" >
    <i name="AMIX">      0.40000000</i>
    <i name="BMIX">      1.00000000</i>
    <i name="AMIN">      0.10000000</i>
    <i name="AMIX_MAG">      1.60000000</i>
    <i name="BMIX_MAG">      1.00000000</i>
    <separator name="electronic mixer details" >
     <i type="int" name="IMIX">     4</i>
     <i type="int" name="MAXMIX">   -45</i>
     <i name="WC">    100.00000000</i>
     <i type="int" name="INIMIX">     1</i>
     <i type="int" name="MIXPRE">     1</i>
     <i type="int" name="MREMOVE">     5</i>
    </separator>
   </separator>
   <separator name="electronic dipolcorrection" >
    <i type="logical" name="LDIPOL"> F  </i>
    <i type="logical" name="LMONO"> F  </i>
    <i type="int" name="IDIPOL">     0</i>
    <i name="EPSILON">      1.00000000</i>
    <v name="DIPOL">   -100.00000000   -100.00000000   -100.00000000</v>
    <i name="EFIELD">      0.00000000</i>
   </separator>
  </separator>
  <separator name="grids" >
   <i type="int" name="NGX">    18</i>
   <i type="int" name="NGY">    18</i>
   <i type="int" name="NGZ">    18</i>
   <i type="int" name="NGXF">    36</i>
   <i type="int" name="NGYF">    36</i>
   <i type="int" name="NGZF">    36</i>
   <i type="logical" name="ADDGRID"> F  </i>
  </separator>
  <separator name="ionic" >
   <i type="int" name="NSW">     0</i>
   <i type="int" name="IBRION">    -1</i>
   <i type="int" name="ISIF">     2</i>
   <i name="PSTRESS">      0.00000000</i>
   <i name="EDIFFG">      0.00100000</i>
   <i type="int" name="NFREE">     0</i>
   <i name="POTIM">      0.50000000</i>
   <i name="SMASS">     -3.00000000</i>
   <i name="SCALEE">      1.00000000</i>
  </separator>
  <separator name="ionic md" >
   <i name="TEBEG">      0.00010000</i>
   <i name="TEEND">      0.00010000</i>
   <i type="int" name="NBLOCK">     1</i>
   <i type="int" name="KBLOCK">     1</i>
   <i type="int" name="NPACO">   256</i>
   <i name="APACO">     16.00000000</i>
  </separator>
  <separator name="symmetry" >
   <i type="int" name="ISYM">     2</i>
   <i name="SYMPREC">      0.00001000</i>
  </separator>
  <separator name="dos" >
   <i type="logical" name="LORBIT"> F  </i>
   <v name="RWIGS">     -1.00000000</v>
   <i type="int" name="NEDOS">   301</i>
   <i name="EMIN">     10.00000000</i>
   <i name="EMAX">    -10.00000000</i>
   <i name="EFERMI">      0.00000000</i>
  </separator>
  <separator name="writing" >
   <i type="int" name="NWRITE">     2</i>
   <i type="logical" name="LWAVE"> T  </i>
   <i type="logical" name="LCHARG"> T  </i>
   <i type="logical" name="LPARD"> F  </i>
   <i type="logical" name="LVTOT"> F  </i>
   <i type="logical" name="LVHAR"> F  </i>
   <i type="logical" name="LELF"> F  </i>
   <i type="logical" name="LOPTICS"> F  </i>
   <v name="STM">      0.00000000      0.00000000      0.00000000      0.00000000      0.00000000      0.00000000      0.00000000</v>
  </separator>
  <separator name="performance" >
   <i type="int" name="NPAR">     1</i>
   <i type="int" name="NSIM">     4</i>
   <i type="int" name="NBLK">    -1</i>
   <i type="logical" name="LPLANE"> T  </i>
   <i type="logical" name="LSCALAPACK"> F  </i>
   <i type="logical" name="LSCAAWARE"> F  </i>
   <i type="logical" name="LSCALU"> F  </i>
   <i type="logical" name="LASYNC"> F  </i>
   <i type="logical" name="LORBITALREAL"> F  </i>
  </separator>
  <separator name="miscellaneous" >
   <i type="int" name="IDIOT">     3</i>
   <i type="logical" name="LMUSIC"> F  </i>
   <v name="POMASS">    180.94800000</v>
   <v name="DARWINR">      0.00000000</v>
   <v name="DARWINV">      1.00000000</v>
   <i type="logical" name="LCORR"> T  </i>
  </separator>
  <i type="logical" name="GGA_COMPAT"> T  </i>
  <i type="logical" name="LBERRY"> F  </i>
  <i type="int" name="ICORELEVEL">     0</i>
  <i type="logical" name="LDAU"> F  </i>
  <i type="int" name="I_CONSTRAINED_M">     0</i>
  <separator name="electronic exchange-correlation" >
   <i type="string" name="GGA">--</i>
   <i type="int" name="VOSKOWN">     0</i>
   <i type="logical" name="LHFCALC"> F  </i>
   <i type="string" name="PRECFOCK"></i>
   <i type="logical" name="LHFONE"> F  </i>
   <i type="logical" name="LRHFCALC"> F  </i>
   <i type="logical" name="LTHOMAS"> F  </i>
   <i type="logical" name="LMODELHF"> F  </i>
   <i name="ENCUT4O">     -1.00000000</i>
   <i type="int" name="EXXOEP">     0</i>
   <i type="int" name="FOURORBIT">     0</i>
   <i name="AEXX">      0.00000000</i>
   <i name="HFALPHA">      0.00000000</i>
   <i name="ALDAX">      1.00000000</i>
   <i name="AGGAX">      1.00000000</i>
   <i name="ALDAC">      1.00000000</i>
   <i name="AGGAC">      1.00000000</i>
   <i type="int" name="NKREDX">     1</i>
   <i type="int" name="NKREDY">     1</i>
   <i type="int" name="NKREDZ">     1</i>
   <i type="logical" name="SHIFTRED"> F  </i>
   <i type="logical" name="ODDONLY"> F  </i>
   <i type="logical" name="EVENONLY"> F  </i>
   <i type="int" name="LMAXFOCK">     0</i>
   <i type="int" name="NMAXFOCKAE">     0</i>
   <i type="logical" name="LFOCKAEDFT"> F  </i>
   <i name="HFSCREEN">      0.00000000</i>
   <i name="HFSCREENC">      0.00000000</i>
  </separator>
  <separator name="vdW DFT" >
   <i type="logical" name="LUSE_VDW"> F  </i>
   <i name="Zab_VDW">     -0.84910000</i>
   <i name="PARAM1">      0.12340000</i>
   <i name="PARAM2">      1.00000000</i>
   <i name="PARAM3">      0.00000000</i>
  </separator>
  <separator name="model GW" >
   <i type="int" name="MODEL_GW">     0</i>
   <i name="MODEL_EPS0">     10.87940730</i>
   <i name="MODEL_ALPHA">      1.00000000</i>
  </separator>
  <separator name="linear response parameters" >
   <i type="logical" name="LEPSILON"> F  </i>
   <i type="logical" name="LRPA"> F  </i>
   <i type="logical" name="LNABLA"> F  </i>
   <i type="logical" name="LVEL"> F  </i>
   <i type="int" name="KINTER">     0</i>
   <i name="CSHIFT">      0.10000000</i>
   <i name="OMEGAMAX">     -1.00000000</i>
  </separator>
  <separator name="orbital magnetization" >
   <i type="logical" name="NUCIND"> F  </i>
   <v name="MAGPOS">      0.00000000      0.00000000      0.00000000</v>
   <i type="logical" name="LNICSALL"> T  </i>
   <i type="logical" name="ORBITALMAG"> F  </i>
   <i type="logical" name="LMAGBLOCH"> F  </i>
   <i type="logical" name="LCHIMAG"> F  </i>
   <i type="logical" name="LGAUGE"> T  </i>
   <i type="int" name="MAGATOM">     0</i>
   <v name="MAGDIPOL">      0.00000000      0.00000000      0.00000000</v>
   <v name="AVECCONST">      0.00000000      0.00000000      0.00000000</v>
  </separator>
  <separator name="response functions" >
   <i type="logical" name="LADDER"> F  </i>
   <i type="logical" name="LHARTREE"> T  </i>
   <i type="int" name="IBSE">     0</i>
   <i type="logical" name="LTCTE"> F  </i>
   <i type="logical" name="LTETE"> F  </i>
   <i type="logical" name="LFXCEPS"> F  </i>
   <i type="logical" name="L2ORDER"> F  </i>
   <i type="logical" name="LUSEW"> F  </i>
   <i name="ENCUTGW">     -2.00000000</i>
   <i name="ENCUTGWSOFT">     -2.00000000</i>
   <i name="ENCUTLF">     -1.00000000</i>
   <i type="int" name="LMAXMP2">    -1</i>
   <i name="SCISSOR">      0.00000000</i>
   <i type="int" name="NOMEGA">     0</i>
   <i type="int" name="NOMEGAR">     0</i>
   <i type="int" name="NBANDSGW">    -1</i>
   <i type="int" name="NBANDSO">    -1</i>
   <i type="int" name="NBANDSV">    -1</i>
   <i name="OPTEMAX">      0.00000000</i>
   <i type="int" name="NELM">     1</i>
   <i type="int" name="DIM">     3</i>
   <i type="int" name="ANTIRES">     0</i>
   <i name="OMEGAMAX">    -30.00000000</i>
   <i name="OMEGATL">   -200.00000000</i>
   <i type="int" name="OMEGAGRID">     0</i>
   <i name="CSHIFT">     -0.10000000</i>
   <i type="logical" name="SELFENERGY"> F  </i>
   <i type="logical" name="LSPECTRAL"> F  </i>
   <i type="logical" name="ODDONLYGW"> F  </i>
   <i type="logical" name="EVENONLYGW"> F  </i>
   <i type="int" name="NKREDLFX">     1</i>
   <i type="int" name="NKREDLFY">     1</i>
   <i type="int" name="NKREDLFZ">     1</i>
   <i type="int" name="MAXMEM">  1800</i>
   <i type="int" name="TELESCOPE">     0</i>
  </separator>
 </parameters>
 <atominfo>
  <atoms>       1 </atoms>
  <types>       1 </types>
  <array name="atoms" >
   <dimension dim="1">ion</dimension>
   <field type="string">element</field>
   <field type="int">atomtype</field>
   <set>
    <rc><c>Ta</c><c>   1</c></rc>
   </set>
  </array>
  <array name="atomtypes" >
   <dimension dim="1">type</dimension>
   <field type="int">atomspertype</field>
   <field type="string">element</field>
   <field>mass</field>
   <field>valence</field>
   <field type="string">pseudopotential</field>
   <set>
    <rc><c>   1</c><c>Ta</c><c>    180.94800000</c><c>      5.00000000</c><c>  PAW_PBE Ta 17Jan2003                  </c></rc>
   </set>
  </array>
 </atominfo>
 <structure name="initialpos" >
  <crystal>
   <varray name="basis" >
    <v>       2.86654409       0.00000000       0.00000000 </v>
    <v>      -0.95551470       2.70260368       0.00000000 </v>
    <v>      -0.95551470      -1.35130184       2.34052345 </v>
   </varray>
   <i name="volume">     18.13234550 </i>
   <varray name="rec_basis" >
    <v>       0.34885213       0.12333785       0.21362743 </v>
    <v>       0.00000000       0.37001356       0.21362743 </v>
    <v>       0.00000000       0.00000000       0.42725485 </v>
   </varray>
  </crystal>
  <varray name="positions" >
   <v>       0.00000000       0.00000000       0.00000000 </v>
  </varray>
 </structure>
 <calculation>
  <scstep>
   <time name="dav">    2.29    2.29</time>
   <time name="total">    2.47    2.57</time>
   <energy>
    <i name="alphaZ">     30.58334069 </i>
    <i name="ewald">   -197.90100875 </i>
    <i name="hartreedc">     -2.50452612 </i>
    <i name="XCdc">    -60.69825643 </i>
    <i name="pawpsdc">    143.51874798 </i>
    <i name="pawaedc">    -69.33493833 </i>
    <i name="eentropy">      0.00003838 </i>
    <i name="bandstr">     36.68404874 </i>
    <i name="atom">    130.64621481 </i>
    <i name="e_fr_energy">     10.99366096 </i>
    <i name="e_wo_entrp">     10.99362258 </i>
    <i name="e_0_energy">     10.99364817 </i>
   </energy>
  </scstep>
  <scstep>
   <time name="dav">    3.54    3.54</time>
   <time name="total">    3.55    3.56</time>
   <energy>
    <i name="e_fr_energy">     -1.21067422 </i>
    <i name="e_wo_entrp">     -1.21040488 </i>
    <i name="e_0_energy">     -1.21058444 </i>
   </energy>
  </scstep>
  <scstep>
   <time name="dav">    2.28    2.28</time>
   <time name="total">    2.29    2.39</time>
   <energy>
    <i name="e_fr_energy">     -1.29438036 </i>
    <i name="e_wo_entrp">     -1.29418141 </i>
    <i name="e_0_energy">     -1.29431404 </i>
   </energy>
  </scstep>
  <scstep>
   <time name="dav">    2.77    2.77</time>
   <time name="total">    2.78    2.79</time>
   <energy>
    <i name="e_fr_energy">     -1.29485686 </i>
    <i name="e_wo_entrp">     -1.29465928 </i>
    <i name="e_0_energy">     -1.29479100 </i>
   </energy>
  </scstep>
  <scstep>
   <time name="dav">    2.12    2.12</time>
   <time name="total">    2.35    2.36</time>
   <energy>
    <i name="e_fr_energy">     -1.29486443 </i>
    <i name="e_wo_entrp">     -1.29466683 </i>
    <i name="e_0_energy">     -1.29479856 </i>
   </energy>
  </scstep>
  <scstep>
   <time name="dav">    2.30    2.31</time>
   <time name="total">    2.68    2.69</time>
   <energy>
    <i name="e_fr_energy">    -11.69130004 </i>
    <i name="e_wo_entrp">    -11.69114884 </i>
    <i name="e_0_energy">    -11.69124964 </i>
   </energy>
  </scstep>
  <scstep>
   <time name="dav">    2.44    2.44</time>
   <time name="total">    2.82    2.85</time>
   <energy>
    <i name="e_fr_energy">    -11.76558248 </i>
    <i name="e_wo_entrp">    -11.76567545 </i>
    <i name="e_0_energy">    -11.76561347 </i>
   </energy>
  </scstep>
  <scstep>
   <time name="dav">    2.36    2.36</time>
   <time name="total">    2.73    2.74</time>
   <energy>
    <i name="e_fr_energy">    -11.62627655 </i>
    <i name="e_wo_entrp">    -11.62626847 </i>
    <i name="e_0_energy">    -11.62627386 </i>
   </energy>
  </scstep>
  <scstep>
   <time name="dav">    2.41    2.41</time>
   <time name="total">    2.78    2.79</time>
   <energy>
    <i name="e_fr_energy">    -11.82734239 </i>
    <i name="e_wo_entrp">    -11.82698218 </i>
    <i name="e_0_energy">    -11.82722232 </i>
   </energy>
  </scstep>
  <scstep>
   <time name="dav">    2.46    2.46</time>
   <time name="total">    2.83    2.85</time>
   <energy>
    <i name="e_fr_energy">    -11.85241762 </i>
    <i name="e_wo_entrp">    -11.85241606 </i>
    <i name="e_0_energy">    -11.85241710 </i>
   </energy>
  </scstep>
  <scstep>
   <time name="dav">    2.35    2.35</time>
   <time name="total">    2.72    2.74</time>
   <energy>
    <i name="e_fr_energy">    -11.85578713 </i>
    <i name="e_wo_entrp">    -11.85561100 </i>
    <i name="e_0_energy">    -11.85572842 </i>
   </energy>
  </scstep>
  <scstep>
   <time name="dav">    2.25    2.25</time>
   <time name="total">    2.62    2.64</time>
   <energy>
    <i name="e_fr_energy">    -11.85618586 </i>
    <i name="e_wo_entrp">    -11.85601104 </i>
    <i name="e_0_energy">    -11.85612758 </i>
   </energy>
  </scstep>
  <scstep>
   <time name="dav">    1.47    1.47</time>
   <time name="total">    1.65    1.67</time>
   <energy>
    <i name="alphaZ">     30.58334069 </i>
    <i name="ewald">   -197.90100875 </i>
    <i name="hartreedc">     -0.58826948 </i>
    <i name="XCdc">    -66.00004205 </i>
    <i name="pawpsdc">    193.52013486 </i>
    <i name="pawaedc">   -120.10263559 </i>
    <i name="eentropy">     -0.00016588 </i>
    <i name="bandstr">     17.98620366 </i>
    <i name="atom">    130.64621481 </i>
    <i name="e_fr_energy">    -11.85622773 </i>
    <i name="e_wo_entrp">    -11.85606185 </i>
    <i name="e_0_energy">    -11.85617243 </i>
   </energy>
  </scstep>
  <parameters_embedded>
   <separator name="dft+d2" >
    <i type="logical" name="LVDW"> F  </i>
   </separator>
  </parameters_embedded>
  <structure>
   <crystal>
    <varray name="basis" >
     <v>       2.86654409       0.00000000       0.00000000 </v>
     <v>      -0.95551470       2.70260368       0.00000000 </v>
     <v>      -0.95551470      -1.35130184       2.34052345 </v>
    </varray>
    <i name="volume">     18.13234550 </i>
    <varray name="rec_basis" >
     <v>       0.34885213       0.12333785       0.21362743 </v>
     <v>       0.00000000       0.37001356       0.21362743 </v>
     <v>       0.00000000       0.00000000       0.42725485 </v>
    </varray>
   </crystal>
   <varray name="positions" >
    <v>       0.00000000       0.00000000       0.00000000 </v>
   </varray>
  </structure>
  <varray name="forces" >
   <v>       0.00000000       0.00000000       0.00000000 </v>
  </varray>
  <varray name="stress" >
   <v>      -8.13131632       0.00000000       0.00000000 </v>
   <v>       0.00000000      -8.13131632       0.00000000 </v>
   <v>       0.00000000       0.00000000      -8.13131632 </v>
  </varray>
  <energy>
   <i name="e_fr_energy">    -11.85622773 </i>
   <i name="e_wo_entrp">    -11.85617243 </i>
   <i name="e_0_energy">     -0.00016588 </i>
  </energy>
  <time name="totalsc">   35.93   36.43</time>
  <eigenvalues>
   <array>
    <dimension dim="1">band</dimension>
    <dimension dim="2">kpoint</dimension>
    <dimension dim="3">spin</dimension>
    <field>eigene</field>
    <field>occ</field>
    <set>
     <set comment="spin 1">
      <set comment="kpoint 1">
       <r>   -1.8340    1.0000 </r>
       <r>    6.2814    0.0000 </r>
       <r>    6.2814    0.0000 </r>
       <r>    6.8474    0.0000 </r>
       <r>    9.5338    0.0000 </r>
       <r>    9.5338    0.0000 </r>
      </set>
      <set comment="kpoint 2">
       <r>   -1.2135    1.0000 </r>
       <r>    5.8802    0.0000 </r>
       <r>    6.0383    0.0000 </r>
       <r>    7.5501    0.0000 </r>
       <r>    9.1694    0.0000 </r>
       <r>    9.6338    0.0000 </r>
      </set>
      <set comment="kpoint 3">
       <r>   -0.3025    1.0000 </r>
       <r>    5.3808    1.0000 </r>
       <r>    5.6573    0.9563 </r>
       <r>    8.6098    0.0000 </r>
       <r>    9.0871    0.0000 </r>
       <r>    9.7804    0.0000 </r>
      </set>
      <set comment="kpoint 4">
       <r>    0.6546    1.0000 </r>
       <r>    4.9009    1.0000 </r>
       <r>    5.4204    1.0000 </r>
       <r>    9.2671    0.0000 </r>
       <r>    9.9864    0.0000 </r>
       <r>   10.0182    0.0000 </r>
      </set>
      <set comment="kpoint 5">
       <r>    1.2832    1.0000 </r>
       <r>    4.5154    1.0000 </r>
       <r>    5.7588   -0.0337 </r>
       <r>    9.5558    0.0000 </r>
       <r>   10.2440    0.0000 </r>
       <r>   11.5675    0.0000 </r>
      </set>
      <set comment="kpoint 6">
       <r>    1.4759    1.0000 </r>
       <r>    4.2690    1.0000 </r>
       <r>    6.6098    0.0000 </r>
       <r>    9.6695    0.0000 </r>
       <r>   10.4856    0.0000 </r>
       <r>   12.9903    0.0000 </r>
      </set>
      <set comment="kpoint 7">
       <r>    1.4945    1.0000 </r>
       <r>    4.1845    1.0000 </r>
       <r>    7.1293    0.0000 </r>
       <r>    9.6173    0.0000 </r>
       <r>   10.5892    0.0000 </r>
       <r>   13.6394    0.0000 </r>
      </set>
      <set comment="kpoint 8">
       <r>   -2.0516    1.0000 </r>
       <r>    6.4403    0.0000 </r>
       <r>    6.4403    0.0000 </r>
       <r>    6.5118    0.0000 </r>
       <r>    9.4948    0.0000 </r>
       <r>    9.7525    0.0000 </r>
      </set>
      <set comment="kpoint 9">
       <r>   -0.4550    1.0000 </r>
       <r>    5.5065    1.0000 </r>
       <r>    5.5557    1.0004 </r>
       <r>    8.5552    0.0000 </r>
       <r>    9.0678    0.0000 </r>
       <r>    9.7704    0.0000 </r>
      </set>
      <set comment="kpoint 10">
       <r>    0.5153    1.0000 </r>
       <r>    5.0293    1.0000 </r>
       <r>    5.1803    1.0000 </r>
       <r>    9.0885    0.0000 </r>
       <r>    9.8759    0.0000 </r>
       <r>   10.0424    0.0000 </r>
      </set>
      <set comment="kpoint 11">
       <r>    1.3891    1.0000 </r>
       <r>    4.6211    1.0000 </r>
       <r>    5.1499    1.0000 </r>
       <r>    9.3336    0.0000 </r>
       <r>   10.2826    0.0000 </r>
       <r>   11.4079    0.0000 </r>
      </set>
      <set comment="kpoint 12">
       <r>    1.8051    1.0000 </r>
       <r>    4.3431    1.0000 </r>
       <r>    5.7392   -0.0190 </r>
       <r>    9.6048    0.0000 </r>
       <r>   10.4778    0.0000 </r>
       <r>   12.9402    0.0000 </r>
      </set>
      <set comment="kpoint 13">
       <r>    1.8756    1.0000 </r>
       <r>    4.2010    1.0000 </r>
       <r>    6.4992    0.0000 </r>
       <r>    9.6603    0.0000 </r>
       <r>   10.6537    0.0000 </r>
       <r>   14.0388    0.0000 </r>
      </set>
      <set comment="kpoint 14">
       <r>   -1.6197    1.0000 </r>
       <r>    6.1857    0.0000 </r>
       <r>    6.3431    0.0000 </r>
       <r>    6.9295    0.0000 </r>
       <r>    9.0366    0.0000 </r>
       <r>    9.8408    0.0000 </r>
      </set>
      <set comment="kpoint 15">
       <r>    1.4746    1.0000 </r>
       <r>    4.6501    1.0000 </r>
       <r>    4.8888    1.0000 </r>
       <r>    9.1733    0.0000 </r>
       <r>   10.3498    0.0000 </r>
       <r>   11.3900    0.0000 </r>
      </set>
      <set comment="kpoint 16">
       <r>    2.2210    1.0000 </r>
       <r>    4.3881    1.0000 </r>
       <r>    4.9955    1.0000 </r>
       <r>    9.4286    0.0000 </r>
       <r>   10.5039    0.0000 </r>
       <r>   13.0170    0.0000 </r>
      </set>
      <set comment="kpoint 17">
       <r>    2.4661    1.0000 </r>
       <r>    4.2689    1.0000 </r>
       <r>    5.5736    1.0021 </r>
       <r>    9.6701    0.0000 </r>
       <r>   10.6014    0.0000 </r>
       <r>   14.4648    0.0000 </r>
      </set>
      <set comment="kpoint 18">
       <r>    2.4851    1.0000 </r>
       <r>    4.2316    1.0000 </r>
       <r>    5.9427    0.0000 </r>
       <r>    9.7054    0.0000 </r>
       <r>   10.7226    0.0000 </r>
       <r>   15.1346    0.0000 </r>
      </set>
      <set comment="kpoint 19">
       <r>   -0.8288    1.0000 </r>
       <r>    5.7352   -0.0055 </r>
       <r>    6.0323    0.0000 </r>
       <r>    7.7849    0.0000 </r>
       <r>    8.7423    0.0000 </r>
       <r>    9.9287    0.0000 </r>
      </set>
      <set comment="kpoint 20">
       <r>   -1.0089    1.0000 </r>
       <r>    5.9881    0.0000 </r>
       <r>    6.0852    0.0000 </r>
       <r>    7.5103    0.0000 </r>
       <r>    8.5095    0.0000 </r>
       <r>   10.0666    0.0000 </r>
      </set>
      <set comment="kpoint 21">
       <r>    2.8497    1.0000 </r>
       <r>    4.2999    1.0000 </r>
       <r>    5.0584    1.0000 </r>
       <r>    9.6865    0.0000 </r>
       <r>   10.5206    0.0000 </r>
       <r>   14.6710    0.0000 </r>
      </set>
      <set comment="kpoint 22">
       <r>    3.0560    1.0000 </r>
       <r>    4.3680    1.0000 </r>
       <r>    5.2481    1.0000 </r>
       <r>    9.9335    0.0000 </r>
       <r>   10.5548    0.0000 </r>
       <r>   14.7724    0.0000 </r>
      </set>
      <set comment="kpoint 23">
       <r>    0.1442    1.0000 </r>
       <r>    5.2341    1.0000 </r>
       <r>    5.6298    1.0354 </r>
       <r>    8.8485    0.0000 </r>
       <r>    9.0076    0.0000 </r>
       <r>   10.0687    0.0000 </r>
      </set>
      <set comment="kpoint 24">
       <r>   -0.1106    1.0000 </r>
       <r>    5.5448    1.0001 </r>
       <r>    5.6892    0.5430 </r>
       <r>    8.3416    0.0000 </r>
       <r>    8.5618    0.0000 </r>
       <r>   10.2671    0.0000 </r>
      </set>
      <set comment="kpoint 25">
       <r>    3.2764    1.0000 </r>
       <r>    4.7671    1.0000 </r>
       <r>    4.7671    1.0000 </r>
       <r>   10.3241    0.0000 </r>
       <r>   10.3241    0.0000 </r>
       <r>   14.1177    0.0000 </r>
      </set>
      <set comment="kpoint 26">
       <r>    0.9707    1.0000 </r>
       <r>    4.7851    1.0000 </r>
       <r>    5.5966    1.0108 </r>
       <r>    9.1926    0.0000 </r>
       <r>   10.2510    0.0000 </r>
       <r>   10.5037    0.0000 </r>
      </set>
      <set comment="kpoint 27">
       <r>    0.8413    1.0000 </r>
       <r>    5.0590    1.0000 </r>
       <r>    5.3881    1.0000 </r>
       <r>    8.5998    0.0000 </r>
       <r>    9.9342    0.0000 </r>
       <r>   10.4353    0.0000 </r>
      </set>
      <set comment="kpoint 28">
       <r>    0.8141    1.0000 </r>
       <r>    5.0869    1.0000 </r>
       <r>    5.4045    1.0000 </r>
       <r>    8.2921    0.0000 </r>
       <r>    9.7778    0.0000 </r>
       <r>   10.5282    0.0000 </r>
      </set>
      <set comment="kpoint 29">
       <r>    1.3546    1.0000 </r>
       <r>    4.4548    1.0000 </r>
       <r>    6.1977    0.0000 </r>
       <r>    9.4810    0.0000 </r>
       <r>   10.4663    0.0000 </r>
       <r>   12.0738    0.0000 </r>
      </set>
      <set comment="kpoint 30">
       <r>    1.4787    1.0000 </r>
       <r>    4.6972    1.0000 </r>
       <r>    5.5491    1.0002 </r>
       <r>    9.0258    0.0000 </r>
       <r>   10.5380    0.0000 </r>
       <r>   11.5296    0.0000 </r>
      </set>
      <set comment="kpoint 31">
       <r>    1.6804    1.0000 </r>
       <r>    4.6684    1.0000 </r>
       <r>    5.2866    1.0000 </r>
       <r>    8.5850    0.0000 </r>
       <r>   10.5157    0.0000 </r>
       <r>   11.4133    0.0000 </r>
      </set>
      <set comment="kpoint 32">
       <r>    1.4270    1.0000 </r>
       <r>    4.2812    1.0000 </r>
       <r>    6.9643    0.0000 </r>
       <r>    9.4585    0.0000 </r>
       <r>   10.7061    0.0000 </r>
       <r>   13.2464    0.0000 </r>
      </set>
      <set comment="kpoint 33">
       <r>    1.6733    1.0000 </r>
       <r>    4.4698    1.0000 </r>
       <r>    6.1836    0.0000 </r>
       <r>    9.2071    0.0000 </r>
       <r>   10.8144    0.0000 </r>
       <r>   12.9842    0.0000 </r>
      </set>
      <set comment="kpoint 34">
       <r>    2.1342    1.0000 </r>
       <r>    4.5267    1.0000 </r>
       <r>    5.4522    1.0000 </r>
       <r>    8.9688    0.0000 </r>
       <r>   10.6081    0.0000 </r>
       <r>   13.0269    0.0000 </r>
      </set>
      <set comment="kpoint 35">
       <r>    2.4424    1.0000 </r>
       <r>    4.3192    1.0000 </r>
       <r>    5.3006    1.0000 </r>
       <r>    8.8663    0.0000 </r>
       <r>   10.4559    0.0000 </r>
       <r>   13.0986    0.0000 </r>
      </set>
      <set comment="kpoint 36">
       <r>    1.6899    1.0000 </r>
       <r>    4.3911    1.0000 </r>
       <r>    6.5791    0.0000 </r>
       <r>    9.1317    0.0000 </r>
       <r>   11.0648    0.0000 </r>
       <r>   13.6558    0.0000 </r>
      </set>
      <set comment="kpoint 37">
       <r>    2.2168    1.0000 </r>
       <r>    4.4899    1.0000 </r>
       <r>    5.8132   -0.0016 </r>
       <r>    9.0347    0.0000 </r>
       <r>   10.9764    0.0000 </r>
       <r>   14.2768    0.0000 </r>
      </set>
      <set comment="kpoint 38">
       <r>    2.8276    1.0000 </r>
       <r>    4.3196    1.0000 </r>
       <r>    5.2718    1.0000 </r>
       <r>    9.2390    0.0000 </r>
       <r>   10.5193    0.0000 </r>
       <r>   14.7835    0.0000 </r>
      </set>
      <set comment="kpoint 39">
       <r>    2.8883    1.0000 </r>
       <r>    4.4470    1.0000 </r>
       <r>    5.2199    1.0000 </r>
       <r>    9.3311    0.0000 </r>
       <r>   10.7648    0.0000 </r>
       <r>   15.3222    0.0000 </r>
      </set>
      <set comment="kpoint 40">
       <r>    3.3238    1.0000 </r>
       <r>    4.3546    1.0000 </r>
       <r>    4.8565    1.0000 </r>
       <r>    9.8037    0.0000 </r>
       <r>   10.3687    0.0000 </r>
       <r>   14.8614    0.0000 </r>
      </set>
      <set comment="kpoint 41">
       <r>    0.4059    1.0000 </r>
       <r>    5.0435    1.0000 </r>
       <r>    5.0435    1.0000 </r>
       <r>    9.5968    0.0000 </r>
       <r>    9.5968    0.0000 </r>
       <r>    9.8925    0.0000 </r>
      </set>
      <set comment="kpoint 42">
       <r>    1.4094    1.0000 </r>
       <r>    4.6284    1.0000 </r>
       <r>    4.7307    1.0000 </r>
       <r>    9.6486    0.0000 </r>
       <r>   10.0211    0.0000 </r>
       <r>   11.4407    0.0000 </r>
      </set>
      <set comment="kpoint 43">
       <r>    2.1508    1.0000 </r>
       <r>    4.3304    1.0000 </r>
       <r>    4.9415    1.0000 </r>
       <r>    9.8310    0.0000 </r>
       <r>   10.3437    0.0000 </r>
       <r>   13.0374    0.0000 </r>
      </set>
      <set comment="kpoint 44">
       <r>    2.3565    1.0000 </r>
       <r>    4.1531    1.0000 </r>
       <r>    5.7513   -0.0353 </r>
       <r>    9.9621    0.0000 </r>
       <r>   10.5638    0.0000 </r>
       <r>   14.3687    0.0000 </r>
      </set>
      <set comment="kpoint 45">
       <r>    2.3636    1.0000 </r>
       <r>    4.0943    1.0000 </r>
       <r>    6.2495    0.0000 </r>
       <r>    9.9709    0.0000 </r>
       <r>   10.6455    0.0000 </r>
       <r>   14.9360    0.0000 </r>
      </set>
      <set comment="kpoint 46">
       <r>   -1.1984    1.0000 </r>
       <r>    6.3641    0.0000 </r>
       <r>    6.3641    0.0000 </r>
       <r>    6.9351    0.0000 </r>
       <r>    8.2165    0.0000 </r>
       <r>   10.2184    0.0000 </r>
      </set>
      <set comment="kpoint 47">
       <r>    2.3976    1.0000 </r>
       <r>    4.3704    1.0000 </r>
       <r>    4.4692    1.0000 </r>
       <r>    9.8888    0.0000 </r>
       <r>   10.3064    0.0000 </r>
       <r>   13.1100    0.0000 </r>
      </set>
      <set comment="kpoint 48">
       <r>    2.9630    1.0000 </r>
       <r>    4.2140    1.0000 </r>
       <r>    4.8324    1.0000 </r>
       <r>   10.0813    0.0000 </r>
       <r>   10.5353    0.0000 </r>
       <r>   14.6617    0.0000 </r>
      </set>
      <set comment="kpoint 49">
       <r>    3.0226    1.0000 </r>
       <r>    4.1398    1.0000 </r>
       <r>    5.5441    1.0001 </r>
       <r>   10.1836    0.0000 </r>
       <r>   10.6561    0.0000 </r>
       <r>   14.7831    0.0000 </r>
      </set>
      <set comment="kpoint 50">
       <r>   -0.4268    1.0000 </r>
       <r>    6.0814    0.0000 </r>
       <r>    6.1597    0.0000 </r>
       <r>    7.6515    0.0000 </r>
       <r>    7.6602    0.0000 </r>
       <r>   10.4710    0.0000 </r>
      </set>
      <set comment="kpoint 51">
       <r>    3.3960    1.0000 </r>
       <r>    4.3655    1.0000 </r>
       <r>    4.9264    1.0000 </r>
       <r>   10.3038    0.0000 </r>
       <r>   10.6101    0.0000 </r>
       <r>   14.5108    0.0000 </r>
      </set>
      <set comment="kpoint 52">
       <r>    3.4554    1.0000 </r>
       <r>    4.4562    1.0000 </r>
       <r>    5.1019    1.0000 </r>
       <r>   10.4166    0.0000 </r>
       <r>   10.6281    0.0000 </r>
       <r>   13.7679    0.0000 </r>
      </set>
      <set comment="kpoint 53">
       <r>    0.5286    1.0000 </r>
       <r>    5.5936    1.0090 </r>
       <r>    5.6289    1.0353 </r>
       <r>    7.8252    0.0000 </r>
       <r>    8.8573    0.0000 </r>
       <r>   10.6205    0.0000 </r>
      </set>
      <set comment="kpoint 54">
       <r>    0.4292    1.0000 </r>
       <r>    5.6948    0.4492 </r>
       <r>    6.0136    0.0000 </r>
       <r>    7.3542    0.0000 </r>
       <r>    8.4528    0.0000 </r>
       <r>   10.7043    0.0000 </r>
      </set>
      <set comment="kpoint 55">
       <r>    1.3601    1.0000 </r>
       <r>    5.2067    1.0000 </r>
       <r>    5.2704    1.0000 </r>
       <r>    8.3410    0.0000 </r>
       <r>   10.3574    0.0000 </r>
       <r>   10.6954    0.0000 </r>
      </set>
      <set comment="kpoint 56">
       <r>    1.3533    1.0000 </r>
       <r>    5.0462    1.0000 </r>
       <r>    5.7494   -0.0346 </r>
       <r>    7.7062    0.0000 </r>
       <r>    9.7347    0.0000 </r>
       <r>   10.7944    0.0000 </r>
      </set>
      <set comment="kpoint 57">
       <r>    1.7520    1.0000 </r>
       <r>    4.8924    1.0000 </r>
       <r>    5.5327    1.0000 </r>
       <r>    8.6973    0.0000 </r>
       <r>   10.9707    0.0000 </r>
       <r>   11.9445    0.0000 </r>
      </set>
      <set comment="kpoint 58">
       <r>    2.0103    1.0000 </r>
       <r>    4.7686    1.0000 </r>
       <r>    5.4878    1.0000 </r>
       <r>    8.2327    0.0000 </r>
       <r>   10.6240    0.0000 </r>
       <r>   11.5656    0.0000 </r>
      </set>
      <set comment="kpoint 59">
       <r>    2.1788    1.0000 </r>
       <r>    4.4549    1.0000 </r>
       <r>    5.7617   -0.0318 </r>
       <r>    7.9981    0.0000 </r>
       <r>   10.3220    0.0000 </r>
       <r>   11.5771    0.0000 </r>
      </set>
      <set comment="kpoint 60">
       <r>    1.8148    1.0000 </r>
       <r>    4.7261    1.0000 </r>
       <r>    6.0250    0.0000 </r>
       <r>    8.5890    0.0000 </r>
       <r>   11.5766    0.0000 </r>
       <r>   13.1419    0.0000 </r>
      </set>
      <set comment="kpoint 61">
       <r>    2.2070    1.0000 </r>
       <r>    4.9007    1.0000 </r>
       <r>    5.4019    1.0000 </r>
       <r>    8.3414    0.0000 </r>
       <r>   11.2726    0.0000 </r>
       <r>   13.0527    0.0000 </r>
      </set>
      <set comment="kpoint 62">
       <r>    2.7172    1.0000 </r>
       <r>    4.2509    1.0000 </r>
       <r>    5.5358    1.0000 </r>
       <r>    8.4776    0.0000 </r>
       <r>   10.4851    0.0000 </r>
       <r>   13.2418    0.0000 </r>
      </set>
      <set comment="kpoint 63">
       <r>    2.2128    1.0000 </r>
       <r>    4.9592    1.0000 </r>
       <r>    5.4863    1.0000 </r>
       <r>    8.2298    0.0000 </r>
       <r>   11.8160    0.0000 </r>
       <r>   13.8054    0.0000 </r>
      </set>
      <set comment="kpoint 64">
       <r>    2.8198    1.0000 </r>
       <r>    4.6017    1.0000 </r>
       <r>    5.1173    1.0000 </r>
       <r>    8.6027    0.0000 </r>
       <r>   11.1340    0.0000 </r>
       <r>   14.7446    0.0000 </r>
      </set>
      <set comment="kpoint 65">
       <r>    3.3787    1.0000 </r>
       <r>    3.9707    1.0000 </r>
       <r>    5.0894    1.0000 </r>
       <r>    9.1753    0.0000 </r>
       <r>   10.4491    0.0000 </r>
       <r>   15.0720    0.0000 </r>
      </set>
      <set comment="kpoint 66">
       <r>    3.5610    1.0000 </r>
       <r>    4.3818    1.0000 </r>
       <r>    4.4209    1.0000 </r>
       <r>    9.5223    0.0000 </r>
       <r>   10.6022    0.0000 </r>
       <r>   15.2282    0.0000 </r>
      </set>
      <set comment="kpoint 67">
       <r>    3.4411    1.0000 </r>
       <r>    4.2163    1.0000 </r>
       <r>    4.2163    1.0000 </r>
       <r>   10.3743    0.0000 </r>
       <r>   10.3743    0.0000 </r>
       <r>   14.7895    0.0000 </r>
      </set>
      <set comment="kpoint 68">
       <r>    3.7579    1.0000 </r>
       <r>    4.1477    1.0000 </r>
       <r>    4.7644    1.0000 </r>
       <r>   10.4668    0.0000 </r>
       <r>   10.6368    0.0000 </r>
       <r>   14.4430    0.0000 </r>
      </set>
      <set comment="kpoint 69">
       <r>    3.7141    1.0000 </r>
       <r>    4.1295    1.0000 </r>
       <r>    5.2338    1.0000 </r>
       <r>   10.4967    0.0000 </r>
       <r>   10.7173    0.0000 </r>
       <r>   13.6723    0.0000 </r>
      </set>
      <set comment="kpoint 70">
       <r>    0.3040    1.0000 </r>
       <r>    6.4591    0.0000 </r>
       <r>    6.4591    0.0000 </r>
       <r>    6.4685    0.0000 </r>
       <r>    7.7532    0.0000 </r>
       <r>   10.7827    0.0000 </r>
      </set>
      <set comment="kpoint 71">
       <r>    3.9961    1.0000 </r>
       <r>    4.4507    1.0000 </r>
       <r>    4.7782    1.0000 </r>
       <r>   10.6474    0.0000 </r>
       <r>   10.7074    0.0000 </r>
       <r>   13.2470    0.0000 </r>
      </set>
      <set comment="kpoint 72">
       <r>    1.2054    1.0000 </r>
       <r>    5.4174    1.0000 </r>
       <r>    6.3284    0.0000 </r>
       <r>    6.9828    0.0000 </r>
       <r>    8.6871    0.0000 </r>
       <r>   10.8328    0.0000 </r>
      </set>
      <set comment="kpoint 73">
       <r>    2.0130    1.0000 </r>
       <r>    4.7260    1.0000 </r>
       <r>    6.0105    0.0000 </r>
       <r>    7.6184    0.0000 </r>
       <r>   10.1322    0.0000 </r>
       <r>   10.8183    0.0000 </r>
      </set>
      <set comment="kpoint 74">
       <r>    2.0326    1.0000 </r>
       <r>    4.6707    1.0000 </r>
       <r>    6.4564    0.0000 </r>
       <r>    7.2772    0.0000 </r>
       <r>    9.6040    0.0000 </r>
       <r>   10.7932    0.0000 </r>
      </set>
      <set comment="kpoint 75">
       <r>    2.4012    1.0000 </r>
       <r>    4.6151    1.0000 </r>
       <r>    5.7427   -0.0269 </r>
       <r>    7.8654    0.0000 </r>
       <r>   11.3842    0.0000 </r>
       <r>   11.7256    0.0000 </r>
      </set>
      <set comment="kpoint 76">
       <r>    2.6622    1.0000 </r>
       <r>    4.1405    1.0000 </r>
       <r>    6.2333    0.0000 </r>
       <r>    7.8286    0.0000 </r>
       <r>   10.4127    0.0000 </r>
       <r>   11.6165    0.0000 </r>
      </set>
      <set comment="kpoint 77">
       <r>    2.4256    1.0000 </r>
       <r>    4.8690    1.0000 </r>
       <r>    5.5964    1.0106 </r>
       <r>    7.6589    0.0000 </r>
       <r>   12.5204    0.0000 </r>
       <r>   12.9590    0.0000 </r>
      </set>
      <set comment="kpoint 78">
       <r>    2.8227    1.0000 </r>
       <r>    4.1777    1.0000 </r>
       <r>    5.9030    0.0000 </r>
       <r>    7.9462    0.0000 </r>
       <r>   11.3925    0.0000 </r>
       <r>   13.2199    0.0000 </r>
      </set>
      <set comment="kpoint 79">
       <r>    3.2143    1.0000 </r>
       <r>    3.6767    1.0000 </r>
       <r>    5.8915    0.0000 </r>
       <r>    8.5915    0.0000 </r>
       <r>   10.4681    0.0000 </r>
       <r>   13.3587    0.0000 </r>
      </set>
      <set comment="kpoint 80">
       <r>    2.7848    1.0000 </r>
       <r>    4.3602    1.0000 </r>
       <r>    5.7111    0.1985 </r>
       <r>    7.8842    0.0000 </r>
       <r>   12.1427    0.0000 </r>
       <r>   14.2385    0.0000 </r>
      </set>
      <set comment="kpoint 81">
       <r>    3.2709    1.0000 </r>
       <r>    3.8231    1.0000 </r>
       <r>    5.3952    1.0000 </r>
       <r>    9.0506    0.0000 </r>
       <r>   11.0629    0.0000 </r>
       <r>   15.1207    0.0000 </r>
      </set>
      <set comment="kpoint 82">
       <r>    3.6121    1.0000 </r>
       <r>    3.6121    1.0000 </r>
       <r>    5.0494    1.0000 </r>
       <r>   10.3011    0.0000 </r>
       <r>   10.3011    0.0000 </r>
       <r>   15.3671    0.0000 </r>
      </set>
      <set comment="kpoint 83">
       <r>    4.4889    1.0000 </r>
       <r>    4.4889    1.0000 </r>
       <r>    4.4889    1.0000 </r>
       <r>   10.7495    0.0000 </r>
       <r>   10.7495    0.0000 </r>
       <r>   12.7644    0.0000 </r>
      </set>
      <set comment="kpoint 84">
       <r>    1.9855    1.0000 </r>
       <r>    4.7970    1.0000 </r>
       <r>    6.9719    0.0000 </r>
       <r>    6.9719    0.0000 </r>
       <r>    8.8997    0.0000 </r>
       <r>   10.6966    0.0000 </r>
      </set>
      <set comment="kpoint 85">
       <r>    2.6350    1.0000 </r>
       <r>    4.0753    1.0000 </r>
       <r>    7.0776    0.0000 </r>
       <r>    7.4818    0.0000 </r>
       <r>    9.9741    0.0000 </r>
       <r>   10.6431    0.0000 </r>
      </set>
      <set comment="kpoint 86">
       <r>    2.9129    1.0000 </r>
       <r>    3.7253    1.0000 </r>
       <r>    6.9485    0.0000 </r>
       <r>    7.6477    0.0000 </r>
       <r>   11.4863    0.0000 </r>
       <r>   11.5204    0.0000 </r>
      </set>
      <set comment="kpoint 87">
       <r>    3.0096    1.0000 </r>
       <r>    3.4982    1.0000 </r>
       <r>    7.1241    0.0000 </r>
       <r>    8.1840    0.0000 </r>
       <r>   10.4362    0.0000 </r>
       <r>   11.5328    0.0000 </r>
      </set>
      <set comment="kpoint 88">
       <r>    2.8209    1.0000 </r>
       <r>    3.8028    1.0000 </r>
       <r>    6.8494    0.0000 </r>
       <r>    7.4734    0.0000 </r>
       <r>   12.7397    0.0000 </r>
       <r>   13.1583    0.0000 </r>
      </set>
      <set comment="kpoint 89">
       <r>    2.9958    1.0000 </r>
       <r>    3.3274    1.0000 </r>
       <r>    6.8416    0.0000 </r>
       <r>    8.6501    0.0000 </r>
       <r>   11.3294    0.0000 </r>
       <r>   13.2952    0.0000 </r>
      </set>
      <set comment="kpoint 90">
       <r>    2.8760    1.0000 </r>
       <r>    3.3830    1.0000 </r>
       <r>    6.7061    0.0000 </r>
       <r>    8.7122    0.0000 </r>
       <r>   12.1009    0.0000 </r>
       <r>   14.7115    0.0000 </r>
      </set>
      <set comment="kpoint 91">
       <r>    3.0085    1.0000 </r>
       <r>    3.1149    1.0000 </r>
       <r>    6.5423    0.0000 </r>
       <r>    9.9900    0.0000 </r>
       <r>   11.1152    0.0000 </r>
       <r>   15.2305    0.0000 </r>
      </set>
      <set comment="kpoint 92">
       <r>    2.9269    1.0000 </r>
       <r>    3.4387    1.0000 </r>
       <r>    8.0382    0.0000 </r>
       <r>    8.0382    0.0000 </r>
       <r>   10.2417    0.0000 </r>
       <r>   10.5881    0.0000 </r>
      </set>
      <set comment="kpoint 93">
       <r>    2.8922    1.0000 </r>
       <r>    3.0063    1.0000 </r>
       <r>    8.3864    0.0000 </r>
       <r>    8.4594    0.0000 </r>
       <r>   11.3312    0.0000 </r>
       <r>   11.5347    0.0000 </r>
      </set>
      <set comment="kpoint 94">
       <r>    2.6544    1.0000 </r>
       <r>    2.9442    1.0000 </r>
       <r>    8.4177    0.0000 </r>
       <r>    8.4590    0.0000 </r>
       <r>   12.5306    0.0000 </r>
       <r>   13.4430    0.0000 </r>
      </set>
      <set comment="kpoint 95">
       <r>    2.6268    1.0000 </r>
       <r>    2.7352    1.0000 </r>
       <r>    8.3393    0.0000 </r>
       <r>    9.7666    0.0000 </r>
       <r>   11.5623    0.0000 </r>
       <r>   13.2614    0.0000 </r>
      </set>
      <set comment="kpoint 96">
       <r>    2.5215    1.0000 </r>
       <r>    2.6380    1.0000 </r>
       <r>    8.2803    0.0000 </r>
       <r>   10.2401    0.0000 </r>
       <r>   11.9559    0.0000 </r>
       <r>   14.9852    0.0000 </r>
      </set>
      <set comment="kpoint 97">
       <r>    2.4961    1.0000 </r>
       <r>    2.5991    1.0000 </r>
       <r>    9.6862    0.0000 </r>
       <r>    9.6862    0.0000 </r>
       <r>   11.5323    0.0000 </r>
       <r>   11.9638    0.0000 </r>
      </set>
      <set comment="kpoint 98">
       <r>    2.2647    1.0000 </r>
       <r>    2.3519    1.0000 </r>
       <r>   10.1811    0.0000 </r>
       <r>   10.1873    0.0000 </r>
       <r>   12.3754    0.0000 </r>
       <r>   13.5560    0.0000 </r>
      </set>
      <set comment="kpoint 99">
       <r>    2.1735    1.0000 </r>
       <r>    2.1735    1.0000 </r>
       <r>   10.2213    0.0000 </r>
       <r>   11.8342    0.0000 </r>
       <r>   11.8342    0.0000 </r>
       <r>   15.0867    0.0000 </r>
      </set>
      <set comment="kpoint 100">
       <r>    2.0154    1.0000 </r>
       <r>    2.0411    1.0000 </r>
       <r>   11.7886    0.0000 </r>
       <r>   11.7886    0.0000 </r>
       <r>   12.3740    0.0000 </r>
       <r>   13.8952    0.0000 </r>
      </set>
     </set>
     <set comment="spin 2">
      <set comment="kpoint 1">
       <r>   -1.8665    1.0000 </r>
       <r>    6.2454    0.0000 </r>
       <r>    6.2454    0.0000 </r>
       <r>    6.8116    0.0000 </r>
       <r>    9.5175    0.0000 </r>
       <r>    9.5175    0.0000 </r>
      </set>
      <set comment="kpoint 2">
       <r>   -1.2460    1.0000 </r>
       <r>    5.8444   -0.0001 </r>
       <r>    6.0034    0.0000 </r>
       <r>    7.5149    0.0000 </r>
       <r>    9.1512    0.0000 </r>
       <r>    9.6170    0.0000 </r>
      </set>
      <set comment="kpoint 3">
       <r>   -0.3349    1.0000 </r>
       <r>    5.3450    1.0000 </r>
       <r>    5.6246    1.0336 </r>
       <r>    8.5757    0.0000 </r>
       <r>    9.0659    0.0000 </r>
       <r>    9.7631    0.0000 </r>
      </set>
      <set comment="kpoint 4">
       <r>    0.6222    1.0000 </r>
       <r>    4.8651    1.0000 </r>
       <r>    5.3898    1.0000 </r>
       <r>    9.2443    0.0000 </r>
       <r>    9.9688    0.0000 </r>
       <r>    9.9852    0.0000 </r>
      </set>
      <set comment="kpoint 5">
       <r>    1.2509    1.0000 </r>
       <r>    4.4795    1.0000 </r>
       <r>    5.7293    0.0235 </r>
       <r>    9.5324    0.0000 </r>
       <r>   10.2263    0.0000 </r>
       <r>   11.5362    0.0000 </r>
      </set>
      <set comment="kpoint 6">
       <r>    1.4439    1.0000 </r>
       <r>    4.2331    1.0000 </r>
       <r>    6.5804    0.0000 </r>
       <r>    9.6464    0.0000 </r>
       <r>   10.4679    0.0000 </r>
       <r>   12.9614    0.0000 </r>
      </set>
      <set comment="kpoint 7">
       <r>    1.4626    1.0000 </r>
       <r>    4.1485    1.0000 </r>
       <r>    7.0996    0.0000 </r>
       <r>    9.5948    0.0000 </r>
       <r>   10.5716    0.0000 </r>
       <r>   13.6121    0.0000 </r>
      </set>
      <set comment="kpoint 8">
       <r>   -2.0842    1.0000 </r>
       <r>    6.4043    0.0000 </r>
       <r>    6.4043    0.0000 </r>
       <r>    6.4758    0.0000 </r>
       <r>    9.4787    0.0000 </r>
       <r>    9.7368    0.0000 </r>
      </set>
      <set comment="kpoint 9">
       <r>   -0.4874    1.0000 </r>
       <r>    5.4713    1.0000 </r>
       <r>    5.5217    1.0000 </r>
       <r>    8.5208    0.0000 </r>
       <r>    9.0481    0.0000 </r>
       <r>    9.7528    0.0000 </r>
      </set>
      <set comment="kpoint 10">
       <r>    0.4829    1.0000 </r>
       <r>    4.9947    1.0000 </r>
       <r>    5.1474    1.0000 </r>
       <r>    9.0669    0.0000 </r>
       <r>    9.8429    0.0000 </r>
       <r>   10.0243    0.0000 </r>
      </set>
      <set comment="kpoint 11">
       <r>    1.3567    1.0000 </r>
       <r>    4.5862    1.0000 </r>
       <r>    5.1187    1.0000 </r>
       <r>    9.3109    0.0000 </r>
       <r>   10.2646    0.0000 </r>
       <r>   11.3763    0.0000 </r>
      </set>
      <set comment="kpoint 12">
       <r>    1.7729    1.0000 </r>
       <r>    4.3078    1.0000 </r>
       <r>    5.7092    0.2232 </r>
       <r>    9.5817    0.0000 </r>
       <r>   10.4597    0.0000 </r>
       <r>   12.9108    0.0000 </r>
      </set>
      <set comment="kpoint 13">
       <r>    1.8437    1.0000 </r>
       <r>    4.1655    1.0000 </r>
       <r>    6.4695    0.0000 </r>
       <r>    9.6377    0.0000 </r>
       <r>   10.6354    0.0000 </r>
       <r>   14.0117    0.0000 </r>
      </set>
      <set comment="kpoint 14">
       <r>   -1.6522    1.0000 </r>
       <r>    6.1497    0.0000 </r>
       <r>    6.3075    0.0000 </r>
       <r>    6.8938    0.0000 </r>
       <r>    9.0192    0.0000 </r>
       <r>    9.8249    0.0000 </r>
      </set>
      <set comment="kpoint 15">
       <r>    1.4421    1.0000 </r>
       <r>    4.6185    1.0000 </r>
       <r>    4.8540    1.0000 </r>
       <r>    9.1508    0.0000 </r>
       <r>   10.3317    0.0000 </r>
       <r>   11.3584    0.0000 </r>
      </set>
      <set comment="kpoint 16">
       <r>    2.1884    1.0000 </r>
       <r>    4.3558    1.0000 </r>
       <r>    4.9627    1.0000 </r>
       <r>    9.4056    0.0000 </r>
       <r>   10.4853    0.0000 </r>
       <r>   12.9875    0.0000 </r>
      </set>
      <set comment="kpoint 17">
       <r>    2.4335    1.0000 </r>
       <r>    4.2351    1.0000 </r>
       <r>    5.5433    1.0001 </r>
       <r>    9.6472    0.0000 </r>
       <r>   10.5820    0.0000 </r>
       <r>   14.4376    0.0000 </r>
      </set>
      <set comment="kpoint 18">
       <r>    2.4528    1.0000 </r>
       <r>    4.1973    1.0000 </r>
       <r>    5.9133    0.0000 </r>
       <r>    9.6828    0.0000 </r>
       <r>   10.7027    0.0000 </r>
       <r>   15.1090    0.0000 </r>
      </set>
      <set comment="kpoint 19">
       <r>   -0.8612    1.0000 </r>
       <r>    5.6992    0.3761 </r>
       <r>    5.9988    0.0000 </r>
       <r>    7.7498    0.0000 </r>
       <r>    8.7223    0.0000 </r>
       <r>    9.9120    0.0000 </r>
      </set>
      <set comment="kpoint 20">
       <r>   -1.0413    1.0000 </r>
       <r>    5.9523    0.0000 </r>
       <r>    6.0506    0.0000 </r>
       <r>    7.4750    0.0000 </r>
       <r>    8.4902    0.0000 </r>
       <r>   10.0503    0.0000 </r>
      </set>
      <set comment="kpoint 21">
       <r>    2.8161    1.0000 </r>
       <r>    4.2697    1.0000 </r>
       <r>    5.0257    1.0000 </r>
       <r>    9.6634    0.0000 </r>
       <r>   10.5008    0.0000 </r>
       <r>   14.6439    0.0000 </r>
      </set>
      <set comment="kpoint 22">
       <r>    3.0219    1.0000 </r>
       <r>    4.3368    1.0000 </r>
       <r>    5.2182    1.0000 </r>
       <r>    9.9107    0.0000 </r>
       <r>   10.5337    0.0000 </r>
       <r>   14.7376    0.0000 </r>
      </set>
      <set comment="kpoint 23">
       <r>    0.1119    1.0000 </r>
       <r>    5.1981    1.0000 </r>
       <r>    5.5990    1.0124 </r>
       <r>    8.8259    0.0000 </r>
       <r>    8.9735    0.0000 </r>
       <r>   10.0514    0.0000 </r>
      </set>
      <set comment="kpoint 24">
       <r>   -0.1428    1.0000 </r>
       <r>    5.5098    1.0000 </r>
       <r>    5.6565    0.9620 </r>
       <r>    8.3189    0.0000 </r>
       <r>    8.5277    0.0000 </r>
       <r>   10.2502    0.0000 </r>
      </set>
      <set comment="kpoint 25">
       <r>    3.2411    1.0000 </r>
       <r>    4.7376    1.0000 </r>
       <r>    4.7376    1.0000 </r>
       <r>   10.3019    0.0000 </r>
       <r>   10.3019    0.0000 </r>
       <r>   14.0818    0.0000 </r>
      </set>
      <set comment="kpoint 26">
       <r>    0.9384    1.0000 </r>
       <r>    4.7491    1.0000 </r>
       <r>    5.5675    1.0012 </r>
       <r>    9.1686    0.0000 </r>
       <r>   10.2332    0.0000 </r>
       <r>   10.4711    0.0000 </r>
      </set>
      <set comment="kpoint 27">
       <r>    0.8091    1.0000 </r>
       <r>    5.0246    1.0000 </r>
       <r>    5.3573    1.0000 </r>
       <r>    8.5753    0.0000 </r>
       <r>    9.9012    0.0000 </r>
       <r>   10.4177    0.0000 </r>
      </set>
      <set comment="kpoint 28">
       <r>    0.7820    1.0000 </r>
       <r>    5.0564    1.0000 </r>
       <r>    5.3692    1.0000 </r>
       <r>    8.2677    0.0000 </r>
       <r>    9.7446    0.0000 </r>
       <r>   10.5106    0.0000 </r>
      </set>
      <set comment="kpoint 29">
       <r>    1.3225    1.0000 </r>
       <r>    4.4188    1.0000 </r>
       <r>    6.1693    0.0000 </r>
       <r>    9.4569    0.0000 </r>
       <r>   10.4483    0.0000 </r>
       <r>   12.0434    0.0000 </r>
      </set>
      <set comment="kpoint 30">
       <r>    1.4467    1.0000 </r>
       <r>    4.6620    1.0000 </r>
       <r>    5.5205    1.0000 </r>
       <r>    9.0005    0.0000 </r>
       <r>   10.5192    0.0000 </r>
       <r>   11.4987    0.0000 </r>
      </set>
      <set comment="kpoint 31">
       <r>    1.6483    1.0000 </r>
       <r>    4.6383    1.0000 </r>
       <r>    5.2527    1.0000 </r>
       <r>    8.5593    0.0000 </r>
       <r>   10.4950    0.0000 </r>
       <r>   11.3838    0.0000 </r>
      </set>
      <set comment="kpoint 32">
       <r>    1.3952    1.0000 </r>
       <r>    4.2452    1.0000 </r>
       <r>    6.9357    0.0000 </r>
       <r>    9.4353    0.0000 </r>
       <r>   10.6876    0.0000 </r>
       <r>   13.2184    0.0000 </r>
      </set>
      <set comment="kpoint 33">
       <r>    1.6416    1.0000 </r>
       <r>    4.4342    1.0000 </r>
       <r>    6.1559    0.0000 </r>
       <r>    9.1828    0.0000 </r>
       <r>   10.7943    0.0000 </r>
       <r>   12.9555    0.0000 </r>
      </set>
      <set comment="kpoint 34">
       <r>    2.1022    1.0000 </r>
       <r>    4.4943    1.0000 </r>
       <r>    5.4221    1.0000 </r>
       <r>    8.9432    0.0000 </r>
       <r>   10.5869    0.0000 </r>
       <r>   12.9984    0.0000 </r>
      </set>
      <set comment="kpoint 35">
       <r>    2.4099    1.0000 </r>
       <r>    4.2908    1.0000 </r>
       <r>    5.2672    1.0000 </r>
       <r>    8.8401    0.0000 </r>
       <r>   10.4343    0.0000 </r>
       <r>   13.0702    0.0000 </r>
      </set>
      <set comment="kpoint 36">
       <r>    1.6584    1.0000 </r>
       <r>    4.3554    1.0000 </r>
       <r>    6.5515    0.0000 </r>
       <r>    9.1081    0.0000 </r>
       <r>   11.0441    0.0000 </r>
       <r>   13.6287    0.0000 </r>
      </set>
      <set comment="kpoint 37">
       <r>    2.1853    1.0000 </r>
       <r>    4.4556    1.0000 </r>
       <r>    5.7858   -0.0115 </r>
       <r>    9.0100    0.0000 </r>
       <r>   10.9537    0.0000 </r>
       <r>   14.2503    0.0000 </r>
      </set>
      <set comment="kpoint 38">
       <r>    2.7949    1.0000 </r>
       <r>    4.2901    1.0000 </r>
       <r>    5.2417    1.0000 </r>
       <r>    9.2130    0.0000 </r>
       <r>   10.4956    0.0000 </r>
       <r>   14.7572    0.0000 </r>
      </set>
      <set comment="kpoint 39">
       <r>    2.8558    1.0000 </r>
       <r>    4.4152    1.0000 </r>
       <r>    5.1929    1.0000 </r>
       <r>    9.3054    0.0000 </r>
       <r>   10.7404    0.0000 </r>
       <r>   15.2893    0.0000 </r>
      </set>
      <set comment="kpoint 40">
       <r>    3.2890    1.0000 </r>
       <r>    4.3271    1.0000 </r>
       <r>    4.8283    1.0000 </r>
       <r>    9.7776    0.0000 </r>
       <r>   10.3436    0.0000 </r>
       <r>   14.8276    0.0000 </r>
      </set>
      <set comment="kpoint 41">
       <r>    0.3735    1.0000 </r>
       <r>    5.0094    1.0000 </r>
       <r>    5.0094    1.0000 </r>
       <r>    9.5776    0.0000 </r>
       <r>    9.5776    0.0000 </r>
       <r>    9.8592    0.0000 </r>
      </set>
      <set comment="kpoint 42">
       <r>    1.3769    1.0000 </r>
       <r>    4.5939    1.0000 </r>
       <r>    4.6980    1.0000 </r>
       <r>    9.6280    0.0000 </r>
       <r>   10.0025    0.0000 </r>
       <r>   11.4090    0.0000 </r>
      </set>
      <set comment="kpoint 43">
       <r>    2.1183    1.0000 </r>
       <r>    4.2955    1.0000 </r>
       <r>    4.9100    1.0000 </r>
       <r>    9.8097    0.0000 </r>
       <r>   10.3256    0.0000 </r>
       <r>   13.0076    0.0000 </r>
      </set>
      <set comment="kpoint 44">
       <r>    2.3241    1.0000 </r>
       <r>    4.1179    1.0000 </r>
       <r>    5.7204    0.0924 </r>
       <r>    9.9406    0.0000 </r>
       <r>   10.5461    0.0000 </r>
       <r>   14.3411    0.0000 </r>
      </set>
      <set comment="kpoint 45">
       <r>    2.3314    1.0000 </r>
       <r>    4.0590    1.0000 </r>
       <r>    6.2187    0.0000 </r>
       <r>    9.9495    0.0000 </r>
       <r>   10.6281    0.0000 </r>
       <r>   14.9100    0.0000 </r>
      </set>
      <set comment="kpoint 46">
       <r>   -1.2308    1.0000 </r>
       <r>    6.3284    0.0000 </r>
       <r>    6.3284    0.0000 </r>
       <r>    6.8994    0.0000 </r>
       <r>    8.1982    0.0000 </r>
       <r>   10.2026    0.0000 </r>
      </set>
      <set comment="kpoint 47">
       <r>    2.3650    1.0000 </r>
       <r>    4.3378    1.0000 </r>
       <r>    4.4350    1.0000 </r>
       <r>    9.8683    0.0000 </r>
       <r>   10.2879    0.0000 </r>
       <r>   13.0802    0.0000 </r>
      </set>
      <set comment="kpoint 48">
       <r>    2.9301    1.0000 </r>
       <r>    4.1803    1.0000 </r>
       <r>    4.8001    1.0000 </r>
       <r>   10.0606    0.0000 </r>
       <r>   10.5173    0.0000 </r>
       <r>   14.6339    0.0000 </r>
      </set>
      <set comment="kpoint 49">
       <r>    2.9898    1.0000 </r>
       <r>    4.1055    1.0000 </r>
       <r>    5.5128    1.0000 </r>
       <r>   10.1630    0.0000 </r>
       <r>   10.6382    0.0000 </r>
       <r>   14.7476    0.0000 </r>
      </set>
      <set comment="kpoint 50">
       <r>   -0.4590    1.0000 </r>
       <r>    6.0457    0.0000 </r>
       <r>    6.1265    0.0000 </r>
       <r>    7.6163    0.0000 </r>
       <r>    7.6387    0.0000 </r>
       <r>   10.4548    0.0000 </r>
      </set>
      <set comment="kpoint 51">
       <r>    3.3619    1.0000 </r>
       <r>    4.3338    1.0000 </r>
       <r>    4.8940    1.0000 </r>
       <r>   10.2836    0.0000 </r>
       <r>   10.5916    0.0000 </r>
       <r>   14.4747    0.0000 </r>
      </set>
      <set comment="kpoint 52">
       <r>    3.4209    1.0000 </r>
       <r>    4.4242    1.0000 </r>
       <r>    5.0706    1.0000 </r>
       <r>   10.3967    0.0000 </r>
       <r>   10.6093    0.0000 </r>
       <r>   13.7310    0.0000 </r>
      </set>
      <set comment="kpoint 53">
       <r>    0.4967    1.0000 </r>
       <r>    5.5649    1.0010 </r>
       <r>    5.5931    1.0087 </r>
       <r>    7.7992    0.0000 </r>
       <r>    8.8231    0.0000 </r>
       <r>   10.6032    0.0000 </r>
      </set>
      <set comment="kpoint 54">
       <r>    0.3974    1.0000 </r>
       <r>    5.6655    0.8834 </r>
       <r>    5.9782    0.0000 </r>
       <r>    7.3281    0.0000 </r>
       <r>    8.4184    0.0000 </r>
       <r>   10.6872    0.0000 </r>
      </set>
      <set comment="kpoint 55">
       <r>    1.3284    1.0000 </r>
       <r>    5.1710    1.0000 </r>
       <r>    5.2436    1.0000 </r>
       <r>    8.3136    0.0000 </r>
       <r>   10.3247    0.0000 </r>
       <r>   10.6768    0.0000 </r>
      </set>
      <set comment="kpoint 56">
       <r>    1.3218    1.0000 </r>
       <r>    5.0191    1.0000 </r>
       <r>    5.7145    0.1561 </r>
       <r>    7.6776    0.0000 </r>
       <r>    9.7018    0.0000 </r>
       <r>   10.7754    0.0000 </r>
      </set>
      <set comment="kpoint 57">
       <r>    1.7207    1.0000 </r>
       <r>    4.8567    1.0000 </r>
       <r>    5.5066    1.0000 </r>
       <r>    8.6709    0.0000 </r>
       <r>   10.9498    0.0000 </r>
       <r>   11.9139    0.0000 </r>
      </set>
      <set comment="kpoint 58">
       <r>    1.9792    1.0000 </r>
       <r>    4.7414    1.0000 </r>
       <r>    5.4541    1.0000 </r>
       <r>    8.2043    0.0000 </r>
       <r>   10.5998    0.0000 </r>
       <r>   11.5371    0.0000 </r>
      </set>
      <set comment="kpoint 59">
       <r>    2.1476    1.0000 </r>
       <r>    4.4288    1.0000 </r>
       <r>    5.7275    0.0350 </r>
       <r>    7.9687    0.0000 </r>
       <r>   10.2968    0.0000 </r>
       <r>   11.5495    0.0000 </r>
      </set>
      <set comment="kpoint 60">
       <r>    1.7839    1.0000 </r>
       <r>    4.6903    1.0000 </r>
       <r>    5.9990    0.0000 </r>
       <r>    8.5640    0.0000 </r>
       <r>   11.5540    0.0000 </r>
       <r>   13.1139    0.0000 </r>
      </set>
      <set comment="kpoint 61">
       <r>    2.1765    1.0000 </r>
       <r>    4.8691    1.0000 </r>
       <r>    5.3730    1.0000 </r>
       <r>    8.3146    0.0000 </r>
       <r>   11.2475    0.0000 </r>
       <r>   13.0247    0.0000 </r>
      </set>
      <set comment="kpoint 62">
       <r>    2.6864    1.0000 </r>
       <r>    4.2246    1.0000 </r>
       <r>    5.5035    1.0000 </r>
       <r>    8.4486    0.0000 </r>
       <r>   10.4592    0.0000 </r>
       <r>   13.2137    0.0000 </r>
      </set>
      <set comment="kpoint 63">
       <r>    2.1826    1.0000 </r>
       <r>    4.9242    1.0000 </r>
       <r>    5.4611    1.0000 </r>
       <r>    8.2035    0.0000 </r>
       <r>   11.7906    0.0000 </r>
       <r>   13.7786    0.0000 </r>
      </set>
      <set comment="kpoint 64">
       <r>    2.7899    1.0000 </r>
       <r>    4.5735    1.0000 </r>
       <r>    5.0874    1.0000 </r>
       <r>    8.5744    0.0000 </r>
       <r>   11.1069    0.0000 </r>
       <r>   14.7179    0.0000 </r>
      </set>
      <set comment="kpoint 65">
       <r>    3.3473    1.0000 </r>
       <r>    3.9452    1.0000 </r>
       <r>    5.0592    1.0000 </r>
       <r>    9.1460    0.0000 </r>
       <r>   10.4215    0.0000 </r>
       <r>   15.0452    0.0000 </r>
      </set>
      <set comment="kpoint 66">
       <r>    3.5310    1.0000 </r>
       <r>    4.3567    1.0000 </r>
       <r>    4.3897    1.0000 </r>
       <r>    9.4934    0.0000 </r>
       <r>   10.5741    0.0000 </r>
       <r>   15.1956    0.0000 </r>
      </set>
      <set comment="kpoint 67">
       <r>    3.4086    1.0000 </r>
       <r>    4.1828    1.0000 </r>
       <r>    4.1828    1.0000 </r>
       <r>   10.3555    0.0000 </r>
       <r>   10.3555    0.0000 </r>
       <r>   14.7618    0.0000 </r>
      </set>
      <set comment="kpoint 68">
       <r>    3.7250    1.0000 </r>
       <r>    4.1136    1.0000 </r>
       <r>    4.7320    1.0000 </r>
       <r>   10.4479    0.0000 </r>
       <r>   10.6191    0.0000 </r>
       <r>   14.4062    0.0000 </r>
      </set>
      <set comment="kpoint 69">
       <r>    3.6813    1.0000 </r>
       <r>    4.0952    1.0000 </r>
       <r>    5.2018    1.0000 </r>
       <r>   10.4777    0.0000 </r>
       <r>   10.6999    0.0000 </r>
       <r>   13.6350    0.0000 </r>
      </set>
      <set comment="kpoint 70">
       <r>    0.2723    1.0000 </r>
       <r>    6.4238    0.0000 </r>
       <r>    6.4238    0.0000 </r>
       <r>    6.4482    0.0000 </r>
       <r>    7.7182    0.0000 </r>
       <r>   10.7657    0.0000 </r>
      </set>
      <set comment="kpoint 71">
       <r>    3.9622    1.0000 </r>
       <r>    4.4179    1.0000 </r>
       <r>    4.7457    1.0000 </r>
       <r>   10.6294    0.0000 </r>
       <r>   10.6899    0.0000 </r>
       <r>   13.2090    0.0000 </r>
      </set>
      <set comment="kpoint 72">
       <r>    1.1744    1.0000 </r>
       <r>    5.3937    1.0000 </r>
       <r>    6.2932    0.0000 </r>
       <r>    6.9508    0.0000 </r>
       <r>    8.6529    0.0000 </r>
       <r>   10.8140    0.0000 </r>
      </set>
      <set comment="kpoint 73">
       <r>    1.9826    1.0000 </r>
       <r>    4.7021    1.0000 </r>
       <r>    5.9752    0.0000 </r>
       <r>    7.5875    0.0000 </r>
       <r>   10.0995    0.0000 </r>
       <r>   10.7966    0.0000 </r>
      </set>
      <set comment="kpoint 74">
       <r>    2.0024    1.0000 </r>
       <r>    4.6474    1.0000 </r>
       <r>    6.4217    0.0000 </r>
       <r>    7.2445    0.0000 </r>
       <r>    9.5713    0.0000 </r>
       <r>   10.7710    0.0000 </r>
      </set>
      <set comment="kpoint 75">
       <r>    2.3717    1.0000 </r>
       <r>    4.5908    1.0000 </r>
       <r>    5.7074    0.2493 </r>
       <r>    7.8367    0.0000 </r>
       <r>   11.3589    0.0000 </r>
       <r>   11.6949    0.0000 </r>
      </set>
      <set comment="kpoint 76">
       <r>    2.6330    1.0000 </r>
       <r>    4.1167    1.0000 </r>
       <r>    6.1993    0.0000 </r>
       <r>    7.7971    0.0000 </r>
       <r>   10.3845    0.0000 </r>
       <r>   11.5878    0.0000 </r>
      </set>
      <set comment="kpoint 77">
       <r>    2.3968    1.0000 </r>
       <r>    4.8446    1.0000 </r>
       <r>    5.5610    1.0007 </r>
       <r>    7.6312    0.0000 </r>
       <r>   12.4934    0.0000 </r>
       <r>   12.9307    0.0000 </r>
      </set>
      <set comment="kpoint 78">
       <r>    2.7950    1.0000 </r>
       <r>    4.1534    1.0000 </r>
       <r>    5.8693    0.0000 </r>
       <r>    7.9159    0.0000 </r>
       <r>   11.3636    0.0000 </r>
       <r>   13.1913    0.0000 </r>
      </set>
      <set comment="kpoint 79">
       <r>    3.1864    1.0000 </r>
       <r>    3.6529    1.0000 </r>
       <r>    5.8587    0.0000 </r>
       <r>    8.5597    0.0000 </r>
       <r>   10.4388    0.0000 </r>
       <r>   13.3299    0.0000 </r>
      </set>
      <set comment="kpoint 80">
       <r>    2.7576    1.0000 </r>
       <r>    4.3362    1.0000 </r>
       <r>    5.6771    0.7367 </r>
       <r>    7.8539    0.0000 </r>
       <r>   12.1141    0.0000 </r>
       <r>   14.2103    0.0000 </r>
      </set>
      <set comment="kpoint 81">
       <r>    3.2454    1.0000 </r>
       <r>    3.7987    1.0000 </r>
       <r>    5.3615    1.0000 </r>
       <r>    9.0194    0.0000 </r>
       <r>   11.0331    0.0000 </r>
       <r>   15.0925    0.0000 </r>
      </set>
      <set comment="kpoint 82">
       <r>    3.5881    1.0000 </r>
       <r>    3.5881    1.0000 </r>
       <r>    5.0142    1.0000 </r>
       <r>   10.2705    0.0000 </r>
       <r>   10.2706    0.0000 </r>
       <r>   15.3350    0.0000 </r>
      </set>
      <set comment="kpoint 83">
       <r>    4.4557    1.0000 </r>
       <r>    4.4557    1.0000 </r>
       <r>    4.4557    1.0000 </r>
       <r>   10.7323    0.0000 </r>
       <r>   10.7323    0.0000 </r>
       <r>   12.7259    0.0000 </r>
      </set>
      <set comment="kpoint 84">
       <r>    1.9557    1.0000 </r>
       <r>    4.7755    1.0000 </r>
       <r>    6.9372    0.0000 </r>
       <r>    6.9372    0.0000 </r>
       <r>    8.8657    0.0000 </r>
       <r>   10.6748    0.0000 </r>
      </set>
      <set comment="kpoint 85">
       <r>    2.6068    1.0000 </r>
       <r>    4.0530    1.0000 </r>
       <r>    7.0430    0.0000 </r>
       <r>    7.4484    0.0000 </r>
       <r>    9.9413    0.0000 </r>
       <r>   10.6176    0.0000 </r>
      </set>
      <set comment="kpoint 86">
       <r>    2.8864    1.0000 </r>
       <r>    3.7020    1.0000 </r>
       <r>    6.9139    0.0000 </r>
       <r>    7.6161    0.0000 </r>
       <r>   11.4554    0.0000 </r>
       <r>   11.4912    0.0000 </r>
      </set>
      <set comment="kpoint 87">
       <r>    2.9832    1.0000 </r>
       <r>    3.4755    1.0000 </r>
       <r>    7.0904    0.0000 </r>
       <r>    8.1506    0.0000 </r>
       <r>   10.4059    0.0000 </r>
       <r>   11.5027    0.0000 </r>
      </set>
      <set comment="kpoint 88">
       <r>    2.7955    1.0000 </r>
       <r>    3.7791    1.0000 </r>
       <r>    6.8147    0.0000 </r>
       <r>    7.4420    0.0000 </r>
       <r>   12.7113    0.0000 </r>
       <r>   13.1274    0.0000 </r>
      </set>
      <set comment="kpoint 89">
       <r>    2.9716    1.0000 </r>
       <r>    3.3037    1.0000 </r>
       <r>    6.8077    0.0000 </r>
       <r>    8.6173    0.0000 </r>
       <r>   11.2987    0.0000 </r>
       <r>   13.2651    0.0000 </r>
      </set>
      <set comment="kpoint 90">
       <r>    2.8520    1.0000 </r>
       <r>    3.3596    1.0000 </r>
       <r>    6.6720    0.0000 </r>
       <r>    8.6795    0.0000 </r>
       <r>   12.0710    0.0000 </r>
       <r>   14.6803    0.0000 </r>
      </set>
      <set comment="kpoint 91">
       <r>    2.9853    1.0000 </r>
       <r>    3.0913    1.0000 </r>
       <r>    6.5077    0.0000 </r>
       <r>    9.9580    0.0000 </r>
       <r>   11.0842    0.0000 </r>
       <r>   15.2007    0.0000 </r>
      </set>
      <set comment="kpoint 92">
       <r>    2.9009    1.0000 </r>
       <r>    3.4164    1.0000 </r>
       <r>    8.0042    0.0000 </r>
       <r>    8.0043    0.0000 </r>
       <r>   10.2094    0.0000 </r>
       <r>   10.5592    0.0000 </r>
      </set>
      <set comment="kpoint 93">
       <r>    2.8684    1.0000 </r>
       <r>    2.9830    1.0000 </r>
       <r>    8.3526    0.0000 </r>
       <r>    8.4261    0.0000 </r>
       <r>   11.3004    0.0000 </r>
       <r>   11.5029    0.0000 </r>
      </set>
      <set comment="kpoint 94">
       <r>    2.6311    1.0000 </r>
       <r>    2.9209    1.0000 </r>
       <r>    8.3839    0.0000 </r>
       <r>    8.4258    0.0000 </r>
       <r>   12.5019    0.0000 </r>
       <r>   13.4094    0.0000 </r>
      </set>
      <set comment="kpoint 95">
       <r>    2.6040    1.0000 </r>
       <r>    2.7117    1.0000 </r>
       <r>    8.3056    0.0000 </r>
       <r>    9.7338    0.0000 </r>
       <r>   11.5312    0.0000 </r>
       <r>   13.2296    0.0000 </r>
      </set>
      <set comment="kpoint 96">
       <r>    2.4985    1.0000 </r>
       <r>    2.6149    1.0000 </r>
[...]
       </set>
       <set comment="band 2">
        <r>  0.0239  0.0437  0.0005  0.1637  0.0713  0.2849  0.0162  0.2428  0.0442 </r>
       </set>
       <set comment="band 3">
        <r>  0.0213  0.0851  0.0001  0.0000  0.0013  0.3412  0.1027  0.4197  0.0012 </r>
       </set>
       <set comment="band 4">
        <r>  0.0769  0.0010  0.0258  0.0422  0.0243  0.1288  0.6043  0.0219  0.0024 </r>
       </set>
       <set comment="band 5">
        <r>  0.0849  0.0282  0.0039  0.1509  0.0028  0.1295  0.0055  0.1056  0.4545 </r>
       </set>
       <set comment="band 6">
        <r>  0.0592  0.1492  0.0050  0.0840  0.1910  0.0183  0.0243  0.1151  0.3355 </r>
       </set>
      </set>
      <set comment="kpoint 79">
       <set comment="band 1">
        <r>  0.1759  0.0701  0.0798  0.0711  0.1787  0.2497  0.0050  0.0938  0.0000 </r>
       </set>
       <set comment="band 2">
        <r>  0.0000  0.0065  0.0196  0.0523  0.4262  0.1355  0.0348  0.0686  0.1514 </r>
       </set>
       <set comment="band 3">
        <r>  0.0374  0.0925  0.0006  0.0085  0.0023  0.1532  0.2296  0.4267  0.0063 </r>
       </set>
       <set comment="band 4">
        <r>  0.0000  0.0111  0.0333  0.0887  0.0134  0.0546  0.4369  0.1481  0.1576 </r>
       </set>
       <set comment="band 5">
        <r>  0.1551  0.0311  0.0317  0.0294  0.0006  0.3035  0.0591  0.0285  0.3118 </r>
       </set>
       <set comment="band 6">
        <r>  0.0839  0.1748  0.0142  0.0488  0.2689  0.0049  0.0448  0.1090  0.2304 </r>
       </set>
      </set>
      <set comment="kpoint 80">
       <set comment="band 1">
        <r>  0.1155  0.0050  0.0776  0.0025  0.6458  0.0018  0.0016  0.0009  0.0807 </r>
       </set>
       <set comment="band 2">
        <r>  0.0000  0.0887  0.0000  0.1774  0.0011  0.2047  0.0000  0.4094  0.0088 </r>
       </set>
       <set comment="band 3">
        <r>  0.0469  0.0389  0.0001  0.0195  0.0102  0.4867  0.1267  0.2434  0.0013 </r>
       </set>
       <set comment="band 4">
        <r>  0.1112  0.0143  0.0295  0.0072  0.0244  0.1141  0.5627  0.0571  0.0031 </r>
       </set>
       <set comment="band 5">
        <r>  0.0000  0.0821  0.0000  0.1643  0.0609  0.0603  0.0000  0.1207  0.4874 </r>
       </set>
       <set comment="band 6">
        <r>  0.0000  0.1335  0.0000  0.2670  0.0477  0.0560  0.0000  0.1121  0.3818 </r>
       </set>
      </set>
      <set comment="kpoint 81">
       <set comment="band 1">
        <r>  0.0566  0.0385  0.0780  0.0018  0.6490  0.0063  0.0054  0.0010  0.0781 </r>
       </set>
       <set comment="band 2">
        <r>  0.0156  0.0408  0.0010  0.1484  0.0043  0.3259  0.0109  0.3093  0.0437 </r>
       </set>
       <set comment="band 3">
        <r>  0.1039  0.0576  0.0041  0.0005  0.0003  0.2456  0.2223  0.3271  0.0004 </r>
       </set>
       <set comment="band 4">
        <r>  0.0341  0.0287  0.0547  0.0448  0.0085  0.1638  0.4928  0.1011  0.0111 </r>
       </set>
       <set comment="band 5">
        <r>  0.0370  0.0559  0.0050  0.1245  0.0303  0.1168  0.0005  0.0653  0.5216 </r>
       </set>
       <set comment="band 6">
        <r>  0.1237  0.1207  0.0223  0.1454  0.1954  0.0340  0.0647  0.0545  0.2287 </r>
       </set>
      </set>
      <set comment="kpoint 82">
       <set comment="band 1">
        <r>  0.0000  0.0514  0.0000  0.1028  0.0058  0.2318  0.0000  0.4635  0.0461 </r>
       </set>
       <set comment="band 2">
        <r>  0.0000  0.0685  0.0514  0.0343  0.5906  0.0115  0.0654  0.0058  0.0738 </r>
       </set>
       <set comment="band 3">
        <r>  0.1701  0.0098  0.0294  0.0049  0.0562  0.3369  0.1895  0.1685  0.0070 </r>
       </set>
       <set comment="band 4">
        <r>  0.0000  0.0797  0.0597  0.0398  0.0000  0.1389  0.5612  0.0695  0.0000 </r>
       </set>
       <set comment="band 5">
        <r>  0.0000  0.0597  0.0000  0.1195  0.0695  0.0482  0.0000  0.0963  0.5557 </r>
       </set>
       <set comment="band 6">
        <r>  0.4770  0.0230  0.0689  0.0115  0.0204  0.1225  0.0689  0.0612  0.0026 </r>
       </set>
      </set>
      <set comment="kpoint 83">
       <set comment="band 1">
        <r>  0.0000  0.2264  0.0617  0.0042  0.1785  0.0973  0.2189  0.0486  0.1481 </r>
       </set>
       <set comment="band 2">
        <r>  0.0000  0.0010  0.0358  0.2556  0.0008  0.0564  0.1268  0.0282  0.4792 </r>
       </set>
       <set comment="band 3">
        <r>  0.0000  0.0650  0.1949  0.0325  0.0512  0.3072  0.1728  0.1536  0.0064 </r>
       </set>
       <set comment="band 4">
        <r>  0.0000  0.0000  0.0000  0.0000  0.0000  0.3315  0.0000  0.6630  0.0000 </r>
       </set>
       <set comment="band 5">
        <r>  0.0000  0.0000  0.0000  0.0000  0.6630  0.0000  0.2486  0.0000  0.0829 </r>
       </set>
       <set comment="band 6">
        <r>  0.9524  0.0000  0.0000  0.0000  0.0000  0.0000  0.0000  0.0000  0.0000 </r>
       </set>
      </set>
      <set comment="kpoint 84">
       <set comment="band 1">
        <r>  0.4485  0.0481  0.1442  0.0961  0.0291  0.0437  0.0109  0.0874  0.0036 </r>
       </set>
       <set comment="band 2">
        <r>  0.0000  0.0000  0.0000  0.0000  0.4242  0.0707  0.1591  0.1414  0.0530 </r>
       </set>
       <set comment="band 3">
        <r>  0.0000  0.0097  0.0290  0.0772  0.0238  0.1430  0.3218  0.0715  0.2980 </r>
       </set>
       <set comment="band 4">
        <r>  0.0000  0.0869  0.0290  0.0000  0.2145  0.1430  0.3218  0.0715  0.1073 </r>
       </set>
       <set comment="band 5">
        <r>  0.0000  0.0000  0.0000  0.0000  0.0537  0.3219  0.0000  0.1610  0.4292 </r>
       </set>
       <set comment="band 6">
        <r>  0.1760  0.0047  0.0141  0.0094  0.1300  0.1949  0.0487  0.3899  0.0162 </r>
       </set>
      </set>
      <set comment="kpoint 85">
       <set comment="band 1">
        <r>  0.2992  0.0524  0.1293  0.1048  0.1196  0.0649  0.0013  0.1298  0.0150 </r>
       </set>
       <set comment="band 2">
        <r>  0.0011  0.0051  0.0015  0.0102  0.4720  0.0851  0.0637  0.1701  0.0590 </r>
       </set>
       <set comment="band 3">
        <r>  0.0000  0.0774  0.0000  0.0387  0.0116  0.4995  0.0000  0.2498  0.0927 </r>
       </set>
       <set comment="band 4">
        <r>  0.0067  0.0322  0.0407  0.0643  0.0453  0.0015  0.7541  0.0029  0.0057 </r>
       </set>
       <set comment="band 5">
        <r>  0.0000  0.0163  0.0000  0.0081  0.0858  0.1034  0.0000  0.0517  0.6861 </r>
       </set>
       <set comment="band 6">
        <r>  0.2659  0.0264  0.0165  0.0528  0.1309  0.1507  0.0041  0.3015  0.0164 </r>
       </set>
      </set>
      <set comment="kpoint 86">
       <set comment="band 1">
        <r>  0.1461  0.0247  0.1012  0.0494  0.4518  0.0276  0.0050  0.0553  0.0565 </r>
       </set>
       <set comment="band 2">
        <r>  0.0189  0.0377  0.0012  0.0754  0.2015  0.1652  0.0297  0.3305  0.0252 </r>
       </set>
       <set comment="band 3">
        <r>  0.0000  0.0706  0.0000  0.0353  0.0024  0.5623  0.0000  0.2811  0.0195 </r>
       </set>
       <set comment="band 4">
        <r>  0.0843  0.0171  0.0487  0.0341  0.0009  0.0092  0.7160  0.0185  0.0001 </r>
       </set>
       <set comment="band 5">
        <r>  0.0000  0.0257  0.0000  0.0129  0.0959  0.0333  0.0000  0.0166  0.7672 </r>
       </set>
       <set comment="band 6">
        <r>  0.2353  0.0936  0.0147  0.1873  0.1012  0.0979  0.0252  0.1958  0.0126 </r>
       </set>
      </set>
      <set comment="kpoint 87">
       <set comment="band 1">
        <r>  0.1607  0.0595  0.1082  0.0827  0.1311  0.1767  0.0049  0.1886  0.0024 </r>
       </set>
       <set comment="band 2">
        <r>  0.0000  0.0017  0.0052  0.0140  0.4532  0.1073  0.0908  0.1082  0.1026 </r>
       </set>
       <set comment="band 3">
        <r>  0.0338  0.0922  0.0222  0.0003  0.0352  0.1910  0.2734  0.3056  0.0005 </r>
       </set>
       <set comment="band 4">
        <r>  0.0000  0.0136  0.0407  0.1086  0.0002  0.0905  0.3732  0.1060  0.2161 </r>
       </set>
       <set comment="band 5">
        <r>  0.1631  0.0122  0.0371  0.0247  0.0029  0.3214  0.0399  0.0053  0.3367 </r>
       </set>
       <set comment="band 6">
        <r>  0.1483  0.1250  0.0145  0.0394  0.2486  0.0038  0.0197  0.1612  0.1944 </r>
       </set>
      </set>
      <set comment="kpoint 88">
       <set comment="band 1">
        <r>  0.0724  0.0017  0.0761  0.0035  0.6660  0.0012  0.0111  0.0024  0.0832 </r>
       </set>
       <set comment="band 2">
        <r>  0.0065  0.0645  0.0014  0.1290  0.0124  0.2249  0.0040  0.4498  0.0016 </r>
       </set>
       <set comment="band 3">
        <r>  0.0000  0.0675  0.0000  0.0338  0.0002  0.5795  0.0000  0.2897  0.0017 </r>
       </set>
       <set comment="band 4">
        <r>  0.1701  0.0020  0.0619  0.0040  0.0021  0.0023  0.6701  0.0046  0.0003 </r>
       </set>
       <set comment="band 5">
        <r>  0.0000  0.0070  0.0000  0.0035  0.1062  0.0046  0.0000  0.0023  0.8496 </r>
       </set>
       <set comment="band 6">
        <r>  0.0756  0.1962  0.0067  0.3924  0.0305  0.0805  0.0253  0.1611  0.0038 </r>
       </set>
      </set>
      <set comment="kpoint 89">
       <set comment="band 1">
        <r>  0.0421  0.0248  0.0680  0.0032  0.6256  0.0060  0.0508  0.0101  0.0769 </r>
       </set>
       <set comment="band 2">
        <r>  0.0208  0.0313  0.0071  0.0972  0.0268  0.2855  0.0134  0.3967  0.0205 </r>
       </set>
       <set comment="band 3">
        <r>  0.0857  0.0645  0.0312  0.0039  0.0091  0.2425  0.2376  0.2754  0.0002 </r>
       </set>
       <set comment="band 4">
        <r>  0.0392  0.0239  0.0668  0.0644  0.0000  0.2015  0.4208  0.0857  0.0366 </r>
       </set>
       <set comment="band 5">
        <r>  0.0967  0.0301  0.0135  0.1261  0.0127  0.1287  0.0008  0.0166  0.5219 </r>
       </set>
       <set comment="band 6">
        <r>  0.1097  0.1717  0.0179  0.1060  0.1960  0.0097  0.0420  0.0867  0.2252 </r>
       </set>
      </set>
      <set comment="kpoint 90">
       <set comment="band 1">
        <r>  0.0262  0.0067  0.0576  0.0033  0.6779  0.0000  0.0533  0.0000  0.0847 </r>
       </set>
       <set comment="band 2">
        <r>  0.0000  0.0491  0.0000  0.0983  0.0006  0.2493  0.0000  0.4986  0.0045 </r>
       </set>
       <set comment="band 3">
        <r>  0.1107  0.0382  0.0386  0.0191  0.0040  0.3317  0.2414  0.1658  0.0005 </r>
       </set>
       <set comment="band 4">
        <r>  0.0656  0.0480  0.0745  0.0240  0.0013  0.2173  0.3962  0.1086  0.0002 </r>
       </set>
       <set comment="band 5">
        <r>  0.0000  0.0638  0.0000  0.1276  0.0782  0.0223  0.0000  0.0446  0.6253 </r>
       </set>
       <set comment="band 6">
        <r>  0.0000  0.1926  0.0000  0.3852  0.0307  0.0419  0.0000  0.0838  0.2452 </r>
       </set>
      </set>
      <set comment="kpoint 91">
       <set comment="band 1">
        <r>  0.0000  0.0058  0.0173  0.0462  0.4380  0.1032  0.0889  0.1052  0.0983 </r>
       </set>
       <set comment="band 2">
        <r>  0.0090  0.0623  0.0251  0.0343  0.1833  0.2048  0.0208  0.3636  0.0022 </r>
       </set>
       <set comment="band 3">
        <r>  0.1328  0.0355  0.0587  0.0067  0.0366  0.2571  0.2015  0.2182  0.0035 </r>
       </set>
       <set comment="band 4">
        <r>  0.0000  0.0168  0.0505  0.1346  0.0012  0.0710  0.3722  0.1137  0.1807 </r>
       </set>
       <set comment="band 5">
        <r>  0.0327  0.1100  0.0347  0.0535  0.0529  0.1704  0.0788  0.0000  0.4127 </r>
       </set>
       <set comment="band 6">
        <r>  0.1789  0.1202  0.0891  0.0932  0.2048  0.0315  0.0874  0.0140  0.1370 </r>
       </set>
      </set>
      <set comment="kpoint 92">
       <set comment="band 1">
        <r>  0.1562  0.0427  0.1282  0.0855  0.0834  0.1251  0.0313  0.2503  0.0104 </r>
       </set>
       <set comment="band 2">
        <r>  0.0000  0.0000  0.0000  0.0000  0.4387  0.0731  0.1645  0.1462  0.0548 </r>
       </set>
       <set comment="band 3">
        <r>  0.0000  0.0146  0.0437  0.1165  0.0216  0.1295  0.2914  0.0648  0.2698 </r>
       </set>
       <set comment="band 4">
        <r>  0.0000  0.1310  0.0437  0.0000  0.1943  0.1295  0.2914  0.0648  0.0971 </r>
       </set>
       <set comment="band 5">
        <r>  0.0000  0.0000  0.0000  0.0000  0.0525  0.3150  0.0000  0.1575  0.4200 </r>
       </set>
       <set comment="band 6">
        <r>  0.3681  0.0287  0.0862  0.0575  0.0664  0.0996  0.0249  0.1992  0.0083 </r>
       </set>
      </set>
      <set comment="kpoint 93">
       <set comment="band 1">
        <r>  0.0410  0.0150  0.0643  0.0300  0.5215  0.0225  0.1016  0.0450  0.0652 </r>
       </set>
       <set comment="band 2">
        <r>  0.0195  0.0222  0.0131  0.0443  0.1006  0.2188  0.0309  0.4375  0.0126 </r>
       </set>
       <set comment="band 3">
        <r>  0.0000  0.1123  0.0000  0.0562  0.0089  0.4656  0.0000  0.2328  0.0711 </r>
       </set>
       <set comment="band 4">
        <r>  0.0675  0.0127  0.1348  0.0255  0.0553  0.0037  0.6220  0.0074  0.0069 </r>
       </set>
       <set comment="band 5">
        <r>  0.0000  0.0147  0.0000  0.0073  0.0872  0.0939  0.0000  0.0469  0.6977 </r>
       </set>
       <set comment="band 6">
        <r>  0.3071  0.0999  0.0549  0.1998  0.0811  0.0539  0.0167  0.1078  0.0101 </r>
       </set>
      </set>
      <set comment="kpoint 94">
       <set comment="band 1">
        <r>  0.0124  0.0004  0.0391  0.0007  0.6621  0.0001  0.1097  0.0002  0.0828 </r>
       </set>
       <set comment="band 2">
        <r>  0.0046  0.0338  0.0047  0.0675  0.0000  0.2650  0.0003  0.5300  0.0000 </r>
       </set>
       <set comment="band 3">
        <r>  0.0000  0.1025  0.0000  0.0513  0.0007  0.5243  0.0000  0.2621  0.0054 </r>
       </set>
       <set comment="band 4">
        <r>  0.1464  0.0011  0.1651  0.0022  0.0273  0.0009  0.5767  0.0018  0.0034 </r>
       </set>
       <set comment="band 5">
        <r>  0.0000  0.0068  0.0000  0.0034  0.1046  0.0116  0.0000  0.0058  0.8367 </r>
       </set>
       <set comment="band 6">
        <r>  0.1106  0.2020  0.0250  0.4039  0.0372  0.0378  0.0368  0.0757  0.0046 </r>
       </set>
      </set>
      <set comment="kpoint 95">
       <set comment="band 1">
        <r>  0.0000  0.0015  0.0044  0.0117  0.4578  0.0910  0.1304  0.1310  0.0777 </r>
       </set>
       <set comment="band 2">
        <r>  0.0150  0.0349  0.0369  0.0337  0.1561  0.2132  0.0342  0.3779  0.0098 </r>
       </set>
       <set comment="band 3">
        <r>  0.0787  0.0628  0.0940  0.0098  0.0499  0.2207  0.2200  0.1994  0.0000 </r>
       </set>
       <set comment="band 4">
        <r>  0.0000  0.0181  0.0543  0.1448  0.0031  0.0953  0.3202  0.0847  0.2166 </r>
       </set>
       <set comment="band 5">
        <r>  0.0837  0.0473  0.0557  0.0490  0.0443  0.2169  0.0342  0.0126  0.3960 </r>
       </set>
       <set comment="band 6">
        <r>  0.1425  0.2105  0.0657  0.1019  0.1726  0.0041  0.0384  0.0522  0.1510 </r>
       </set>
      </set>
      <set comment="kpoint 96">
       <set comment="band 1">
        <r>  0.0023  0.0072  0.0236  0.0036  0.6398  0.0003  0.1536  0.0001  0.0800 </r>
       </set>
       <set comment="band 2">
        <r>  0.0000  0.0217  0.0000  0.0434  0.0002  0.2811  0.0000  0.5623  0.0019 </r>
       </set>
       <set comment="band 3">
        <r>  0.0933  0.0437  0.1019  0.0219  0.0333  0.2807  0.2144  0.1403  0.0042 </r>
       </set>
       <set comment="band 4">
        <r>  0.0214  0.0758  0.0981  0.0379  0.0249  0.2166  0.3486  0.1083  0.0031 </r>
       </set>
       <set comment="band 5">
        <r>  0.0000  0.0574  0.0000  0.1148  0.0841  0.0078  0.0000  0.0156  0.6728 </r>
       </set>
       <set comment="band 6">
        <r>  0.0000  0.2207  0.0000  0.4415  0.0248  0.0194  0.0000  0.0387  0.1983 </r>
       </set>
      </set>
      <set comment="kpoint 97">
       <set comment="band 1">
        <r>  0.0000  0.0000  0.0000  0.0000  0.4525  0.0754  0.1697  0.1508  0.0566 </r>
       </set>
       <set comment="band 2">
        <r>  0.0168  0.0168  0.0503  0.0335  0.1328  0.1991  0.0498  0.3983  0.0166 </r>
       </set>
       <set comment="band 3">
        <r>  0.0000  0.0185  0.0556  0.1484  0.0198  0.1189  0.2675  0.0594  0.2477 </r>
       </set>
       <set comment="band 4">
        <r>  0.0000  0.1669  0.0556  0.0000  0.1783  0.1189  0.2675  0.0594  0.0892 </r>
       </set>
       <set comment="band 5">
        <r>  0.0000  0.0000  0.0000  0.0000  0.0527  0.3164  0.0000  0.1582  0.4218 </r>
       </set>
       <set comment="band 6">
        <r>  0.3252  0.0783  0.2349  0.1566  0.0182  0.0274  0.0068  0.0547  0.0023 </r>
       </set>
      </set>
      <set comment="kpoint 98">
       <set comment="band 1">
        <r>  0.0006  0.0001  0.0081  0.0003  0.5794  0.0251  0.1782  0.0502  0.0724 </r>
       </set>
       <set comment="band 2">
        <r>  0.0020  0.0125  0.0090  0.0249  0.0489  0.2665  0.0143  0.5330  0.0061 </r>
       </set>
       <set comment="band 3">
        <r>  0.0603  0.0033  0.2262  0.0065  0.0897  0.0002  0.5294  0.0004  0.0112 </r>
       </set>
       <set comment="band 4">
        <r>  0.0000  0.1307  0.0000  0.0653  0.0031  0.4740  0.0000  0.2370  0.0248 </r>
       </set>
       <set comment="band 5">
        <r>  0.0000  0.0055  0.0000  0.0028  0.1002  0.0376  0.0000  0.0188  0.8013 </r>
       </set>
       <set comment="band 6">
        <r>  0.1255  0.1919  0.0933  0.3837  0.0308  0.0137  0.0281  0.0274  0.0039 </r>
       </set>
      </set>
      <set comment="kpoint 99">
       <set comment="band 1">
        <r>  0.0000  0.0054  0.0000  0.0108  0.0001  0.3008  0.0000  0.6015  0.0004 </r>
       </set>
       <set comment="band 2">
        <r>  0.0000  0.0072  0.0054  0.0036  0.6149  0.0001  0.2109  0.0001  0.0769 </r>
       </set>
       <set comment="band 3">
        <r>  0.0431  0.0474  0.1421  0.0237  0.0498  0.2988  0.1681  0.1494  0.0062 </r>
       </set>
       <set comment="band 4">
        <r>  0.0000  0.0747  0.0560  0.0373  0.0781  0.1720  0.4332  0.0860  0.0097 </r>
       </set>
       <set comment="band 5">
        <r>  0.0000  0.0559  0.0000  0.1118  0.0860  0.0017  0.0000  0.0035  0.6881 </r>
       </set>
       <set comment="band 6">
        <r>  0.0000  0.2314  0.0000  0.4624  0.0229  0.0047  0.0000  0.0095  0.1831 </r>
       </set>
      </set>
      <set comment="kpoint 100">
       <set comment="band 1">
        <r>  0.0000  0.0000  0.0000  0.0000  0.4604  0.0767  0.1726  0.1535  0.0575 </r>
       </set>
       <set comment="band 2">
        <r>  0.0002  0.0018  0.0054  0.0036  0.1519  0.2279  0.0570  0.4557  0.0190 </r>
       </set>
       <set comment="band 3">
        <r>  0.0000  0.0140  0.0419  0.1117  0.0216  0.1296  0.2917  0.0648  0.2701 </r>
       </set>
       <set comment="band 4">
        <r>  0.0000  0.1256  0.0419  0.0000  0.1944  0.1296  0.2917  0.0648  0.0972 </r>
       </set>
       <set comment="band 5">
        <r>  0.0000  0.0000  0.0000  0.0000  0.0537  0.3225  0.0000  0.1612  0.4300 </r>
       </set>
       <set comment="band 6">
        <r>  0.0728  0.1316  0.3948  0.2632  0.0019  0.0029  0.0007  0.0058  0.0002 </r>
       </set>
      </set>
     </set>
    </set>
   </array>
  </projected>
 </calculation>
 <structure name="finalpos" >
  <crystal>
   <varray name="basis" >
    <v>       2.86654409       0.00000000       0.00000000 </v>
    <v>      -0.95551470       2.70260368       0.00000000 </v>
    <v>      -0.95551470      -1.35130184       2.34052345 </v>
   </varray>
   <i name="volume">     18.13234550 </i>
   <varray name="rec_basis" >
    <v>       0.34885213       0.12333785       0.21362743 </v>
    <v>       0.00000000       0.37001356       0.21362743 </v>
    <v>       0.00000000       0.00000000       0.42725485 </v>
   </varray>
  </crystal>
  <varray name="positions" >
   <v>       0.00000000       0.00000000       0.00000000 </v>
  </varray>
 </structure>
</modeling>
