<?xml version="1.0" encoding="ISO-8859-1"?>
<modeling>
 <generator>
  <i name="program" type="string">vasp </i>
  <i name="version" type="string">5.2.12  </i>
  <i name="subversion" type="string">11Nov11 complex                                                      parallel </i>
  <i name="platform" type="string">LinuxIFC </i>
  <i name="date" type="string">2012 10 14 </i>
  <i name="time" type="string">15:40:41 </i>
 </generator>
 <incar>
  <i type="string" name="PREC">accurate</i>
  <i name="ENCUT">    350.00000000</i>
  <i type="logical" name="LREAL"> F  </i>
  <i type="int" name="ISMEAR">     1</i>
  <i name="SIGMA">      0.05000000</i>
 </incar>
 <kpoints>
  <generation param="Monkhorst-Pack">
   <v type="int" name="divisions">      14       14       14 </v>
   <v name="usershift">      0.00000000       0.00000000       0.00000000 </v>
   <v name="genvec1">      0.07142857       0.00000000       0.00000000 </v>
   <v name="genvec2">      0.00000000       0.07142857       0.00000000 </v>
   <v name="genvec3">      0.00000000       0.00000000       0.07142857 </v>
   <v name="shift">      0.50000000       0.50000000       0.50000000 </v>
  </generation>
  <varray name="kpointlist" >
   <v>       0.03571429       0.03571429       0.03571429 </v>
   <v>       0.10714286       0.03571429       0.03571429 </v>
   <v>       0.17857143       0.03571429       0.03571429 </v>
   <v>       0.25000000       0.03571429       0.03571429 </v>
   <v>       0.32142857       0.03571429       0.03571429 </v>
   <v>       0.39285714       0.03571429       0.03571429 </v>
   <v>       0.46428571       0.03571429       0.03571429 </v>
   <v>      -0.03571429       0.03571429       0.03571429 </v>
   <v>       0.10714286       0.10714286       0.03571429 </v>
   <v>       0.17857143       0.10714286       0.03571429 </v>
   <v>       0.25000000       0.10714286       0.03571429 </v>
   <v>       0.32142857       0.10714286       0.03571429 </v>
   <v>       0.39285714       0.10714286       0.03571429 </v>
   <v>      -0.10714286       0.10714286       0.03571429 </v>
   <v>       0.17857143       0.17857143       0.03571429 </v>
   <v>       0.25000000       0.17857143       0.03571429 </v>
   <v>       0.32142857       0.17857143       0.03571429 </v>
   <v>       0.39285714       0.17857143       0.03571429 </v>
   <v>      -0.17857143       0.17857143       0.03571429 </v>
   <v>      -0.10714286       0.17857143       0.03571429 </v>
   <v>       0.25000000       0.25000000       0.03571429 </v>
   <v>       0.32142857       0.25000000       0.03571429 </v>
   <v>      -0.25000000       0.25000000       0.03571429 </v>
   <v>      -0.17857143       0.25000000       0.03571429 </v>
   <v>       0.32142857       0.32142857       0.03571429 </v>
   <v>      -0.32142857       0.32142857       0.03571429 </v>
   <v>      -0.25000000       0.32142857       0.03571429 </v>
   <v>      -0.17857143       0.32142857       0.03571429 </v>
   <v>      -0.39285714       0.39285714       0.03571429 </v>
   <v>      -0.32142857       0.39285714       0.03571429 </v>
   <v>      -0.25000000       0.39285714       0.03571429 </v>
   <v>      -0.46428571       0.46428571       0.03571429 </v>
   <v>      -0.39285714       0.46428571       0.03571429 </v>
   <v>      -0.32142857       0.46428571       0.03571429 </v>
   <v>      -0.25000000       0.46428571       0.03571429 </v>
   <v>      -0.46428571      -0.46428571       0.03571429 </v>
   <v>      -0.39285714      -0.46428571       0.03571429 </v>
   <v>      -0.32142857      -0.46428571       0.03571429 </v>
   <v>      -0.39285714      -0.39285714       0.03571429 </v>
   <v>      -0.32142857      -0.39285714       0.03571429 </v>
   <v>       0.10714286       0.10714286       0.10714286 </v>
   <v>       0.17857143       0.10714286       0.10714286 </v>
   <v>       0.25000000       0.10714286       0.10714286 </v>
   <v>       0.32142857       0.10714286       0.10714286 </v>
   <v>       0.39285714       0.10714286       0.10714286 </v>
   <v>      -0.10714286       0.10714286       0.10714286 </v>
   <v>       0.17857143       0.17857143       0.10714286 </v>
   <v>       0.25000000       0.17857143       0.10714286 </v>
   <v>       0.32142857       0.17857143       0.10714286 </v>
   <v>      -0.17857143       0.17857143       0.10714286 </v>
   <v>       0.25000000       0.25000000       0.10714286 </v>
   <v>       0.32142857       0.25000000       0.10714286 </v>
   <v>      -0.25000000       0.25000000       0.10714286 </v>
   <v>      -0.17857143       0.25000000       0.10714286 </v>
   <v>      -0.32142857       0.32142857       0.10714286 </v>
   <v>      -0.25000000       0.32142857       0.10714286 </v>
   <v>      -0.39285714       0.39285714       0.10714286 </v>
   <v>      -0.32142857       0.39285714       0.10714286 </v>
   <v>      -0.25000000       0.39285714       0.10714286 </v>
   <v>      -0.46428571       0.46428571       0.10714286 </v>
   <v>      -0.39285714       0.46428571       0.10714286 </v>
   <v>      -0.32142857       0.46428571       0.10714286 </v>
   <v>      -0.46428571      -0.46428571       0.10714286 </v>
   <v>      -0.39285714      -0.46428571       0.10714286 </v>
   <v>      -0.32142857      -0.46428571       0.10714286 </v>
   <v>      -0.39285714      -0.39285714       0.10714286 </v>
   <v>       0.17857143       0.17857143       0.17857143 </v>
   <v>       0.25000000       0.17857143       0.17857143 </v>
   <v>       0.32142857       0.17857143       0.17857143 </v>
   <v>      -0.17857143       0.17857143       0.17857143 </v>
   <v>       0.25000000       0.25000000       0.17857143 </v>
   <v>      -0.25000000       0.25000000       0.17857143 </v>
   <v>      -0.32142857       0.32142857       0.17857143 </v>
   <v>      -0.25000000       0.32142857       0.17857143 </v>
   <v>      -0.39285714       0.39285714       0.17857143 </v>
   <v>      -0.32142857       0.39285714       0.17857143 </v>
   <v>      -0.46428571       0.46428571       0.17857143 </v>
   <v>      -0.39285714       0.46428571       0.17857143 </v>
   <v>      -0.32142857       0.46428571       0.17857143 </v>
   <v>      -0.46428571      -0.46428571       0.17857143 </v>
   <v>      -0.39285714      -0.46428571       0.17857143 </v>
   <v>      -0.39285714      -0.39285714       0.17857143 </v>
   <v>       0.25000000       0.25000000       0.25000000 </v>
   <v>      -0.25000000       0.25000000       0.25000000 </v>
   <v>      -0.32142857       0.32142857       0.25000000 </v>
   <v>      -0.39285714       0.39285714       0.25000000 </v>
   <v>      -0.32142857       0.39285714       0.25000000 </v>
   <v>      -0.46428571       0.46428571       0.25000000 </v>
   <v>      -0.39285714       0.46428571       0.25000000 </v>
   <v>      -0.46428571      -0.46428571       0.25000000 </v>
   <v>      -0.39285714      -0.46428571       0.25000000 </v>
   <v>      -0.32142857       0.32142857       0.32142857 </v>
   <v>      -0.39285714       0.39285714       0.32142857 </v>
   <v>      -0.46428571       0.46428571       0.32142857 </v>
   <v>      -0.39285714       0.46428571       0.32142857 </v>
   <v>      -0.46428571      -0.46428571       0.32142857 </v>
   <v>      -0.39285714       0.39285714       0.39285714 </v>
   <v>      -0.46428571       0.46428571       0.39285714 </v>
   <v>      -0.46428571      -0.46428571       0.39285714 </v>
   <v>      -0.46428571       0.46428571       0.46428571 </v>
  </varray>
  <varray name="weights" >
   <v>       0.00291545 </v>
   <v>       0.00874636 </v>
   <v>       0.00874636 </v>
   <v>       0.00874636 </v>
   <v>       0.00874636 </v>
   <v>       0.00874636 </v>
   <v>       0.00437318 </v>
   <v>       0.00218659 </v>
   <v>       0.00874636 </v>
   <v>       0.01749271 </v>
   <v>       0.01749271 </v>
   <v>       0.01749271 </v>
   <v>       0.01749271 </v>
   <v>       0.00874636 </v>
   <v>       0.00874636 </v>
   <v>       0.01749271 </v>
   <v>       0.01749271 </v>
   <v>       0.00874636 </v>
   <v>       0.00874636 </v>
   <v>       0.00874636 </v>
   <v>       0.00874636 </v>
   <v>       0.01749271 </v>
   <v>       0.00874636 </v>
   <v>       0.01749271 </v>
   <v>       0.00291545 </v>
   <v>       0.00874636 </v>
   <v>       0.01749271 </v>
   <v>       0.00874636 </v>
   <v>       0.00874636 </v>
   <v>       0.01749271 </v>
   <v>       0.01749271 </v>
   <v>       0.00874636 </v>
   <v>       0.01749271 </v>
   <v>       0.01749271 </v>
   <v>       0.00874636 </v>
   <v>       0.00874636 </v>
   <v>       0.01749271 </v>
   <v>       0.01749271 </v>
   <v>       0.00874636 </v>
   <v>       0.00874636 </v>
   <v>       0.00291545 </v>
   <v>       0.00874636 </v>
   <v>       0.00874636 </v>
   <v>       0.00874636 </v>
   <v>       0.00437318 </v>
   <v>       0.00218659 </v>
   <v>       0.00874636 </v>
   <v>       0.01749271 </v>
   <v>       0.01749271 </v>
   <v>       0.00874636 </v>
   <v>       0.00874636 </v>
   <v>       0.00874636 </v>
   <v>       0.00874636 </v>
   <v>       0.00874636 </v>
   <v>       0.00874636 </v>
   <v>       0.01749271 </v>
   <v>       0.00874636 </v>
   <v>       0.01749271 </v>
   <v>       0.00874636 </v>
   <v>       0.00874636 </v>
   <v>       0.01749271 </v>
   <v>       0.01749271 </v>
   <v>       0.00874636 </v>
   <v>       0.01749271 </v>
   <v>       0.00874636 </v>
   <v>       0.00874636 </v>
   <v>       0.00291545 </v>
   <v>       0.00874636 </v>
   <v>       0.00437318 </v>
   <v>       0.00218659 </v>
   <v>       0.00874636 </v>
   <v>       0.00874636 </v>
   <v>       0.00874636 </v>
   <v>       0.00874636 </v>
   <v>       0.00874636 </v>
   <v>       0.01749271 </v>
   <v>       0.00874636 </v>
   <v>       0.01749271 </v>
   <v>       0.00874636 </v>
   <v>       0.00874636 </v>
   <v>       0.01749271 </v>
   <v>       0.00291545 </v>
   <v>       0.00072886 </v>
   <v>       0.00218659 </v>
   <v>       0.00874636 </v>
   <v>       0.00874636 </v>
   <v>       0.00874636 </v>
   <v>       0.00874636 </v>
   <v>       0.01749271 </v>
   <v>       0.00874636 </v>
   <v>       0.00874636 </v>
   <v>       0.00218659 </v>
   <v>       0.00874636 </v>
   <v>       0.00874636 </v>
   <v>       0.00874636 </v>
   <v>       0.00874636 </v>
   <v>       0.00218659 </v>
   <v>       0.00874636 </v>
   <v>       0.00291545 </v>
   <v>       0.00218659 </v>
  </varray>
 </kpoints>
 <parameters>
  <separator name="general" >
   <i type="string" name="SYSTEM">unknown system</i>
   <i type="logical" name="LCOMPAT"> F  </i>
  </separator>
  <separator name="electronic" >
   <i type="string" name="PREC">accura</i>
   <i name="ENMAX">    350.00000000</i>
   <i name="ENAUG">    332.07500000</i>
   <i name="EDIFF">      0.00010000</i>
   <i type="int" name="IALGO">    38</i>
   <i type="int" name="IWAVPR">    10</i>
   <i type="int" name="NBANDS">     6</i>
   <i name="NELECT">      5.00000000</i>
   <i type="int" name="TURBO">     0</i>
   <i type="int" name="IRESTART">     0</i>
   <i type="int" name="NREBOOT">     0</i>
   <i type="int" name="NMIN">     0</i>
   <i name="EREF">      0.00000000</i>
   <separator name="electronic smearing" >
    <i type="int" name="ISMEAR">     1</i>
    <i name="SIGMA">      0.05000000</i>
    <i name="KSPACING">      0.50000000</i>
    <i type="logical" name="KGAMMA"> T  </i>
   </separator>
   <separator name="electronic projectors" >
    <i type="logical" name="LREAL"> F  </i>
    <v name="ROPT">      0.00000000</v>
    <i type="int" name="LMAXPAW">  -100</i>
    <i type="int" name="LMAXMIX">     2</i>
    <i type="logical" name="NLSPLINE"> F  </i>
   </separator>
   <separator name="electronic startup" >
    <i type="int" name="ISTART">     0</i>
    <i type="int" name="ICHARG">     2</i>
    <i type="int" name="INIWAV">     1</i>
   </separator>
   <separator name="electronic spin" >
    <i type="int" name="ISPIN">     1</i>
    <i type="logical" name="LNONCOLLINEAR"> F  </i>
    <v name="MAGMOM">      1.00000000</v>
    <i name="NUPDOWN">     -1.00000000</i>
    <i type="logical" name="LSORBIT"> F  </i>
    <v name="SAXIS">      0.00000000      0.00000000      1.00000000</v>
    <i type="logical" name="LSPIRAL"> F  </i>
    <v name="QSPIRAL">      0.00000000      0.00000000      0.00000000</v>
    <i type="logical" name="LZEROZ"> F  </i>
   </separator>
   <separator name="electronic exchange-correlation" >
    <i type="logical" name="LASPH"> F  </i>
    <i type="logical" name="LMETAGGA"> F  </i>
   </separator>
   <separator name="electronic convergence" >
    <i type="int" name="NELM">    60</i>
    <i type="int" name="NELMDL">    -5</i>
    <i type="int" name="NELMIN">     2</i>
    <i name="ENINI">    350.00000000</i>
    <separator name="electronic convergence detail" >
     <i type="logical" name="LDIAG"> T  </i>
     <i type="logical" name="LSUBROT"> T  </i>
     <i name="WEIMIN">      0.00000000</i>
     <i name="EBREAK">      0.00000417</i>
     <i name="DEPER">      0.30000000</i>
     <i type="int" name="NRMM">     4</i>
     <i name="TIME">      0.40000000</i>
    </separator>
   </separator>
   <separator name="electronic mixer" >
    <i name="AMIX">      0.40000000</i>
    <i name="BMIX">      1.00000000</i>
    <i name="AMIN">      0.10000000</i>
    <i name="AMIX_MAG">      1.60000000</i>
    <i name="BMIX_MAG">      1.00000000</i>
    <separator name="electronic mixer details" >
     <i type="int" name="IMIX">     4</i>
     <i type="int" name="MAXMIX">   -45</i>
     <i name="WC">    100.00000000</i>
     <i type="int" name="INIMIX">     1</i>
     <i type="int" name="MIXPRE">     1</i>
     <i type="int" name="MREMOVE">     5</i>
    </separator>
   </separator>
   <separator name="electronic dipolcorrection" >
    <i type="logical" name="LDIPOL"> F  </i>
    <i type="logical" name="LMONO"> F  </i>
    <i type="int" name="IDIPOL">     0</i>
    <i name="EPSILON">      1.00000000</i>
    <v name="DIPOL">   -100.00000000   -100.00000000   -100.00000000</v>
    <i name="EFIELD">      0.00000000</i>
   </separator>
  </separator>
  <separator name="grids" >
   <i type="int" name="NGX">    18</i>
   <i type="int" name="NGY">    18</i>
   <i type="int" name="NGZ">    18</i>
   <i type="int" name="NGXF">    36</i>
   <i type="int" name="NGYF">    36</i>
   <i type="int" name="NGZF">    36</i>
   <i type="logical" name="ADDGRID"> F  </i>
  </separator>
  <separator name="ionic" >
   <i type="int" name="NSW">     0</i>
   <i type="int" name="IBRION">    -1</i>
   <i type="int" name="ISIF">     2</i>
   <i name="PSTRESS">      0.00000000</i>
   <i name="EDIFFG">      0.00100000</i>
   <i type="int" name="NFREE">     0</i>
   <i name="POTIM">      0.50000000</i>
   <i name="SMASS">     -3.00000000</i>
   <i name="SCALEE">      1.00000000</i>
  </separator>
  <separator name="ionic md" >
   <i name="TEBEG">      0.00010000</i>
   <i name="TEEND">      0.00010000</i>
   <i type="int" name="NBLOCK">     1</i>
   <i type="int" name="KBLOCK">     1</i>
   <i type="int" name="NPACO">   256</i>
   <i name="APACO">     16.00000000</i>
  </separator>
  <separator name="symmetry" >
   <i type="int" name="ISYM">     2</i>
   <i name="SYMPREC">      0.00001000</i>
  </separator>
  <separator name="dos" >
   <i type="logical" name="LORBIT"> F  </i>
   <v name="RWIGS">     -1.00000000</v>
   <i type="int" name="NEDOS">   301</i>
   <i name="EMIN">     10.00000000</i>
   <i name="EMAX">    -10.00000000</i>
   <i name="EFERMI">      0.00000000</i>
  </separator>
  <separator name="writing" >
   <i type="int" name="NWRITE">     2</i>
   <i type="logical" name="LWAVE"> T  </i>
   <i type="logical" name="LCHARG"> T  </i>
   <i type="logical" name="LPARD"> F  </i>
   <i type="logical" name="LVTOT"> F  </i>
   <i type="logical" name="LVHAR"> F  </i>
   <i type="logical" name="LELF"> F  </i>
   <i type="logical" name="LOPTICS"> F  </i>
   <v name="STM">      0.00000000      0.00000000      0.00000000      0.00000000      0.00000000      0.00000000      0.00000000</v>
  </separator>
  <separator name="performance" >
   <i type="int" name="NPAR">     1</i>
   <i type="int" name="NSIM">     4</i>
   <i type="int" name="NBLK">    -1</i>
   <i type="logical" name="LPLANE"> T  </i>
   <i type="logical" name="LSCALAPACK"> F  </i>
   <i type="logical" name="LSCAAWARE"> F  </i>
   <i type="logical" name="LSCALU"> F  </i>
   <i type="logical" name="LASYNC"> F  </i>
   <i type="logical" name="LORBITALREAL"> F  </i>
  </separator>
  <separator name="miscellaneous" >
   <i type="int" name="IDIOT">     3</i>
   <i type="logical" name="LMUSIC"> F  </i>
   <v name="POMASS">    180.94800000</v>
   <v name="DARWINR">      0.00000000</v>
   <v name="DARWINV">      1.00000000</v>
   <i type="logical" name="LCORR"> T  </i>
  </separator>
  <i type="logical" name="GGA_COMPAT"> T  </i>
  <i type="logical" name="LBERRY"> F  </i>
  <i type="int" name="ICORELEVEL">     0</i>
  <i type="logical" name="LDAU"> F  </i>
  <i type="int" name="I_CONSTRAINED_M">     0</i>
  <separator name="electronic exchange-correlation" >
   <i type="string" name="GGA">--</i>
   <i type="int" name="VOSKOWN">     0</i>
   <i type="logical" name="LHFCALC"> F  </i>
   <i type="string" name="PRECFOCK"></i>
   <i type="logical" name="LHFONE"> F  </i>
   <i type="logical" name="LRHFCALC"> F  </i>
   <i type="logical" name="LTHOMAS"> F  </i>
   <i type="logical" name="LMODELHF"> F  </i>
   <i name="ENCUT4O">     -1.00000000</i>
   <i type="int" name="EXXOEP">     0</i>
   <i type="int" name="FOURORBIT">     0</i>
   <i name="AEXX">      0.00000000</i>
   <i name="HFALPHA">      0.00000000</i>
   <i name="ALDAX">      1.00000000</i>
   <i name="AGGAX">      1.00000000</i>
   <i name="ALDAC">      1.00000000</i>
   <i name="AGGAC">      1.00000000</i>
   <i type="int" name="NKREDX">     1</i>
   <i type="int" name="NKREDY">     1</i>
   <i type="int" name="NKREDZ">     1</i>
   <i type="logical" name="SHIFTRED"> F  </i>
   <i type="logical" name="ODDONLY"> F  </i>
   <i type="logical" name="EVENONLY"> F  </i>
   <i type="int" name="LMAXFOCK">     0</i>
   <i type="int" name="NMAXFOCKAE">     0</i>
   <i type="logical" name="LFOCKAEDFT"> F  </i>
   <i name="HFSCREEN">      0.00000000</i>
   <i name="HFSCREENC">      0.00000000</i>
  </separator>
  <separator name="vdW DFT" >
   <i type="logical" name="LUSE_VDW"> F  </i>
   <i name="Zab_VDW">     -0.84910000</i>
   <i name="PARAM1">      0.12340000</i>
   <i name="PARAM2">      1.00000000</i>
   <i name="PARAM3">      0.00000000</i>
  </separator>
  <separator name="model GW" >
   <i type="int" name="MODEL_GW">     0</i>
   <i name="MODEL_EPS0">     10.87940730</i>
   <i name="MODEL_ALPHA">      1.00000000</i>
  </separator>
  <separator name="linear response parameters" >
   <i type="logical" name="LEPSILON"> F  </i>
   <i type="logical" name="LRPA"> F  </i>
   <i type="logical" name="LNABLA"> F  </i>
   <i type="logical" name="LVEL"> F  </i>
   <i type="int" name="KINTER">     0</i>
   <i name="CSHIFT">      0.10000000</i>
   <i name="OMEGAMAX">     -1.00000000</i>
  </separator>
  <separator name="orbital magnetization" >
   <i type="logical" name="NUCIND"> F  </i>
   <v name="MAGPOS">      0.00000000      0.00000000      0.00000000</v>
   <i type="logical" name="LNICSALL"> T  </i>
   <i type="logical" name="ORBITALMAG"> F  </i>
   <i type="logical" name="LMAGBLOCH"> F  </i>
   <i type="logical" name="LCHIMAG"> F  </i>
   <i type="logical" name="LGAUGE"> T  </i>
   <i type="int" name="MAGATOM">     0</i>
   <v name="MAGDIPOL">      0.00000000      0.00000000      0.00000000</v>
   <v name="AVECCONST">      0.00000000      0.00000000      0.00000000</v>
  </separator>
  <separator name="response functions" >
   <i type="logical" name="LADDER"> F  </i>
   <i type="logical" name="LHARTREE"> T  </i>
   <i type="int" name="IBSE">     0</i>
   <i type="logical" name="LTCTE"> F  </i>
   <i type="logical" name="LTETE"> F  </i>
   <i type="logical" name="LFXCEPS"> F  </i>
   <i type="logical" name="L2ORDER"> F  </i>
   <i type="logical" name="LUSEW"> F  </i>
   <i name="ENCUTGW">     -2.00000000</i>
   <i name="ENCUTGWSOFT">     -2.00000000</i>
   <i name="ENCUTLF">     -1.00000000</i>
   <i type="int" name="LMAXMP2">    -1</i>
   <i name="SCISSOR">      0.00000000</i>
   <i type="int" name="NOMEGA">     0</i>
   <i type="int" name="NOMEGAR">     0</i>
   <i type="int" name="NBANDSGW">    -1</i>
   <i type="int" name="NBANDSO">    -1</i>
   <i type="int" name="NBANDSV">    -1</i>
   <i name="OPTEMAX">      0.00000000</i>
   <i type="int" name="NELM">     1</i>
   <i type="int" name="DIM">     3</i>
   <i type="int" name="ANTIRES">     0</i>
   <i name="OMEGAMAX">    -30.00000000</i>
   <i name="OMEGATL">   -200.00000000</i>
   <i type="int" name="OMEGAGRID">     0</i>
   <i name="CSHIFT">     -0.10000000</i>
   <i type="logical" name="SELFENERGY"> F  </i>
   <i type="logical" name="LSPECTRAL"> F  </i>
   <i type="logical" name="ODDONLYGW"> F  </i>
   <i type="logical" name="EVENONLYGW"> F  </i>
   <i type="int" name="NKREDLFX">     1</i>
   <i type="int" name="NKREDLFY">     1</i>
   <i type="int" name="NKREDLFZ">     1</i>
   <i type="int" name="MAXMEM">  1800</i>
   <i type="int" name="TELESCOPE">     0</i>
  </separator>
 </parameters>
 <atominfo>
  <atoms>       1 </atoms>
  <types>       1 </types>
  <array name="atoms" >
   <dimension dim="1">ion</dimension>
   <field type="string">element</field>
   <field type="int">atomtype</field>
   <set>
    <rc><c>Ta</c><c>   1</c></rc>
   </set>
  </array>
  <array name="atomtypes" >
   <dimension dim="1">type</dimension>
   <field type="int">atomspertype</field>
   <field type="string">element</field>
   <field>mass</field>
   <field>valence</field>
   <field type="string">pseudopotential</field>
   <set>
    <rc><c>   1</c><c>Ta</c><c>    180.94800000</c><c>      5.00000000</c><c>  PAW_PBE Ta 17Jan2003                  </c></rc>
   </set>
  </array>
 </atominfo>
 <structure name="initialpos" >
  <crystal>
   <varray name="basis" >
    <v>       2.86654409       0.00000000       0.00000000 </v>
    <v>      -0.95551470       2.70260368       0.00000000 </v>
    <v>      -0.95551470      -1.35130184       2.34052345 </v>
   </varray>
   <i name="volume">     18.13234550 </i>
   <varray name="rec_basis" >
    <v>       0.34885213       0.12333785       0.21362743 </v>
    <v>       0.00000000       0.37001356       0.21362743 </v>
    <v>       0.00000000       0.00000000       0.42725485 </v>
   </varray>
  </crystal>
  <varray name="positions" >
   <v>       0.00000000       0.00000000       0.00000000 </v>
  </varray>
 </structure>
 <calculation>
  <scstep>
   <time name="dav">    1.12    1.13</time>
   <time name="total">    1.20    1.24</time>
   <energy>
    <i name="alphaZ">     30.58334069 </i>
    <i name="ewald">   -197.90100875 </i>
    <i name="hartreedc">     -2.50452612 </i>
    <i name="XCdc">    -66.68582567 </i>
    <i name="pawpsdc">    148.27821850 </i>
    <i name="pawaedc">    -73.99089003 </i>
    <i name="eentropy">     -0.00012264 </i>
    <i name="bandstr">     28.69328624 </i>
    <i name="atom">    130.64621481 </i>
    <i name="e_fr_energy">     -2.88131297 </i>
    <i name="e_wo_entrp">     -2.88119033 </i>
    <i name="e_0_energy">     -2.88127209 </i>
   </energy>
  </scstep>
  <scstep>
   <time name="dav">    1.77    1.78</time>
   <time name="total">    1.78    1.81</time>
   <energy>
    <i name="e_fr_energy">    -12.31330982 </i>
    <i name="e_wo_entrp">    -12.31309309 </i>
    <i name="e_0_energy">    -12.31323758 </i>
   </energy>
  </scstep>
  <scstep>
   <time name="dav">    1.18    1.18</time>
   <time name="total">    1.19    1.21</time>
   <energy>
    <i name="e_fr_energy">    -12.35312289 </i>
    <i name="e_wo_entrp">    -12.35291483 </i>
    <i name="e_0_energy">    -12.35305354 </i>
   </energy>
  </scstep>
  <scstep>
   <time name="dav">    1.42    1.42</time>
   <time name="total">    1.42    1.60</time>
   <energy>
    <i name="e_fr_energy">    -12.35319324 </i>
    <i name="e_wo_entrp">    -12.35298524 </i>
    <i name="e_0_energy">    -12.35312390 </i>
   </energy>
  </scstep>
  <scstep>
   <time name="dav">    1.03    1.13</time>
   <time name="total">    1.18    1.33</time>
   <energy>
    <i name="e_fr_energy">    -12.35319335 </i>
    <i name="e_wo_entrp">    -12.35298536 </i>
    <i name="e_0_energy">    -12.35312402 </i>
   </energy>
  </scstep>
  <scstep>
   <time name="dav">    1.22    1.34</time>
   <time name="total">    1.41    2.91</time>
   <energy>
    <i name="e_fr_energy">    -12.01151097 </i>
    <i name="e_wo_entrp">    -12.01177525 </i>
    <i name="e_0_energy">    -12.01159906 </i>
   </energy>
  </scstep>
  <scstep>
   <time name="dav">    1.27    1.36</time>
   <time name="total">    1.45    1.60</time>
   <energy>
    <i name="e_fr_energy">    -11.85689282 </i>
    <i name="e_wo_entrp">    -11.85668128 </i>
    <i name="e_0_energy">    -11.85682231 </i>
   </energy>
  </scstep>
  <scstep>
   <time name="dav">    1.19    1.19</time>
   <time name="total">    1.41    2.65</time>
   <energy>
    <i name="e_fr_energy">    -11.85778976 </i>
    <i name="e_wo_entrp">    -11.85752031 </i>
    <i name="e_0_energy">    -11.85769995 </i>
   </energy>
  </scstep>
  <scstep>
   <time name="dav">    1.23    1.24</time>
   <time name="total">    1.52    1.54</time>
   <energy>
    <i name="e_fr_energy">    -11.85633766 </i>
    <i name="e_wo_entrp">    -11.85617549 </i>
    <i name="e_0_energy">    -11.85628360 </i>
   </energy>
  </scstep>
  <scstep>
   <time name="dav">    0.79    0.79</time>
   <time name="total">    0.87    0.92</time>
   <energy>
    <i name="alphaZ">     30.58334069 </i>
    <i name="ewald">   -197.90100875 </i>
    <i name="hartreedc">     -0.58736837 </i>
    <i name="XCdc">    -65.99989653 </i>
    <i name="pawpsdc">    193.50415065 </i>
    <i name="pawaedc">   -120.08487855 </i>
    <i name="eentropy">     -0.00016543 </i>
    <i name="bandstr">     17.98327662 </i>
    <i name="atom">    130.64621481 </i>
    <i name="e_fr_energy">    -11.85633485 </i>
    <i name="e_wo_entrp">    -11.85616942 </i>
    <i name="e_0_energy">    -11.85627971 </i>
   </energy>
  </scstep>
  <parameters_embedded>
   <separator name="dft+d2" >
    <i type="logical" name="LVDW"> F  </i>
   </separator>
  </parameters_embedded>
  <structure>
   <crystal>
    <varray name="basis" >
     <v>       2.86654409       0.00000000       0.00000000 </v>
     <v>      -0.95551470       2.70260368       0.00000000 </v>
     <v>      -0.95551470      -1.35130184       2.34052345 </v>
    </varray>
    <i name="volume">     18.13234550 </i>
    <varray name="rec_basis" >
     <v>       0.34885213       0.12333785       0.21362743 </v>
     <v>       0.00000000       0.37001356       0.21362743 </v>
     <v>       0.00000000       0.00000000       0.42725485 </v>
    </varray>
   </crystal>
   <varray name="positions" >
    <v>       0.00000000       0.00000000       0.00000000 </v>
   </varray>
  </structure>
  <varray name="forces" >
   <v>       0.00000000       0.00000000       0.00000000 </v>
  </varray>
  <varray name="stress" >
   <v>      -7.81308348       0.00000000       0.00000000 </v>
   <v>       0.00000000      -7.81308348       0.00000000 </v>
   <v>       0.00000000       0.00000000      -7.81308348 </v>
  </varray>
  <energy>
   <i name="e_fr_energy">    -11.85633485 </i>
   <i name="e_wo_entrp">    -11.85627971 </i>
   <i name="e_0_energy">     -0.00016543 </i>
  </energy>
  <time name="totalsc">   14.38   19.00</time>
  <eigenvalues>
   <array>
    <dimension dim="1">band</dimension>
    <dimension dim="2">kpoint</dimension>
    <dimension dim="3">spin</dimension>
    <field>eigene</field>
    <field>occ</field>
    <set>
     <set comment="spin 1">
      <set comment="kpoint 1">
       <r>   -1.8503    1.0000 </r>
       <r>    6.2621    0.0000 </r>
       <r>    6.2621    0.0000 </r>
       <r>    6.8281    0.0000 </r>
       <r>    9.5242    0.0000 </r>
       <r>    9.5242    0.0000 </r>
      </set>
      <set comment="kpoint 2">
       <r>   -1.2298    1.0000 </r>
       <r>    5.8611    0.0000 </r>
       <r>    6.0196    0.0000 </r>
       <r>    7.5311    0.0000 </r>
       <r>    9.1589    0.0000 </r>
       <r>    9.6240    0.0000 </r>
      </set>
      <set comment="kpoint 3">
       <r>   -0.3187    1.0000 </r>
       <r>    5.3617    1.0000 </r>
       <r>    5.6399    1.0307 </r>
       <r>    8.5913    0.0000 </r>
       <r>    9.0750    0.0000 </r>
       <r>    9.7703    0.0000 </r>
      </set>
      <set comment="kpoint 4">
       <r>    0.6382    1.0000 </r>
       <r>    4.8819    1.0000 </r>
       <r>    5.4043    1.0000 </r>
       <r>    9.2542    0.0000 </r>
       <r>    9.9761    0.0000 </r>
       <r>   10.0001    0.0000 </r>
      </set>
      <set comment="kpoint 5">
       <r>    1.2667    1.0000 </r>
       <r>    4.4964    1.0000 </r>
       <r>    5.7436   -0.0259 </r>
       <r>    9.5426    0.0000 </r>
       <r>   10.2336    0.0000 </r>
       <r>   11.5502    0.0000 </r>
      </set>
      <set comment="kpoint 6">
       <r>    1.4594    1.0000 </r>
       <r>    4.2500    1.0000 </r>
       <r>    6.5950    0.0000 </r>
       <r>    9.6564    0.0000 </r>
       <r>   10.4750    0.0000 </r>
       <r>   12.9740    0.0000 </r>
      </set>
      <set comment="kpoint 7">
       <r>    1.4780    1.0000 </r>
       <r>    4.1654    1.0000 </r>
       <r>    7.1145    0.0000 </r>
       <r>    9.6045    0.0000 </r>
       <r>   10.5787    0.0000 </r>
       <r>   13.6238    0.0000 </r>
      </set>
      <set comment="kpoint 8">
       <r>   -2.0680    1.0000 </r>
       <r>    6.4209    0.0000 </r>
       <r>    6.4209    0.0000 </r>
       <r>    6.4924    0.0000 </r>
       <r>    9.4853    0.0000 </r>
       <r>    9.7431    0.0000 </r>
      </set>
      <set comment="kpoint 9">
       <r>   -0.4712    1.0000 </r>
       <r>    5.4878    1.0000 </r>
       <r>    5.5376    1.0000 </r>
       <r>    8.5366    0.0000 </r>
       <r>    9.0566    0.0000 </r>
       <r>    9.7600    0.0000 </r>
      </set>
      <set comment="kpoint 10">
       <r>    0.4990    1.0000 </r>
       <r>    5.0109    1.0000 </r>
       <r>    5.1629    1.0000 </r>
       <r>    9.0762    0.0000 </r>
       <r>    9.8580    0.0000 </r>
       <r>   10.0318    0.0000 </r>
      </set>
      <set comment="kpoint 11">
       <r>    1.3727    1.0000 </r>
       <r>    4.6026    1.0000 </r>
       <r>    5.1336    1.0000 </r>
       <r>    9.3208    0.0000 </r>
       <r>   10.2719    0.0000 </r>
       <r>   11.3906    0.0000 </r>
      </set>
      <set comment="kpoint 12">
       <r>    1.7886    1.0000 </r>
       <r>    4.3244    1.0000 </r>
       <r>    5.7238    0.0746 </r>
       <r>    9.5917    0.0000 </r>
       <r>   10.4671    0.0000 </r>
       <r>   12.9238    0.0000 </r>
      </set>
      <set comment="kpoint 13">
       <r>    1.8591    1.0000 </r>
       <r>    4.1823    1.0000 </r>
       <r>    6.4842    0.0000 </r>
       <r>    9.6475    0.0000 </r>
       <r>   10.6428    0.0000 </r>
       <r>   14.0235    0.0000 </r>
      </set>
      <set comment="kpoint 14">
       <r>   -1.6360    1.0000 </r>
       <r>    6.1664    0.0000 </r>
       <r>    6.3240    0.0000 </r>
       <r>    6.9103    0.0000 </r>
       <r>    9.0265    0.0000 </r>
       <r>    9.8313    0.0000 </r>
      </set>
      <set comment="kpoint 15">
       <r>    1.4582    1.0000 </r>
       <r>    4.6334    1.0000 </r>
       <r>    4.8704    1.0000 </r>
       <r>    9.1606    0.0000 </r>
       <r>   10.3391    0.0000 </r>
       <r>   11.3727    0.0000 </r>
      </set>
      <set comment="kpoint 16">
       <r>    2.2044    1.0000 </r>
       <r>    4.3711    1.0000 </r>
       <r>    4.9783    1.0000 </r>
       <r>    9.4156    0.0000 </r>
       <r>   10.4929    0.0000 </r>
       <r>   13.0008    0.0000 </r>
      </set>
      <set comment="kpoint 17">
       <r>    2.4493    1.0000 </r>
       <r>    4.2511    1.0000 </r>
       <r>    5.5581    1.0004 </r>
       <r>    9.6571    0.0000 </r>
       <r>   10.5900    0.0000 </r>
       <r>   14.4497    0.0000 </r>
      </set>
      <set comment="kpoint 18">
       <r>    2.4684    1.0000 </r>
       <r>    4.2136    1.0000 </r>
       <r>    5.9276    0.0000 </r>
       <r>    9.6926    0.0000 </r>
       <r>   10.7110    0.0000 </r>
       <r>   15.1203    0.0000 </r>
      </set>
      <set comment="kpoint 19">
       <r>   -0.8451    1.0000 </r>
       <r>    5.7159    0.1561 </r>
       <r>    6.0144    0.0000 </r>
       <r>    7.7659    0.0000 </r>
       <r>    8.7309    0.0000 </r>
       <r>    9.9188    0.0000 </r>
      </set>
      <set comment="kpoint 20">
       <r>   -1.0252    1.0000 </r>
       <r>    5.9690    0.0000 </r>
       <r>    6.0667    0.0000 </r>
       <r>    7.4912    0.0000 </r>
       <r>    8.4986    0.0000 </r>
       <r>   10.0568    0.0000 </r>
      </set>
      <set comment="kpoint 21">
       <r>    2.8323    1.0000 </r>
       <r>    4.2841    1.0000 </r>
       <r>    5.0414    1.0000 </r>
       <r>    9.6734    0.0000 </r>
       <r>   10.5090    0.0000 </r>
       <r>   14.6560    0.0000 </r>
      </set>
      <set comment="kpoint 22">
       <r>    3.0383    1.0000 </r>
       <r>    4.3517    1.0000 </r>
       <r>    5.2327    1.0000 </r>
       <r>    9.9206    0.0000 </r>
       <r>   10.5426    0.0000 </r>
       <r>   14.7543    0.0000 </r>
      </set>
      <set comment="kpoint 23">
       <r>    0.1279    1.0000 </r>
       <r>    5.2149    1.0000 </r>
       <r>    5.6135    1.0233 </r>
       <r>    8.8358    0.0000 </r>
       <r>    8.9891    0.0000 </r>
       <r>   10.0585    0.0000 </r>
      </set>
      <set comment="kpoint 24">
       <r>   -0.1268    1.0000 </r>
       <r>    5.5261    1.0000 </r>
       <r>    5.6718    0.8285 </r>
       <r>    8.3289    0.0000 </r>
       <r>    8.5433    0.0000 </r>
       <r>   10.2570    0.0000 </r>
      </set>
      <set comment="kpoint 25">
       <r>    3.2580    1.0000 </r>
       <r>    4.7518    1.0000 </r>
       <r>    4.7518    1.0000 </r>
       <r>   10.3113    0.0000 </r>
       <r>   10.3113    0.0000 </r>
       <r>   14.0992    0.0000 </r>
      </set>
      <set comment="kpoint 26">
       <r>    0.9543    1.0000 </r>
       <r>    4.7660    1.0000 </r>
       <r>    5.5814    1.0035 </r>
       <r>    9.1791    0.0000 </r>
       <r>   10.2405    0.0000 </r>
       <r>   10.4858    0.0000 </r>
      </set>
      <set comment="kpoint 27">
       <r>    0.8250    1.0000 </r>
       <r>    5.0407    1.0000 </r>
       <r>    5.3719    1.0000 </r>
       <r>    8.5862    0.0000 </r>
       <r>    9.9162    0.0000 </r>
       <r>   10.4248    0.0000 </r>
      </set>
      <set comment="kpoint 28">
       <r>    0.7980    1.0000 </r>
       <r>    5.0707    1.0000 </r>
       <r>    5.3858    1.0000 </r>
       <r>    8.2786    0.0000 </r>
       <r>    9.7597    0.0000 </r>
       <r>   10.5177    0.0000 </r>
      </set>
      <set comment="kpoint 29">
       <r>    1.3381    1.0000 </r>
       <r>    4.4357    1.0000 </r>
       <r>    6.1832    0.0000 </r>
       <r>    9.4675    0.0000 </r>
       <r>   10.4557    0.0000 </r>
       <r>   12.0568    0.0000 </r>
      </set>
      <set comment="kpoint 30">
       <r>    1.4624    1.0000 </r>
       <r>    4.6785    1.0000 </r>
       <r>    5.5343    1.0000 </r>
       <r>    9.0118    0.0000 </r>
       <r>   10.5270    0.0000 </r>
       <r>   11.5125    0.0000 </r>
      </set>
      <set comment="kpoint 31">
       <r>    1.6641    1.0000 </r>
       <r>    4.6525    1.0000 </r>
       <r>    5.2688    1.0000 </r>
       <r>    8.5708    0.0000 </r>
       <r>   10.5037    0.0000 </r>
       <r>   11.3970    0.0000 </r>
      </set>
      <set comment="kpoint 32">
       <r>    1.4106    1.0000 </r>
       <r>    4.2621    1.0000 </r>
       <r>    6.9500    0.0000 </r>
       <r>    9.4455    0.0000 </r>
       <r>   10.6952    0.0000 </r>
       <r>   13.2304    0.0000 </r>
      </set>
      <set comment="kpoint 33">
       <r>    1.6570    1.0000 </r>
       <r>    4.4510    1.0000 </r>
       <r>    6.1695    0.0000 </r>
       <r>    9.1936    0.0000 </r>
       <r>   10.8028    0.0000 </r>
       <r>   12.9681    0.0000 </r>
      </set>
      <set comment="kpoint 34">
       <r>    2.1178    1.0000 </r>
       <r>    4.5096    1.0000 </r>
       <r>    5.4365    1.0000 </r>
       <r>    8.9546    0.0000 </r>
       <r>   10.5959    0.0000 </r>
       <r>   13.0111    0.0000 </r>
      </set>
      <set comment="kpoint 35">
       <r>    2.4258    1.0000 </r>
       <r>    4.3042    1.0000 </r>
       <r>    5.2831    1.0000 </r>
       <r>    8.8518    0.0000 </r>
       <r>   10.4435    0.0000 </r>
       <r>   13.0829    0.0000 </r>
      </set>
      <set comment="kpoint 36">
       <r>    1.6737    1.0000 </r>
       <r>    4.3722    1.0000 </r>
       <r>    6.5651    0.0000 </r>
       <r>    9.1185    0.0000 </r>
       <r>   11.0530    0.0000 </r>
       <r>   13.6403    0.0000 </r>
      </set>
      <set comment="kpoint 37">
       <r>    2.2005    1.0000 </r>
       <r>    4.4718    1.0000 </r>
       <r>    5.7991   -0.0054 </r>
       <r>    9.0210    0.0000 </r>
       <r>   10.9635    0.0000 </r>
       <r>   14.2619    0.0000 </r>
      </set>
      <set comment="kpoint 38">
       <r>    2.8107    1.0000 </r>
       <r>    4.3041    1.0000 </r>
       <r>    5.2562    1.0000 </r>
       <r>    9.2246    0.0000 </r>
       <r>   10.5059    0.0000 </r>
       <r>   14.7688    0.0000 </r>
      </set>
      <set comment="kpoint 39">
       <r>    2.8714    1.0000 </r>
       <r>    4.4303    1.0000 </r>
       <r>    5.2059    1.0000 </r>
       <r>    9.3169    0.0000 </r>
       <r>   10.7511    0.0000 </r>
       <r>   15.3049    0.0000 </r>
      </set>
      <set comment="kpoint 40">
       <r>    3.3057    1.0000 </r>
       <r>    4.3402    1.0000 </r>
       <r>    4.8418    1.0000 </r>
       <r>    9.7892    0.0000 </r>
       <r>   10.3546    0.0000 </r>
       <r>   14.8438    0.0000 </r>
      </set>
      <set comment="kpoint 41">
       <r>    0.3896    1.0000 </r>
       <r>    5.0254    1.0000 </r>
       <r>    5.0254    1.0000 </r>
       <r>    9.5857    0.0000 </r>
       <r>    9.5857    0.0000 </r>
       <r>    9.8744    0.0000 </r>
      </set>
      <set comment="kpoint 42">
       <r>    1.3930    1.0000 </r>
       <r>    4.6101    1.0000 </r>
       <r>    4.7134    1.0000 </r>
       <r>    9.6367    0.0000 </r>
       <r>   10.0102    0.0000 </r>
       <r>   11.4233    0.0000 </r>
      </set>
      <set comment="kpoint 43">
       <r>    2.1342    1.0000 </r>
       <r>    4.3120    1.0000 </r>
       <r>    4.9252    1.0000 </r>
       <r>    9.8188    0.0000 </r>
       <r>   10.3330    0.0000 </r>
       <r>   13.0210    0.0000 </r>
      </set>
      <set comment="kpoint 44">
       <r>    2.3398    1.0000 </r>
       <r>    4.1345    1.0000 </r>
       <r>    5.7355   -0.0008 </r>
       <r>    9.9497    0.0000 </r>
       <r>   10.5532    0.0000 </r>
       <r>   14.3534    0.0000 </r>
      </set>
      <set comment="kpoint 45">
       <r>    2.3470    1.0000 </r>
       <r>    4.0757    1.0000 </r>
       <r>    6.2339    0.0000 </r>
       <r>    9.9586    0.0000 </r>
       <r>   10.6350    0.0000 </r>
       <r>   14.9214    0.0000 </r>
      </set>
      <set comment="kpoint 46">
       <r>   -1.2147    1.0000 </r>
       <r>    6.3450    0.0000 </r>
       <r>    6.3450    0.0000 </r>
       <r>    6.9159    0.0000 </r>
       <r>    8.2062    0.0000 </r>
       <r>   10.2089    0.0000 </r>
      </set>
      <set comment="kpoint 47">
       <r>    2.3811    1.0000 </r>
       <r>    4.3533    1.0000 </r>
       <r>    4.4512    1.0000 </r>
       <r>    9.8769    0.0000 </r>
       <r>   10.2955    0.0000 </r>
       <r>   13.0936    0.0000 </r>
      </set>
      <set comment="kpoint 48">
       <r>    2.9461    1.0000 </r>
       <r>    4.1963    1.0000 </r>
       <r>    4.8157    1.0000 </r>
       <r>   10.0693    0.0000 </r>
       <r>   10.5246    0.0000 </r>
       <r>   14.6463    0.0000 </r>
      </set>
      <set comment="kpoint 49">
       <r>    3.0056    1.0000 </r>
       <r>    4.1218    1.0000 </r>
       <r>    5.5280    1.0000 </r>
       <r>   10.1717    0.0000 </r>
       <r>   10.6454    0.0000 </r>
       <r>   14.7647    0.0000 </r>
      </set>
      <set comment="kpoint 50">
       <r>   -0.4429    1.0000 </r>
       <r>    6.0623    0.0000 </r>
       <r>    6.1420    0.0000 </r>
       <r>    7.6325    0.0000 </r>
       <r>    7.6483    0.0000 </r>
       <r>   10.4613    0.0000 </r>
      </set>
      <set comment="kpoint 51">
       <r>    3.3783    1.0000 </r>
       <r>    4.3490    1.0000 </r>
       <r>    4.9096    1.0000 </r>
       <r>   10.2920    0.0000 </r>
       <r>   10.5992    0.0000 </r>
       <r>   14.4922    0.0000 </r>
      </set>
      <set comment="kpoint 52">
       <r>    3.4374    1.0000 </r>
       <r>    4.4395    1.0000 </r>
       <r>    5.0857    1.0000 </r>
       <r>   10.4050    0.0000 </r>
       <r>   10.6169    0.0000 </r>
       <r>   13.7490    0.0000 </r>
      </set>
      <set comment="kpoint 53">
       <r>    0.5126    1.0000 </r>
       <r>    5.5784    1.0027 </r>
       <r>    5.6098    1.0200 </r>
       <r>    7.8110    0.0000 </r>
       <r>    8.8387    0.0000 </r>
       <r>   10.6102    0.0000 </r>
      </set>
      <set comment="kpoint 54">
       <r>    0.4132    1.0000 </r>
       <r>    5.6792    0.7280 </r>
       <r>    5.9948    0.0000 </r>
       <r>    7.3400    0.0000 </r>
       <r>    8.4342    0.0000 </r>
       <r>   10.6940    0.0000 </r>
      </set>
      <set comment="kpoint 55">
       <r>    1.3440    1.0000 </r>
       <r>    5.1877    1.0000 </r>
       <r>    5.2563    1.0000 </r>
       <r>    8.3260    0.0000 </r>
       <r>   10.3395    0.0000 </r>
       <r>   10.6845    0.0000 </r>
      </set>
      <set comment="kpoint 56">
       <r>    1.3374    1.0000 </r>
       <r>    5.0318    1.0000 </r>
       <r>    5.7309    0.0231 </r>
       <r>    7.6907    0.0000 </r>
       <r>    9.7167    0.0000 </r>
       <r>   10.7832    0.0000 </r>
      </set>
      <set comment="kpoint 57">
       <r>    1.7359    1.0000 </r>
       <r>    4.8735    1.0000 </r>
       <r>    5.5192    1.0000 </r>
       <r>    8.6829    0.0000 </r>
       <r>   10.9588    0.0000 </r>
       <r>   11.9274    0.0000 </r>
      </set>
      <set comment="kpoint 58">
       <r>    1.9944    1.0000 </r>
       <r>    4.7543    1.0000 </r>
       <r>    5.4700    1.0000 </r>
       <r>    8.2173    0.0000 </r>
       <r>   10.6104    0.0000 </r>
       <r>   11.5498    0.0000 </r>
      </set>
      <set comment="kpoint 59">
       <r>    2.1630    1.0000 </r>
       <r>    4.4411    1.0000 </r>
       <r>    5.7436   -0.0259 </r>
       <r>    7.9822    0.0000 </r>
       <r>   10.3078    0.0000 </r>
       <r>   11.5618    0.0000 </r>
      </set>
      <set comment="kpoint 60">
       <r>    1.7988    1.0000 </r>
       <r>    4.7071    1.0000 </r>
       <r>    6.0117    0.0000 </r>
       <r>    8.5752    0.0000 </r>
       <r>   11.5641    0.0000 </r>
       <r>   13.1259    0.0000 </r>
      </set>
      <set comment="kpoint 61">
       <r>    2.1913    1.0000 </r>
       <r>    4.8841    1.0000 </r>
       <r>    5.3868    1.0000 </r>
       <r>    8.3268    0.0000 </r>
       <r>   11.2587    0.0000 </r>
       <r>   13.0370    0.0000 </r>
      </set>
      <set comment="kpoint 62">
       <r>    2.7013    1.0000 </r>
       <r>    4.2371    1.0000 </r>
       <r>    5.5188    1.0000 </r>
       <r>    8.4618    0.0000 </r>
       <r>   10.4707    0.0000 </r>
       <r>   13.2262    0.0000 </r>
      </set>
      <set comment="kpoint 63">
       <r>    2.1972    1.0000 </r>
       <r>    4.9407    1.0000 </r>
       <r>    5.4733    1.0000 </r>
       <r>    8.2154    0.0000 </r>
       <r>   11.8020    0.0000 </r>
       <r>   13.7903    0.0000 </r>
      </set>
      <set comment="kpoint 64">
       <r>    2.8043    1.0000 </r>
       <r>    4.5869    1.0000 </r>
       <r>    5.1016    1.0000 </r>
       <r>    8.5873    0.0000 </r>
       <r>   11.1190    0.0000 </r>
       <r>   14.7298    0.0000 </r>
      </set>
      <set comment="kpoint 65">
       <r>    3.3624    1.0000 </r>
       <r>    3.9573    1.0000 </r>
       <r>    5.0736    1.0000 </r>
       <r>    9.1593    0.0000 </r>
       <r>   10.4339    0.0000 </r>
       <r>   15.0571    0.0000 </r>
      </set>
      <set comment="kpoint 66">
       <r>    3.5454    1.0000 </r>
       <r>    4.3687    1.0000 </r>
       <r>    4.4045    1.0000 </r>
       <r>    9.5065    0.0000 </r>
       <r>   10.5867    0.0000 </r>
       <r>   15.2111    0.0000 </r>
      </set>
      <set comment="kpoint 67">
       <r>    3.4246    1.0000 </r>
       <r>    4.1987    1.0000 </r>
       <r>    4.1987    1.0000 </r>
       <r>   10.3632    0.0000 </r>
       <r>   10.3632    0.0000 </r>
       <r>   14.7742    0.0000 </r>
      </set>
      <set comment="kpoint 68">
       <r>    3.7409    1.0000 </r>
       <r>    4.1298    1.0000 </r>
       <r>    4.7477    1.0000 </r>
       <r>   10.4556    0.0000 </r>
       <r>   10.6262    0.0000 </r>
       <r>   14.4241    0.0000 </r>
      </set>
      <set comment="kpoint 69">
       <r>    3.6971    1.0000 </r>
       <r>    4.1115    1.0000 </r>
       <r>    5.2173    1.0000 </r>
       <r>   10.4855    0.0000 </r>
       <r>   10.7068    0.0000 </r>
       <r>   13.6532    0.0000 </r>
      </set>
      <set comment="kpoint 70">
       <r>    0.2881    1.0000 </r>
       <r>    6.4403    0.0000 </r>
       <r>    6.4403    0.0000 </r>
       <r>    6.4574    0.0000 </r>
       <r>    7.7343    0.0000 </r>
       <r>   10.7725    0.0000 </r>
      </set>
      <set comment="kpoint 71">
       <r>    3.9784    1.0000 </r>
       <r>    4.4336    1.0000 </r>
       <r>    4.7614    1.0000 </r>
       <r>   10.6366    0.0000 </r>
       <r>   10.6969    0.0000 </r>
       <r>   13.2276    0.0000 </r>
      </set>
      <set comment="kpoint 72">
       <r>    1.1898    1.0000 </r>
       <r>    5.4047    1.0000 </r>
       <r>    6.3096    0.0000 </r>
       <r>    6.9657    0.0000 </r>
       <r>    8.6685    0.0000 </r>
       <r>   10.8218    0.0000 </r>
      </set>
      <set comment="kpoint 73">
       <r>    1.9976    1.0000 </r>
       <r>    4.7133    1.0000 </r>
       <r>    5.9917    0.0000 </r>
       <r>    7.6018    0.0000 </r>
       <r>   10.1143    0.0000 </r>
       <r>   10.8060    0.0000 </r>
      </set>
      <set comment="kpoint 74">
       <r>    2.0174    1.0000 </r>
       <r>    4.6582    1.0000 </r>
       <r>    6.4380    0.0000 </r>
       <r>    7.2597    0.0000 </r>
       <r>    9.5862    0.0000 </r>
       <r>   10.7806    0.0000 </r>
      </set>
      <set comment="kpoint 75">
       <r>    2.3860    1.0000 </r>
       <r>    4.6024    1.0000 </r>
       <r>    5.7239    0.0738 </r>
       <r>    7.8499    0.0000 </r>
       <r>   11.3703    0.0000 </r>
       <r>   11.7085    0.0000 </r>
      </set>
      <set comment="kpoint 76">
       <r>    2.6473    1.0000 </r>
       <r>    4.1279    1.0000 </r>
       <r>    6.2152    0.0000 </r>
       <r>    7.8117    0.0000 </r>
       <r>   10.3972    0.0000 </r>
       <r>   11.6008    0.0000 </r>
      </set>
      <set comment="kpoint 77">
       <r>    2.4107    1.0000 </r>
       <r>    4.8563    1.0000 </r>
       <r>    5.5776    1.0026 </r>
       <r>    7.6440    0.0000 </r>
       <r>   12.5060    0.0000 </r>
       <r>   12.9429    0.0000 </r>
      </set>
      <set comment="kpoint 78">
       <r>    2.8083    1.0000 </r>
       <r>    4.1649    1.0000 </r>
       <r>    5.8852    0.0000 </r>
       <r>    7.9299    0.0000 </r>
       <r>   11.3767    0.0000 </r>
       <r>   13.2042    0.0000 </r>
      </set>
      <set comment="kpoint 79">
       <r>    3.1999    1.0000 </r>
       <r>    3.6641    1.0000 </r>
       <r>    5.8741    0.0000 </r>
       <r>    8.5744    0.0000 </r>
       <r>   10.4522    0.0000 </r>
       <r>   13.3429    0.0000 </r>
      </set>
      <set comment="kpoint 80">
       <r>    2.7706    1.0000 </r>
       <r>    4.3476    1.0000 </r>
       <r>    5.6931    0.5026 </r>
       <r>    7.8680    0.0000 </r>
       <r>   12.1270    0.0000 </r>
       <r>   14.2231    0.0000 </r>
      </set>
      <set comment="kpoint 81">
       <r>    3.2575    1.0000 </r>
       <r>    3.8103    1.0000 </r>
       <r>    5.3775    1.0000 </r>
       <r>    9.0338    0.0000 </r>
       <r>   11.0467    0.0000 </r>
       <r>   15.1052    0.0000 </r>
      </set>
      <set comment="kpoint 82">
       <r>    3.5995    1.0000 </r>
       <r>    3.5995    1.0000 </r>
       <r>    5.0310    1.0000 </r>
       <r>   10.2845    0.0000 </r>
       <r>   10.2845    0.0000 </r>
       <r>   15.3503    0.0000 </r>
      </set>
      <set comment="kpoint 83">
       <r>    4.4716    1.0000 </r>
       <r>    4.4716    1.0000 </r>
       <r>    4.4716    1.0000 </r>
       <r>   10.7391    0.0000 </r>
       <r>   10.7391    0.0000 </r>
       <r>   12.7448    0.0000 </r>
      </set>
      <set comment="kpoint 84">
       <r>    1.9705    1.0000 </r>
       <r>    4.7854    1.0000 </r>
       <r>    6.9534    0.0000 </r>
       <r>    6.9534    0.0000 </r>
       <r>    8.8812    0.0000 </r>
       <r>   10.6842    0.0000 </r>
      </set>
      <set comment="kpoint 85">
       <r>    2.6207    1.0000 </r>
       <r>    4.0634    1.0000 </r>
       <r>    7.0592    0.0000 </r>
       <r>    7.4640    0.0000 </r>
       <r>    9.9561    0.0000 </r>
       <r>   10.6292    0.0000 </r>
      </set>
      <set comment="kpoint 86">
       <r>    2.8991    1.0000 </r>
       <r>    3.7130    1.0000 </r>
       <r>    6.9301    0.0000 </r>
       <r>    7.6309    0.0000 </r>
       <r>   11.4691    0.0000 </r>
       <r>   11.5049    0.0000 </r>
      </set>
      <set comment="kpoint 87">
       <r>    2.9960    1.0000 </r>
       <r>    3.4861    1.0000 </r>
       <r>    7.1062    0.0000 </r>
       <r>    8.1662    0.0000 </r>
       <r>   10.4198    0.0000 </r>
       <r>   11.5165    0.0000 </r>
      </set>
      <set comment="kpoint 88">
       <r>    2.8076    1.0000 </r>
       <r>    3.7904    1.0000 </r>
       <r>    6.8309    0.0000 </r>
       <r>    7.4567    0.0000 </r>
       <r>   12.7236    0.0000 </r>
       <r>   13.1422    0.0000 </r>
      </set>
      <set comment="kpoint 89">
       <r>    2.9831    1.0000 </r>
       <r>    3.3149    1.0000 </r>
       <r>    6.8237    0.0000 </r>
       <r>    8.6326    0.0000 </r>
       <r>   11.3128    0.0000 </r>
       <r>   13.2790    0.0000 </r>
      </set>
      <set comment="kpoint 90">
       <r>    2.8634    1.0000 </r>
       <r>    3.3707    1.0000 </r>
       <r>    6.6881    0.0000 </r>
       <r>    8.6947    0.0000 </r>
       <r>   12.0844    0.0000 </r>
       <r>   14.6950    0.0000 </r>
      </set>
      <set comment="kpoint 91">
       <r>    2.9962    1.0000 </r>
       <r>    3.1025    1.0000 </r>
       <r>    6.5241    0.0000 </r>
       <r>    9.9728    0.0000 </r>
       <r>   11.0984    0.0000 </r>
       <r>   15.2145    0.0000 </r>
      </set>
      <set comment="kpoint 92">
       <r>    2.9135    1.0000 </r>
       <r>    3.4268    1.0000 </r>
       <r>    8.0201    0.0000 </r>
       <r>    8.0201    0.0000 </r>
       <r>   10.2239    0.0000 </r>
       <r>   10.5729    0.0000 </r>
      </set>
      <set comment="kpoint 93">
       <r>    2.8797    1.0000 </r>
       <r>    2.9940    1.0000 </r>
       <r>    8.3683    0.0000 </r>
       <r>    8.4417    0.0000 </r>
       <r>   11.3141    0.0000 </r>
       <r>   11.5182    0.0000 </r>
      </set>
      <set comment="kpoint 94">
       <r>    2.6421    1.0000 </r>
       <r>    2.9319    1.0000 </r>
       <r>    8.3997    0.0000 </r>
       <r>    8.4415    0.0000 </r>
       <r>   12.5144    0.0000 </r>
       <r>   13.4258    0.0000 </r>
      </set>
      <set comment="kpoint 95">
       <r>    2.6147    1.0000 </r>
       <r>    2.7229    1.0000 </r>
       <r>    8.3214    0.0000 </r>
       <r>    9.7490    0.0000 </r>
       <r>   11.5454    0.0000 </r>
       <r>   13.2446    0.0000 </r>
      </set>
      <set comment="kpoint 96">
       <r>    2.5094    1.0000 </r>
       <r>    2.6259    1.0000 </r>
       <r>    8.2624    0.0000 </r>
       <r>   10.2227    0.0000 </r>
       <r>   11.9392    0.0000 </r>
       <r>   14.9677    0.0000 </r>
      </set>
      <set comment="kpoint 97">
       <r>    2.4840    1.0000 </r>
       <r>    2.5868    1.0000 </r>
       <r>    9.6685    0.0000 </r>
       <r>    9.6685    0.0000 </r>
       <r>   11.5154    0.0000 </r>
       <r>   11.9466    0.0000 </r>
      </set>
      <set comment="kpoint 98">
       <r>    2.2526    1.0000 </r>
       <r>    2.3398    1.0000 </r>
       <r>   10.1636    0.0000 </r>
       <r>   10.1697    0.0000 </r>
       <r>   12.3592    0.0000 </r>
       <r>   13.5380    0.0000 </r>
      </set>
      <set comment="kpoint 99">
       <r>    2.1614    1.0000 </r>
       <r>    2.1614    1.0000 </r>
       <r>   10.2038    0.0000 </r>
       <r>   11.8174    0.0000 </r>
       <r>   11.8174    0.0000 </r>
       <r>   15.0686    0.0000 </r>
      </set>
      <set comment="kpoint 100">
       <r>    2.0033    1.0000 </r>
       <r>    2.0290    1.0000 </r>
       <r>   11.7717    0.0000 </r>
       <r>   11.7717    0.0000 </r>
       <r>   12.3579    0.0000 </r>
       <r>   13.8765    0.0000 </r>
      </set>
     </set>
    </set>
   </array>
  </eigenvalues>
  <separator name="orbital magnetization" >
   <v name="MAGDIPOLOUT">      0.00000000      0.00000000      0.00000000</v>
  </separator>
  <dos>
   <i name="efermi">      5.69323099 </i>
   <total>
    <array>
     <dimension dim="1">gridpoints</dimension>
     <dimension dim="2">spin</dimension>
     <field>energy</field>
     <field>total</field>
     <field>integrated</field>
     <set>
      <set comment="spin 1">
       <r>    -2.9389     0.0000     0.0000 </r>
       <r>    -2.8750     0.0000     0.0000 </r>
       <r>    -2.8111     0.0000     0.0000 </r>
       <r>    -2.7473     0.0000     0.0000 </r>
       <r>    -2.6834     0.0000     0.0000 </r>
       <r>    -2.6195     0.0000     0.0000 </r>
       <r>    -2.5557     0.0000     0.0000 </r>
       <r>    -2.4918     0.0000     0.0000 </r>
       <r>    -2.4279     0.0000     0.0000 </r>
       <r>    -2.3641     0.0000     0.0000 </r>
       <r>    -2.3002     0.0000     0.0000 </r>
       <r>    -2.2363     0.0000     0.0000 </r>
       <r>    -2.1725    -0.0004     0.0000 </r>
       <r>    -2.1086     0.0009     0.0000 </r>
       <r>    -2.0447     0.0577     0.0037 </r>
       <r>    -1.9809     0.0114     0.0044 </r>
       <r>    -1.9170    -0.0042     0.0042 </r>
       <r>    -1.8531     0.0444     0.0070 </r>
       <r>    -1.7893     0.0532     0.0104 </r>
       <r>    -1.7254    -0.0072     0.0099 </r>
       <r>    -1.6615     0.0380     0.0124 </r>
       <r>    -1.5977     0.2347     0.0274 </r>
       <r>    -1.5338     0.0071     0.0278 </r>
       <r>    -1.4699    -0.0019     0.0277 </r>
       <r>    -1.4061     0.0000     0.0277 </r>
       <r>    -1.3422    -0.0010     0.0276 </r>
       <r>    -1.2783    -0.0074     0.0272 </r>
       <r>    -1.2145     0.2473     0.0430 </r>
       <r>    -1.1506     0.1121     0.0501 </r>
       <r>    -1.0867    -0.0182     0.0489 </r>
       <r>    -1.0229     0.1572     0.0590 </r>
       <r>    -0.9590     0.1349     0.0676 </r>
       <r>    -0.8951    -0.0153     0.0666 </r>
       <r>    -0.8313     0.2050     0.0797 </r>
       <r>    -0.7674     0.0825     0.0850 </r>
       <r>    -0.7035    -0.0068     0.0846 </r>
       <r>    -0.6397    -0.0001     0.0845 </r>
       <r>    -0.5758    -0.0018     0.0844 </r>
       <r>    -0.5119    -0.0054     0.0841 </r>
       <r>    -0.4481     0.3528     0.1066 </r>
       <r>    -0.3842     0.2069     0.1198 </r>
       <r>    -0.3203     0.1252     0.1278 </r>
       <r>    -0.2565     0.1532     0.1376 </r>
       <r>    -0.1926    -0.0278     0.1358 </r>
       <r>    -0.1287     0.2744     0.1534 </r>
       <r>    -0.0649     0.3113     0.1733 </r>
       <r>    -0.0010    -0.0190     0.1720 </r>
       <r>     0.0629    -0.0099     0.1714 </r>
       <r>     0.1267     0.1410     0.1804 </r>
       <r>     0.1906     0.1514     0.1901 </r>
       <r>     0.2545    -0.0054     0.1897 </r>
       <r>     0.3183     0.0537     0.1932 </r>
       <r>     0.3822     0.0644     0.1973 </r>
       <r>     0.4461     0.2739     0.2148 </r>
       <r>     0.5099     0.5376     0.2491 </r>
       <r>     0.5738     0.3375     0.2707 </r>
       <r>     0.6377     0.1194     0.2783 </r>
       <r>     0.7015     0.1453     0.2876 </r>
       <r>     0.7654    -0.0093     0.2870 </r>
       <r>     0.8293     0.5710     0.3234 </r>
       <r>     0.8931     0.2651     0.3404 </r>
       <r>     0.9570     0.1385     0.3492 </r>
       <r>     1.0209     0.1333     0.3577 </r>
       <r>     1.0847    -0.0107     0.3571 </r>
       <r>     1.1486     0.0019     0.3572 </r>
       <r>     1.2125     0.2206     0.3713 </r>
       <r>     1.2763     0.1936     0.3836 </r>
       <r>     1.3402     0.7206     0.4297 </r>
       <r>     1.4041     1.3094     0.5133 </r>
       <r>     1.4679     1.0461     0.5801 </r>
       <r>     1.5318     0.5181     0.6132 </r>
       <r>     1.5957    -0.0810     0.6080 </r>
       <r>     1.6596     0.6389     0.6488 </r>
       <r>     1.7234     0.8730     0.7046 </r>
       <r>     1.7873     0.5145     0.7374 </r>
       <r>     1.8512     0.7108     0.7828 </r>
       <r>     1.9150     0.3146     0.8029 </r>
       <r>     1.9789     0.2556     0.8192 </r>
       <r>     2.0428     0.9929     0.8827 </r>
       <r>     2.1066     0.2269     0.8972 </r>
       <r>     2.1705     1.1430     0.9702 </r>
       <r>     2.2344     1.8792     1.0902 </r>
       <r>     2.2982     0.2843     1.1083 </r>
       <r>     2.3621     0.6235     1.1481 </r>
       <r>     2.4260     1.0302     1.2139 </r>
       <r>     2.4898     1.0024     1.2780 </r>
       <r>     2.5537     0.2600     1.2946 </r>
       <r>     2.6176     0.5274     1.3282 </r>
       <r>     2.6814     1.3045     1.4116 </r>
       <r>     2.7453     0.6529     1.4533 </r>
       <r>     2.8092     1.3591     1.5401 </r>
       <r>     2.8730     1.6762     1.6471 </r>
       <r>     2.9369     0.9686     1.7090 </r>
       <r>     3.0008     1.6991     1.8175 </r>
       <r>     3.0646     1.2840     1.8995 </r>
       <r>     3.1285     0.2401     1.9148 </r>
       <r>     3.1924     0.1150     1.9222 </r>
       <r>     3.2562     0.4768     1.9526 </r>
       <r>     3.3201     0.8803     2.0089 </r>
       <r>     3.3840     0.8964     2.0661 </r>
       <r>     3.4478     0.5620     2.1020 </r>
       <r>     3.5117     0.3533     2.1246 </r>
       <r>     3.5756     0.2905     2.1431 </r>
       <r>     3.6394     0.2017     2.1560 </r>
       <r>     3.7033     0.4226     2.1830 </r>
       <r>     3.7672     0.5346     2.2171 </r>
       <r>     3.8310     0.7035     2.2621 </r>
       <r>     3.8949     0.0933     2.2680 </r>
       <r>     3.9588     0.1983     2.2807 </r>
       <r>     4.0226     0.3497     2.3030 </r>
       <r>     4.0865     0.3373     2.3246 </r>
       <r>     4.1504     1.7837     2.4385 </r>
       <r>     4.2142     2.0993     2.5726 </r>
       <r>     4.2781     1.8778     2.6925 </r>
       <r>     4.3420     2.4644     2.8499 </r>
       <r>     4.4058     2.4151     3.0041 </r>
       <r>     4.4697     2.3175     3.1521 </r>
       <r>     4.5336     1.2513     3.2321 </r>
       <r>     4.5974     0.8548     3.2867 </r>
       <r>     4.6613     1.7651     3.3994 </r>
       <r>     4.7252     1.4999     3.4952 </r>
       <r>     4.7890     1.6140     3.5983 </r>
       <r>     4.8529     1.0934     3.6681 </r>
       <r>     4.9168     1.7160     3.7777 </r>
       <r>     4.9806     0.8639     3.8329 </r>
       <r>     5.0445     1.8720     3.9524 </r>
       <r>     5.1084     1.7532     4.0644 </r>
       <r>     5.1722     1.1413     4.1373 </r>
       <r>     5.2361     1.5061     4.2335 </r>
       <r>     5.3000     1.6532     4.3391 </r>
       <r>     5.3638     0.7517     4.3871 </r>
       <r>     5.4277     2.2216     4.5289 </r>
       <r>     5.4916     1.3845     4.6174 </r>
       <r>     5.5554     2.9713     4.8071 </r>
       <r>     5.6193     1.6821     4.9146 </r>
       <r>     5.6832     1.0535     4.9819 </r>
       <r>     5.7470     2.3459     5.1317 </r>
       <r>     5.8109     0.9891     5.1949 </r>
       <r>     5.8748     0.6649     5.2373 </r>
       <r>     5.9386     0.7768     5.2869 </r>
       <r>     6.0025     0.9211     5.3458 </r>
       <r>     6.0664     1.1117     5.4168 </r>
       <r>     6.1302     0.3329     5.4380 </r>
       <r>     6.1941     1.1770     5.5132 </r>
       <r>     6.2580     0.8370     5.5666 </r>
       <r>     6.3218     0.4691     5.5966 </r>
       <r>     6.3857     0.3381     5.6182 </r>
       <r>     6.4496     0.4424     5.6465 </r>
       <r>     6.5134     0.8192     5.6988 </r>
       <r>     6.5773     0.5104     5.7314 </r>
       <r>     6.6412     0.2876     5.7497 </r>
       <r>     6.7050     0.2030     5.7627 </r>
       <r>     6.7689     0.0389     5.7652 </r>
       <r>     6.8328     0.5675     5.8014 </r>
       <r>     6.8966     0.4805     5.8321 </r>
       <r>     6.9605     0.8730     5.8879 </r>
       <r>     7.0244     0.3468     5.9100 </r>
       <r>     7.0882     0.2960     5.9289 </r>
       <r>     7.1521     0.3623     5.9521 </r>
       <r>     7.2160    -0.0029     5.9519 </r>
       <r>     7.2798     0.2127     5.9655 </r>
       <r>     7.3437     0.2194     5.9795 </r>
       <r>     7.4076     0.1035     5.9861 </r>
       <r>     7.4714     0.4281     6.0134 </r>
       <r>     7.5353     0.5626     6.0494 </r>
       <r>     7.5992     0.2679     6.0665 </r>
       <r>     7.6630     1.1161     6.1378 </r>
       <r>     7.7269     0.6653     6.1803 </r>
       <r>     7.7908     0.4302     6.2077 </r>
       <r>     7.8546     0.9480     6.2683 </r>
       <r>     7.9185     0.4994     6.3002 </r>
       <r>     7.9824     0.5251     6.3337 </r>
       <r>     8.0462     0.2471     6.3495 </r>
       <r>     8.1101    -0.0061     6.3491 </r>
       <r>     8.1740     0.1806     6.3606 </r>
       <r>     8.2378     0.8684     6.4161 </r>
       <r>     8.3017     0.8530     6.4706 </r>
       <r>     8.3656     1.5531     6.5698 </r>
       <r>     8.4294     0.7584     6.6182 </r>
       <r>     8.4933     1.1185     6.6896 </r>
       <r>     8.5572     1.2265     6.7680 </r>
       <r>     8.6210     2.4022     6.9214 </r>
       <r>     8.6849     0.9079     6.9794 </r>
       <r>     8.7488     0.5750     7.0161 </r>
       <r>     8.8126     0.1264     7.0242 </r>
       <r>     8.8765     0.7095     7.0695 </r>
       <r>     8.9404     0.2088     7.0828 </r>
       <r>     9.0042     1.0437     7.1495 </r>
       <r>     9.0681     2.0704     7.2817 </r>
       <r>     9.1320     0.9042     7.3395 </r>
       <r>     9.1958     1.3282     7.4243 </r>
       <r>     9.2597     0.9863     7.4873 </r>
       <r>     9.3236     0.6045     7.5259 </r>
       <r>     9.3874     0.4110     7.5521 </r>
       <r>     9.4513     0.6802     7.5956 </r>
       <r>     9.5152     0.6699     7.6384 </r>
       <r>     9.5790     0.7841     7.6885 </r>
       <r>     9.6429     1.7203     7.7983 </r>
       <r>     9.7068     1.8381     7.9157 </r>
       <r>     9.7706     1.2894     7.9981 </r>
       <r>     9.8345     1.0242     8.0635 </r>
       <r>     9.8984     1.1867     8.1393 </r>
       <r>     9.9622     1.7896     8.2536 </r>
       <r>    10.0261     1.3814     8.3418 </r>
       <r>    10.0900     1.3595     8.4286 </r>
       <r>    10.1538     0.6254     8.4686 </r>
       <r>    10.2177     1.1815     8.5440 </r>
       <r>    10.2816     1.8163     8.6600 </r>
       <r>    10.3454     1.8033     8.7752 </r>
       <r>    10.4093     1.3965     8.8644 </r>
       <r>    10.4732     3.2992     9.0751 </r>
       <r>    10.5370     4.0948     9.3366 </r>
       <r>    10.6009     2.7262     9.5107 </r>
       <r>    10.6648     3.2519     9.7184 </r>
       <r>    10.7286     1.5405     9.8168 </r>
       <r>    10.7925     1.3074     9.9003 </r>
       <r>    10.8564     1.1160     9.9716 </r>
       <r>    10.9202    -0.0282     9.9698 </r>
       <r>    10.9841     0.6519    10.0114 </r>
       <r>    11.0480     0.5539    10.0468 </r>
       <r>    11.1118     0.8651    10.1020 </r>
       <r>    11.1757     0.4031    10.1278 </r>
       <r>    11.2396     0.0719    10.1324 </r>
       <r>    11.3034     0.6943    10.1767 </r>
       <r>    11.3673     1.1557    10.2505 </r>
       <r>    11.4312     1.7783    10.3641 </r>
       <r>    11.4950     0.6389    10.4049 </r>
       <r>    11.5589     2.1802    10.5441 </r>
       <r>    11.6228     1.1648    10.6185 </r>
       <r>    11.6866     0.0913    10.6244 </r>
       <r>    11.7505     0.2310    10.6391 </r>
       <r>    11.8144     0.4020    10.6648 </r>
       <r>    11.8782     0.1775    10.6761 </r>
       <r>    11.9421     0.3847    10.7007 </r>
       <r>    12.0060     0.2394    10.7160 </r>
       <r>    12.0698     0.2545    10.7322 </r>
       <r>    12.1337     0.4708    10.7623 </r>
       <r>    12.1976     0.1020    10.7688 </r>
       <r>    12.2614    -0.0126    10.7680 </r>
       <r>    12.3253     0.0202    10.7693 </r>
       <r>    12.3892     0.2976    10.7883 </r>
       <r>    12.4530     0.0136    10.7892 </r>
       <r>    12.5169     0.3492    10.8115 </r>
       <r>    12.5808     0.2295    10.8262 </r>
       <r>    12.6446    -0.0234    10.8247 </r>
       <r>    12.7085     0.0777    10.8296 </r>
       <r>    12.7724     0.2293    10.8443 </r>
       <r>    12.8362    -0.0133    10.8434 </r>
       <r>    12.9001     0.0548    10.8469 </r>
       <r>    12.9640     1.0302    10.9127 </r>
       <r>    13.0278     1.8501    11.0309 </r>
       <r>    13.0917     0.9910    11.0942 </r>
       <r>    13.1556     0.6088    11.1330 </r>
       <r>    13.2194     0.9642    11.1946 </r>
       <r>    13.2833     1.4329    11.2861 </r>
       <r>    13.3472     0.3707    11.3098 </r>
       <r>    13.4110     0.1829    11.3215 </r>
       <r>    13.4749     0.1898    11.3336 </r>
       <r>    13.5388     0.1396    11.3425 </r>
       <r>    13.6026     0.1737    11.3536 </r>
       <r>    13.6665     0.4354    11.3814 </r>
       <r>    13.7304     0.1316    11.3898 </r>
       <r>    13.7942     0.3758    11.4138 </r>
       <r>    13.8581     0.1412    11.4229 </r>
       <r>    13.9220     0.0409    11.4255 </r>
       <r>    13.9858     0.0155    11.4265 </r>
       <r>    14.0497     0.4690    11.4564 </r>
       <r>    14.1136     0.1398    11.4653 </r>
       <r>    14.1775     0.0058    11.4657 </r>
       <r>    14.2413     0.3261    11.4865 </r>
       <r>    14.3052     0.5096    11.5191 </r>
       <r>    14.3691     0.1848    11.5309 </r>
       <r>    14.4329     0.3884    11.5557 </r>
       <r>    14.4968     0.6962    11.6002 </r>
       <r>    14.5607     0.0962    11.6063 </r>
       <r>    14.6245     0.0993    11.6126 </r>
       <r>    14.6884     0.7687    11.6617 </r>
       <r>    14.7523     1.2629    11.7424 </r>
       <r>    14.8161     1.3308    11.8274 </r>
       <r>    14.8800     0.1838    11.8391 </r>
       <r>    14.9439     0.1637    11.8496 </r>
       <r>    15.0077     0.2392    11.8649 </r>
       <r>    15.0716     0.2901    11.8834 </r>
       <r>    15.1355     0.7959    11.9342 </r>
       <r>    15.1993     0.2826    11.9523 </r>
       <r>    15.2632     0.3953    11.9775 </r>
       <r>    15.3271     0.2316    11.9923 </r>
       <r>    15.3909     0.1248    12.0003 </r>
       <r>    15.4548    -0.0037    12.0000 </r>
       <r>    15.5187    -0.0006    12.0000 </r>
       <r>    15.5825     0.0000    12.0000 </r>
       <r>    15.6464     0.0000    12.0000 </r>
       <r>    15.7103     0.0000    12.0000 </r>
       <r>    15.7741     0.0000    12.0000 </r>
       <r>    15.8380     0.0000    12.0000 </r>
       <r>    15.9019     0.0000    12.0000 </r>
       <r>    15.9657     0.0000    12.0000 </r>
       <r>    16.0296     0.0000    12.0000 </r>
       <r>    16.0935     0.0000    12.0000 </r>
       <r>    16.1573     0.0000    12.0000 </r>
       <r>    16.2212     0.0000    12.0000 </r>
      </set>
     </set>
    </array>
   </total>
  </dos>
 </calculation>
 <structure name="finalpos" >
  <crystal>
   <varray name="basis" >
    <v>       2.86654409       0.00000000       0.00000000 </v>
    <v>      -0.95551470       2.70260368       0.00000000 </v>
    <v>      -0.95551470      -1.35130184       2.34052345 </v>
   </varray>
   <i name="volume">     18.13234550 </i>
   <varray name="rec_basis" >
    <v>       0.34885213       0.12333785       0.21362743 </v>
    <v>       0.00000000       0.37001356       0.21362743 </v>
    <v>       0.00000000       0.00000000       0.42725485 </v>
   </varray>
  </crystal>
  <varray name="positions" >
   <v>       0.00000000       0.00000000       0.00000000 </v>
  </varray>
 </structure>
</modeling>
