   1   1   1   0
  0.1865462E+02  0.2976920E-09  0.2976920E-09  0.2976920E-09  0.5000000E-15
  1.000000000000000E-004
  CAR 
 unknown system                          
     24.27379571     -3.40772482  301      5.80744939      1.00000000
     -3.408  0.0000E+00  0.0000E+00  0.0000E+00  0.0000E+00
     -3.315  0.0000E+00  0.0000E+00  0.0000E+00  0.0000E+00
     -3.223  0.0000E+00  0.0000E+00  0.0000E+00  0.0000E+00
     -3.131  0.0000E+00  0.0000E+00  0.0000E+00  0.0000E+00
     -3.039  0.0000E+00  0.0000E+00  0.0000E+00  0.0000E+00
     -2.946  0.0000E+00  0.0000E+00  0.0000E+00  0.0000E+00
     -2.854  0.0000E+00  0.0000E+00  0.0000E+00  0.0000E+00
     -2.762  0.0000E+00  0.0000E+00  0.0000E+00  0.0000E+00
     -2.670  0.0000E+00  0.0000E+00  0.0000E+00  0.0000E+00
     -2.577 -0.1069E-32 -0.1644E-32 -0.9863E-34 -0.1517E-33
     -2.485 -0.1585E-20 -0.2219E-20 -0.1463E-21 -0.2048E-21
     -2.393 -0.2297E-11 -0.2923E-11 -0.2119E-12 -0.2697E-12
     -2.300 -0.3066E-05 -0.3538E-05 -0.2829E-06 -0.3264E-06
     -2.208 -0.1494E-02 -0.1480E-02 -0.1381E-03 -0.1369E-03
     -2.116  0.4127E-01  0.4167E-01  0.3670E-02  0.3708E-02
     -2.024  0.2612E-02  0.2189E-02  0.3911E-02  0.3910E-02
     -1.931 -0.5111E-04 -0.4568E-04  0.3906E-02  0.3906E-02
     -1.839 -0.1533E-02 -0.1636E-02  0.3765E-02  0.3755E-02
     -1.747  0.6298E-01  0.6556E-01  0.9576E-02  0.9804E-02
     -1.655  0.6727E-01  0.6468E-01  0.1578E-01  0.1577E-01
     -1.562 -0.1707E-02 -0.1601E-02  0.1563E-01  0.1563E-01
     -1.470 -0.7960E-03 -0.8548E-03  0.1555E-01  0.1555E-01
     -1.378  0.4051E-01  0.4265E-01  0.1929E-01  0.1948E-01
     -1.285  0.9011E-01  0.8791E-01  0.2760E-01  0.2759E-01
     -1.193 -0.2825E-02 -0.2703E-02  0.2734E-01  0.2734E-01
     -1.101 -0.1373E-02 -0.1440E-02  0.2722E-01  0.2721E-01
     -1.009  0.5332E-01  0.5551E-01  0.3214E-01  0.3233E-01
     -0.916  0.1216E+00  0.1193E+00  0.4335E-01  0.4334E-01
     -0.824 -0.4179E-02 -0.4069E-02  0.4297E-01  0.4297E-01
     -0.732 -0.5044E-02 -0.5239E-02  0.4250E-01  0.4249E-01
     -0.640  0.1690E+00  0.1727E+00  0.5810E-01  0.5842E-01
     -0.547  0.9193E-01  0.8835E-01  0.6658E-01  0.6657E-01
     -0.455 -0.3978E-02 -0.3958E-02  0.6621E-01  0.6621E-01
     -0.363  0.7563E-01  0.7741E-01  0.7319E-01  0.7335E-01
     -0.270  0.5468E-01  0.5293E-01  0.7824E-01  0.7823E-01
     -0.178 -0.1230E-02 -0.1170E-02  0.7812E-01  0.7812E-01
     -0.086 -0.4113E-02 -0.4245E-02  0.7775E-01  0.7773E-01
      0.006  0.1455E+00  0.1484E+00  0.9117E-01  0.9143E-01
      0.099  0.1111E+00  0.1082E+00  0.1014E+00  0.1014E+00
      0.191  0.1140E+00  0.1150E+00  0.1119E+00  0.1120E+00
      0.283  0.4639E-01  0.4718E-01  0.1162E+00  0.1164E+00
      0.375  0.2306E+00  0.2288E+00  0.1375E+00  0.1375E+00
      0.468 -0.3840E-02 -0.3109E-02  0.1371E+00  0.1372E+00
      0.560  0.1696E+00  0.1691E+00  0.1528E+00  0.1528E+00
      0.652 -0.4881E-02 -0.5004E-02  0.1523E+00  0.1523E+00
      0.745 -0.7109E-03 -0.7378E-03  0.1523E+00  0.1523E+00
      0.837  0.3184E-01  0.3371E-01  0.1552E+00  0.1554E+00
      0.929  0.4842E+00  0.4830E+00  0.1999E+00  0.2000E+00
      1.021  0.2322E+00  0.2324E+00  0.2213E+00  0.2214E+00
      1.114  0.1167E-01  0.1094E-01  0.2224E+00  0.2224E+00
      1.206  0.1333E+00  0.1344E+00  0.2347E+00  0.2348E+00
      1.298  0.2121E+00  0.2127E+00  0.2543E+00  0.2544E+00
      1.390  0.2856E+00  0.2853E+00  0.2806E+00  0.2808E+00
      1.483  0.1733E+00  0.1720E+00  0.2966E+00  0.2966E+00
      1.575  0.4926E+00  0.4973E+00  0.3421E+00  0.3425E+00
      1.667  0.4995E+00  0.4960E+00  0.3881E+00  0.3883E+00
      1.759  0.2437E+00  0.2436E+00  0.4106E+00  0.4108E+00
      1.852  0.4219E+00  0.4224E+00  0.4496E+00  0.4497E+00
      1.944  0.4880E+00  0.4879E+00  0.4946E+00  0.4947E+00
      2.036  0.4221E+00  0.4207E+00  0.5335E+00  0.5336E+00
      2.129  0.3834E+00  0.3850E+00  0.5689E+00  0.5691E+00
      2.221  0.3308E+00  0.3296E+00  0.5994E+00  0.5995E+00
      2.313  0.5918E-01  0.5951E-01  0.6049E+00  0.6050E+00
      2.405  0.5447E+00  0.5443E+00  0.6552E+00  0.6552E+00
      2.498  0.5274E+00  0.5270E+00  0.7038E+00  0.7038E+00
      2.590  0.4140E+00  0.4159E+00  0.7420E+00  0.7422E+00
      2.682  0.7834E+00  0.7815E+00  0.8143E+00  0.8143E+00
      2.774  0.4031E+00  0.4044E+00  0.8515E+00  0.8516E+00
      2.867  0.2755E+00  0.2750E+00  0.8769E+00  0.8770E+00
      2.959  0.2804E+00  0.2798E+00  0.9028E+00  0.9028E+00
      3.051  0.4598E+00  0.4601E+00  0.9452E+00  0.9453E+00
      3.144  0.4783E+00  0.4784E+00  0.9894E+00  0.9894E+00
      3.236  0.5281E+00  0.5267E+00  0.1038E+01  0.1038E+01
      3.328  0.6798E+00  0.6810E+00  0.1101E+01  0.1101E+01
      3.420  0.5176E+00  0.5176E+00  0.1149E+01  0.1149E+01
      3.513  0.9613E-01  0.9539E-01  0.1157E+01  0.1157E+01
      3.605  0.4653E+00  0.4655E+00  0.1200E+01  0.1200E+01
      3.697  0.3556E+00  0.3555E+00  0.1233E+01  0.1233E+01
      3.789  0.4143E+00  0.4127E+00  0.1271E+01  0.1271E+01
      3.882  0.9242E+00  0.9245E+00  0.1357E+01  0.1357E+01
      3.974  0.3204E+00  0.3217E+00  0.1386E+01  0.1386E+01
      4.066  0.3272E+00  0.3256E+00  0.1416E+01  0.1416E+01
      4.159  0.9542E+00  0.9535E+00  0.1504E+01  0.1504E+01
      4.251  0.5107E+00  0.5116E+00  0.1552E+01  0.1551E+01
      4.343  0.1431E+00  0.1442E+00  0.1565E+01  0.1565E+01
      4.435  0.3661E+00  0.3661E+00  0.1599E+01  0.1599E+01
      4.528  0.3912E+00  0.3895E+00  0.1635E+01  0.1635E+01
      4.620  0.8788E+00  0.8783E+00  0.1716E+01  0.1716E+01
      4.712  0.7240E+00  0.7242E+00  0.1783E+01  0.1782E+01
      4.804  0.1529E+00  0.1546E+00  0.1797E+01  0.1797E+01
      4.897  0.7095E+00  0.7077E+00  0.1862E+01  0.1862E+01
      4.989  0.3363E+00  0.3365E+00  0.1893E+01  0.1893E+01
      5.081  0.8802E+00  0.8799E+00  0.1974E+01  0.1974E+01
      5.174  0.1006E+01  0.1004E+01  0.2067E+01  0.2067E+01
      5.266  0.3795E+00  0.3799E+00  0.2102E+01  0.2102E+01
      5.358  0.1099E+01  0.1099E+01  0.2204E+01  0.2203E+01
      5.450  0.2688E+00  0.2707E+00  0.2228E+01  0.2228E+01
      5.543  0.5778E+00  0.5751E+00  0.2282E+01  0.2281E+01
      5.635  0.1032E+01  0.1028E+01  0.2377E+01  0.2376E+01
      5.727  0.7258E+00  0.7330E+00  0.2444E+01  0.2444E+01
      5.819  0.7191E+00  0.7156E+00  0.2510E+01  0.2510E+01
      5.912  0.2275E+00  0.2320E+00  0.2531E+01  0.2531E+01
      6.004  0.4964E+00  0.4955E+00  0.2577E+01  0.2577E+01
      6.096  0.6924E+00  0.6857E+00  0.2641E+01  0.2640E+01
      6.189  0.5951E+00  0.5975E+00  0.2696E+01  0.2695E+01
      6.281  0.8433E+00  0.8459E+00  0.2774E+01  0.2773E+01
      6.373  0.4074E+00  0.4098E+00  0.2811E+01  0.2811E+01
      6.465  0.4106E+00  0.4029E+00  0.2849E+01  0.2848E+01
      6.558  0.7783E+00  0.7844E+00  0.2921E+01  0.2921E+01
      6.650  0.4918E+00  0.4925E+00  0.2966E+01  0.2966E+01
      6.742  0.9518E+00  0.9475E+00  0.3054E+01  0.3054E+01
      6.834  0.3013E+00  0.3051E+00  0.3082E+01  0.3082E+01
      6.927  0.6546E+00  0.6533E+00  0.3142E+01  0.3142E+01
      7.019  0.4086E+00  0.4085E+00  0.3180E+01  0.3180E+01
      7.111  0.5210E+00  0.5238E+00  0.3228E+01  0.3228E+01
      7.204  0.1503E+00  0.1487E+00  0.3242E+01  0.3242E+01
      7.296  0.4725E+00  0.4750E+00  0.3286E+01  0.3286E+01
      7.388  0.2484E+00  0.2392E+00  0.3309E+01  0.3308E+01
      7.480  0.4991E+00  0.4984E+00  0.3355E+01  0.3354E+01
      7.573  0.5527E+00  0.5614E+00  0.3406E+01  0.3405E+01
      7.665  0.6380E+00  0.6340E+00  0.3464E+01  0.3464E+01
      7.757  0.2169E+00  0.2226E+00  0.3484E+01  0.3484E+01
      7.849  0.1569E+00  0.1519E+00  0.3499E+01  0.3499E+01
      7.942  0.3442E+00  0.3424E+00  0.3531E+01  0.3530E+01
      8.034  0.6865E+00  0.6846E+00  0.3594E+01  0.3593E+01
      8.126  0.7316E+00  0.7327E+00  0.3662E+01  0.3661E+01
      8.219  0.5127E+00  0.5134E+00  0.3709E+01  0.3708E+01
      8.311  0.5761E+00  0.5671E+00  0.3762E+01  0.3761E+01
      8.403  0.8177E+00  0.8332E+00  0.3837E+01  0.3837E+01
      8.495  0.1194E+00  0.1119E+00  0.3848E+01  0.3848E+01
      8.588  0.3973E+00  0.3985E+00  0.3885E+01  0.3885E+01
      8.680  0.5154E+00  0.5193E+00  0.3933E+01  0.3932E+01
      8.772  0.2276E+00  0.2299E+00  0.3954E+01  0.3954E+01
      8.864 -0.1470E-01 -0.1393E-01  0.3952E+01  0.3952E+01
      8.957  0.2741E+00  0.2656E+00  0.3978E+01  0.3977E+01
      9.049  0.3793E+00  0.3817E+00  0.4013E+01  0.4012E+01
      9.141  0.9473E+00  0.9404E+00  0.4100E+01  0.4099E+01
      9.234  0.6128E+00  0.6239E+00  0.4157E+01  0.4156E+01
      9.326  0.3609E+00  0.3549E+00  0.4190E+01  0.4189E+01
      9.418  0.4049E+00  0.4115E+00  0.4227E+01  0.4227E+01
      9.510 -0.1452E-01 -0.1365E-01  0.4226E+01  0.4226E+01
      9.603  0.2098E+00  0.2074E+00  0.4245E+01  0.4245E+01
      9.695  0.2357E+00  0.2310E+00  0.4267E+01  0.4266E+01
      9.787  0.4098E+00  0.4115E+00  0.4305E+01  0.4304E+01
      9.879  0.1625E+00  0.1667E+00  0.4320E+01  0.4320E+01
      9.972  0.2978E+00  0.2946E+00  0.4347E+01  0.4347E+01
     10.064  0.1663E+00  0.1710E+00  0.4363E+01  0.4363E+01
     10.156  0.3665E+00  0.3518E+00  0.4396E+01  0.4395E+01
     10.248  0.1134E+01  0.1145E+01  0.4501E+01  0.4501E+01
     10.341  0.4023E+00  0.3985E+00  0.4538E+01  0.4538E+01
     10.433  0.6567E+00  0.6539E+00  0.4599E+01  0.4598E+01
     10.525  0.3701E+00  0.3805E+00  0.4633E+01  0.4633E+01
     10.618  0.1940E+00  0.1900E+00  0.4651E+01  0.4651E+01
     10.710  0.1768E+00  0.1787E+00  0.4667E+01  0.4667E+01
     10.802  0.1003E-01  0.1074E-01  0.4668E+01  0.4668E+01
     10.894  0.4037E+00  0.4014E+00  0.4705E+01  0.4705E+01
     10.987  0.3969E+00  0.3959E+00  0.4742E+01  0.4742E+01
     11.079  0.3912E+00  0.3899E+00  0.4778E+01  0.4778E+01
     11.171  0.8024E+00  0.7882E+00  0.4852E+01  0.4850E+01
     11.263  0.1541E+01  0.1551E+01  0.4994E+01  0.4993E+01
     11.356  0.2213E+00  0.2229E+00  0.5015E+01  0.5014E+01
     11.448  0.1125E+01  0.1127E+01  0.5119E+01  0.5118E+01
     11.540  0.3490E+00  0.3515E+00  0.5151E+01  0.5150E+01
     11.633  0.2229E+00  0.2236E+00  0.5171E+01  0.5171E+01
     11.725  0.1976E+00  0.1913E+00  0.5190E+01  0.5189E+01
     11.817  0.5489E+00  0.5564E+00  0.5240E+01  0.5240E+01
     11.909  0.3859E+00  0.3762E+00  0.5276E+01  0.5275E+01
     12.002  0.4391E+00  0.4463E+00  0.5316E+01  0.5316E+01
     12.094  0.7074E+00  0.7017E+00  0.5382E+01  0.5381E+01
     12.186  0.6461E+00  0.6477E+00  0.5441E+01  0.5440E+01
     12.278  0.8873E-01  0.9690E-01  0.5449E+01  0.5449E+01
     12.371 -0.2574E-02 -0.2669E-02  0.5449E+01  0.5449E+01
     12.463  0.3460E-01  0.3160E-01  0.5452E+01  0.5452E+01
     12.555  0.2909E+00  0.2896E+00  0.5479E+01  0.5479E+01
     12.648  0.2058E+00  0.1982E+00  0.5498E+01  0.5497E+01
     12.740  0.6165E+00  0.6264E+00  0.5555E+01  0.5555E+01
     12.832 -0.1608E-01 -0.1612E-01  0.5554E+01  0.5553E+01
     12.924  0.8145E+00  0.8060E+00  0.5629E+01  0.5628E+01
     13.017  0.3189E+00  0.3262E+00  0.5658E+01  0.5658E+01
     13.109  0.4080E+00  0.4107E+00  0.5696E+01  0.5696E+01
     13.201 -0.1140E-01 -0.1070E-01  0.5695E+01  0.5695E+01
     13.293  0.1910E+00  0.1842E+00  0.5712E+01  0.5712E+01
     13.386  0.7035E+00  0.7078E+00  0.5777E+01  0.5777E+01
     13.478 -0.6434E-02 -0.3892E-02  0.5777E+01  0.5777E+01
     13.570  0.2052E+00  0.1998E+00  0.5796E+01  0.5795E+01
     13.663  0.3286E+00  0.3268E+00  0.5826E+01  0.5825E+01
     13.755  0.3643E+00  0.3694E+00  0.5860E+01  0.5859E+01
     13.847  0.1404E+00  0.1384E+00  0.5872E+01  0.5872E+01
     13.939  0.4276E+00  0.4282E+00  0.5912E+01  0.5912E+01
     14.032  0.6944E-01  0.7200E-01  0.5918E+01  0.5918E+01
     14.124  0.1268E+00  0.1272E+00  0.5930E+01  0.5930E+01
     14.216 -0.4052E-02 -0.3932E-02  0.5930E+01  0.5930E+01
     14.308 -0.1711E-04 -0.1864E-04  0.5930E+01  0.5930E+01
     14.401 -0.9452E-03 -0.8181E-03  0.5930E+01  0.5930E+01
     14.493  0.5375E-01  0.4740E-01  0.5935E+01  0.5934E+01
     14.585  0.1963E+00  0.2031E+00  0.5953E+01  0.5953E+01
     14.678  0.3445E+00  0.3368E+00  0.5984E+01  0.5984E+01
     14.770  0.3048E+00  0.3120E+00  0.6013E+01  0.6013E+01
     14.862  0.3444E-01  0.3369E-01  0.6016E+01  0.6016E+01
     14.954  0.2197E+00  0.2195E+00  0.6036E+01  0.6036E+01
     15.047  0.2502E+00  0.2507E+00  0.6059E+01  0.6059E+01
     15.139  0.4530E-01  0.4351E-01  0.6063E+01  0.6063E+01
     15.231  0.3180E+00  0.3201E+00  0.6093E+01  0.6093E+01
     15.323  0.1052E+00  0.1014E+00  0.6102E+01  0.6102E+01
     15.416  0.1584E+00  0.1625E+00  0.6117E+01  0.6117E+01
     15.508  0.4055E+00  0.4005E+00  0.6154E+01  0.6154E+01
     15.600  0.4384E+00  0.4415E+00  0.6195E+01  0.6195E+01
     15.693  0.3383E+00  0.3295E+00  0.6226E+01  0.6225E+01
     15.785  0.3021E+00  0.3051E+00  0.6254E+01  0.6253E+01
     15.877  0.3067E+00  0.3145E+00  0.6282E+01  0.6282E+01
     15.969  0.2583E-02  0.1981E-02  0.6282E+01  0.6282E+01
     16.062  0.2631E+00  0.2623E+00  0.6307E+01  0.6307E+01
     16.154  0.1005E+00  0.1013E+00  0.6316E+01  0.6316E+01
     16.246  0.5337E+00  0.5315E+00  0.6365E+01  0.6365E+01
     16.338  0.1022E-01  0.1314E-01  0.6366E+01  0.6366E+01
     16.431  0.3625E+00  0.3470E+00  0.6400E+01  0.6398E+01
     16.523  0.2896E+00  0.3050E+00  0.6426E+01  0.6426E+01
     16.615  0.8675E-01  0.8761E-01  0.6434E+01  0.6434E+01
     16.708  0.3099E+00  0.3044E+00  0.6463E+01  0.6463E+01
     16.800  0.4257E+00  0.4258E+00  0.6502E+01  0.6502E+01
     16.892  0.6239E-01  0.6658E-01  0.6508E+01  0.6508E+01
     16.984 -0.1101E-01 -0.1124E-01  0.6507E+01  0.6507E+01
     17.077  0.2424E+00  0.2399E+00  0.6529E+01  0.6529E+01
     17.169  0.1249E+00  0.1289E+00  0.6541E+01  0.6541E+01
     17.261  0.3703E+00  0.3641E+00  0.6575E+01  0.6575E+01
     17.353  0.1802E+00  0.1801E+00  0.6592E+01  0.6591E+01
     17.446  0.4156E+00  0.4120E+00  0.6630E+01  0.6629E+01
     17.538  0.3206E+00  0.3299E+00  0.6660E+01  0.6660E+01
     17.630  0.3022E+00  0.3003E+00  0.6687E+01  0.6687E+01
     17.723  0.4343E+00  0.4295E+00  0.6728E+01  0.6727E+01
     17.815  0.4450E+00  0.4481E+00  0.6769E+01  0.6768E+01
     17.907  0.1017E-01  0.1314E-01  0.6770E+01  0.6770E+01
     17.999 -0.8625E-03 -0.9562E-03  0.6769E+01  0.6769E+01
     18.092  0.2915E-01  0.3212E-01  0.6772E+01  0.6772E+01
     18.184  0.2322E+00  0.2289E+00  0.6794E+01  0.6794E+01
     18.276  0.5947E-01  0.6499E-01  0.6799E+01  0.6800E+01
     18.368  0.2349E+00  0.2292E+00  0.6821E+01  0.6821E+01
     18.461  0.2567E+00  0.2568E+00  0.6844E+01  0.6844E+01
     18.553 -0.6356E-02 -0.5976E-02  0.6844E+01  0.6844E+01
     18.645  0.3212E+00  0.3193E+00  0.6874E+01  0.6873E+01
     18.737  0.7139E+00  0.7008E+00  0.6939E+01  0.6938E+01
     18.830  0.2832E+00  0.2900E+00  0.6965E+01  0.6965E+01
     18.922  0.4424E+00  0.4431E+00  0.7006E+01  0.7006E+01
     19.014  0.2632E+00  0.2737E+00  0.7031E+01  0.7031E+01
     19.107  0.1224E+00  0.1108E+00  0.7042E+01  0.7041E+01
     19.199  0.5014E+00  0.4982E+00  0.7088E+01  0.7087E+01
     19.291  0.3243E+00  0.4346E+00  0.7118E+01  0.7127E+01
     19.383  0.1033E+02  0.5052E+01  0.8071E+01  0.7593E+01
     19.476  0.1014E+01  0.6335E+01  0.8165E+01  0.8178E+01
     19.568  0.1238E+00 -0.4993E-02  0.8176E+01  0.8177E+01
     19.660  0.1456E+00  0.1538E+00  0.8190E+01  0.8192E+01
     19.752  0.1099E+00  0.8341E-01  0.8200E+01  0.8199E+01
     19.845  0.1597E+00  0.1664E+00  0.8215E+01  0.8215E+01
     19.937  0.1835E+00  0.1761E+00  0.8232E+01  0.8231E+01
     20.029  0.6217E+00  0.6322E+00  0.8289E+01  0.8289E+01
     20.122  0.1970E+00  0.1992E+00  0.8307E+01  0.8308E+01
     20.214  0.4422E+00  0.4334E+00  0.8348E+01  0.8348E+01
     20.306  0.2143E+00  0.2174E+00  0.8368E+01  0.8368E+01
     20.398  0.1908E-01  0.1272E-01  0.8369E+01  0.8369E+01
     20.491  0.7593E+00  0.7701E+00  0.8440E+01  0.8440E+01
     20.583  0.5445E+00  0.5159E+00  0.8490E+01  0.8488E+01
     20.675  0.5855E+00  0.6098E+00  0.8544E+01  0.8544E+01
     20.767  0.1165E+00  0.1142E+00  0.8555E+01  0.8554E+01
     20.860  0.4139E+00  0.4238E+00  0.8593E+01  0.8593E+01
     20.952  0.3622E+00  0.3539E+00  0.8626E+01  0.8626E+01
     21.044  0.2021E-01  0.2277E-01  0.8628E+01  0.8628E+01
     21.137  0.2284E+00  0.2261E+00  0.8649E+01  0.8649E+01
     21.229  0.2234E-01  0.2270E-01  0.8651E+01  0.8651E+01
     21.321  0.2659E+00  0.2667E+00  0.8676E+01  0.8676E+01
     21.413  0.5273E+00  0.6093E+00  0.8724E+01  0.8732E+01
     21.506  0.4061E+00  0.4493E+00  0.8762E+01  0.8773E+01
     21.598  0.2416E+00  0.2483E+00  0.8784E+01  0.8796E+01
     21.690  0.1422E+00  0.1370E+00  0.8797E+01  0.8809E+01
     21.782  0.1929E+00  0.1643E+00  0.8815E+01  0.8824E+01
     21.875  0.1862E+00  0.8311E-01  0.8832E+01  0.8832E+01
     21.967  0.1528E+00  0.1619E+00  0.8846E+01  0.8847E+01
     22.059  0.2014E+00  0.1969E+00  0.8865E+01  0.8865E+01
     22.152  0.1433E+00  0.1423E+00  0.8878E+01  0.8878E+01
     22.244  0.8640E-02  0.8952E-02  0.8879E+01  0.8879E+01
     22.336  0.1229E-01  0.1363E-01  0.8880E+01  0.8880E+01
     22.428  0.2808E+00  0.2776E+00  0.8906E+01  0.8906E+01
     22.521  0.3711E+00  0.3691E+00  0.8940E+01  0.8940E+01
     22.613  0.1964E+00  0.1999E+00  0.8958E+01  0.8958E+01
     22.705  0.7241E-01  0.7272E-01  0.8965E+01  0.8965E+01
     22.797 -0.1629E-02 -0.1661E-02  0.8965E+01  0.8965E+01
     22.890  0.1454E-01  0.1597E-01  0.8966E+01  0.8966E+01
     22.982  0.1299E+00  0.1295E+00  0.8978E+01  0.8978E+01
     23.074  0.2457E+00  0.2447E+00  0.9001E+01  0.9001E+01
     23.167 -0.8884E-02 -0.8927E-02  0.9000E+01  0.9000E+01
     23.259 -0.2123E-04 -0.1993E-04  0.9000E+01  0.9000E+01
     23.351 -0.1754E-10 -0.1577E-10  0.9000E+01  0.9000E+01
     23.443  0.0000E+00  0.0000E+00  0.9000E+01  0.9000E+01
     23.536  0.0000E+00  0.0000E+00  0.9000E+01  0.9000E+01
     23.628  0.0000E+00  0.0000E+00  0.9000E+01  0.9000E+01
     23.720  0.0000E+00  0.0000E+00  0.9000E+01  0.9000E+01
     23.812  0.0000E+00  0.0000E+00  0.9000E+01  0.9000E+01
     23.905  0.0000E+00  0.0000E+00  0.9000E+01  0.9000E+01
     23.997  0.0000E+00  0.0000E+00  0.9000E+01  0.9000E+01
     24.089  0.0000E+00  0.0000E+00  0.9000E+01  0.9000E+01
     24.182  0.0000E+00  0.0000E+00  0.9000E+01  0.9000E+01
     24.274  0.0000E+00  0.0000E+00  0.9000E+01  0.9000E+01
     24.27379571     -3.40772482  301      5.80744939      1.00000000
     -3.408  0.0000E+00  0.0000E+00  0.0000E+00  0.0000E+00  0.0000E+00  0.0000E+00  0.0000E+00  0.0000E+00  0.0000E+00  0.0000E+00  0.0000E+00  0.0000E+00  0.0000E+00  0.0000E+00  0.0000E+00  0.0000E+00  0.0000E+00  0.0000E+00
     -3.315  0.0000E+00  0.0000E+00  0.0000E+00  0.0000E+00  0.0000E+00  0.0000E+00  0.0000E+00  0.0000E+00  0.0000E+00  0.0000E+00  0.0000E+00  0.0000E+00  0.0000E+00  0.0000E+00  0.0000E+00  0.0000E+00  0.0000E+00  0.0000E+00
     -3.223  0.0000E+00  0.0000E+00  0.0000E+00  0.0000E+00  0.0000E+00  0.0000E+00  0.0000E+00  0.0000E+00  0.0000E+00  0.0000E+00  0.0000E+00  0.0000E+00  0.0000E+00  0.0000E+00  0.0000E+00  0.0000E+00  0.0000E+00  0.0000E+00
     -3.131  0.0000E+00  0.0000E+00  0.0000E+00  0.0000E+00  0.0000E+00  0.0000E+00  0.0000E+00  0.0000E+00  0.0000E+00  0.0000E+00  0.0000E+00  0.0000E+00  0.0000E+00  0.0000E+00  0.0000E+00  0.0000E+00  0.0000E+00  0.0000E+00
     -3.039  0.0000E+00  0.0000E+00  0.0000E+00  0.0000E+00  0.0000E+00  0.0000E+00  0.0000E+00  0.0000E+00  0.0000E+00  0.0000E+00  0.0000E+00  0.0000E+00  0.0000E+00  0.0000E+00  0.0000E+00  0.0000E+00  0.0000E+00  0.0000E+00
     -2.946  0.0000E+00  0.0000E+00  0.0000E+00  0.0000E+00  0.0000E+00  0.0000E+00  0.0000E+00  0.0000E+00  0.0000E+00  0.0000E+00  0.0000E+00  0.0000E+00  0.0000E+00  0.0000E+00  0.0000E+00  0.0000E+00  0.0000E+00  0.0000E+00
     -2.854  0.0000E+00  0.0000E+00  0.0000E+00  0.0000E+00  0.0000E+00  0.0000E+00  0.0000E+00  0.0000E+00  0.0000E+00  0.0000E+00  0.0000E+00  0.0000E+00  0.0000E+00  0.0000E+00  0.0000E+00  0.0000E+00  0.0000E+00  0.0000E+00
     -2.762  0.0000E+00  0.0000E+00  0.0000E+00  0.0000E+00  0.0000E+00  0.0000E+00  0.0000E+00  0.0000E+00  0.0000E+00  0.0000E+00  0.0000E+00  0.0000E+00  0.0000E+00  0.0000E+00  0.0000E+00  0.0000E+00  0.0000E+00  0.0000E+00
     -2.670  0.0000E+00  0.0000E+00  0.0000E+00  0.0000E+00  0.0000E+00  0.0000E+00  0.0000E+00  0.0000E+00  0.0000E+00  0.0000E+00  0.0000E+00  0.0000E+00  0.0000E+00  0.0000E+00  0.0000E+00  0.0000E+00  0.0000E+00  0.0000E+00
     -2.577 -0.8843E-33 -0.1358E-32 -0.4157E-35 -0.6389E-35 -0.4157E-35 -0.6389E-35 -0.4157E-35 -0.6389E-35 -0.8731E-37 -0.1343E-36 -0.8729E-37 -0.1343E-36 -0.8779E-46 -0.6357E-51 -0.8729E-37 -0.1343E-36 -0.7954E-47 -0.7003E-52
     -2.485 -0.1311E-20 -0.1833E-20 -0.6165E-23 -0.8624E-23 -0.6165E-23 -0.8624E-23 -0.6165E-23 -0.8624E-23 -0.1295E-24 -0.1813E-24 -0.1295E-24 -0.1813E-24 -0.1302E-33 -0.8580E-39 -0.1295E-24 -0.1813E-24 -0.1180E-34 -0.9452E-40
     -2.393 -0.1900E-11 -0.2414E-11 -0.8931E-14 -0.1136E-13 -0.8931E-14 -0.1136E-13 -0.8931E-14 -0.1136E-13 -0.1876E-15 -0.2388E-15 -0.1875E-15 -0.2388E-15 -0.1886E-24 -0.1130E-29 -0.1876E-15 -0.2388E-15 -0.1709E-25 -0.1245E-30
     -2.300 -0.2536E-05 -0.2921E-05 -0.1192E-07 -0.1375E-07 -0.1192E-07 -0.1375E-07 -0.1192E-07 -0.1375E-07 -0.2504E-09 -0.2890E-09 -0.2503E-09 -0.2890E-09 -0.2518E-18 -0.1368E-23 -0.2504E-09 -0.2890E-09 -0.2281E-19 -0.1507E-24
     -2.208 -0.1236E-02 -0.1222E-02 -0.5809E-05 -0.5750E-05 -0.5809E-05 -0.5750E-05 -0.5809E-05 -0.5750E-05 -0.1220E-06 -0.1209E-06 -0.1220E-06 -0.1209E-06 -0.1227E-15 -0.5721E-21 -0.1220E-06 -0.1209E-06 -0.1111E-16 -0.6302E-22
     -2.116  0.3414E-01  0.3441E-01  0.1605E-03  0.1619E-03  0.1605E-03  0.1619E-03  0.1605E-03  0.1619E-03  0.3371E-05  0.3404E-05  0.3370E-05  0.3404E-05  0.3389E-14  0.1611E-19  0.3370E-05  0.3404E-05  0.3071E-15  0.1775E-20
     -2.024  0.2161E-02  0.1808E-02  0.1016E-04  0.8507E-05  0.1016E-04  0.8507E-05  0.1016E-04  0.8507E-05  0.2134E-06  0.1788E-06  0.2133E-06  0.1788E-06  0.2128E-15 -0.2260E-17  0.2134E-06  0.1788E-06  0.1416E-16 -0.6783E-17
     -1.931 -0.4228E-04 -0.3771E-04 -0.1987E-06 -0.1774E-06 -0.1987E-06 -0.1774E-06 -0.2027E-06 -0.1821E-06 -0.4256E-08 -0.3827E-08 -0.4177E-08 -0.3734E-08 -0.3010E-10 -0.3541E-10 -0.4256E-08 -0.3827E-08 -0.9030E-10 -0.1062E-09
     -1.839 -0.1230E-02 -0.1310E-02 -0.5585E-05 -0.5955E-05 -0.5585E-05 -0.5955E-05 -0.5246E-04 -0.5595E-04 -0.1088E-05 -0.1161E-05 -0.1617E-06 -0.1725E-06 -0.3548E-06 -0.3784E-06 -0.1088E-05 -0.1161E-05 -0.1064E-05 -0.1135E-05
     -1.747  0.5053E-01  0.5250E-01  0.2294E-03  0.2386E-03  0.2294E-03  0.2386E-03  0.2154E-02  0.2241E-02  0.4468E-04  0.4651E-04  0.6639E-05  0.6912E-05  0.1457E-04  0.1516E-04  0.4468E-04  0.4651E-04  0.4372E-04  0.4548E-04
     -1.655  0.5397E-01  0.5180E-01  0.2450E-03  0.2354E-03  0.2450E-03  0.2354E-03  0.2301E-02  0.2212E-02  0.4773E-04  0.4589E-04  0.7091E-05  0.6820E-05  0.1557E-04  0.1496E-04  0.4773E-04  0.4589E-04  0.4670E-04  0.4487E-04
     -1.562 -0.1370E-02 -0.1282E-02 -0.6218E-05 -0.5828E-05 -0.6218E-05 -0.5828E-05 -0.5840E-04 -0.5475E-04 -0.1211E-05 -0.1136E-05 -0.1801E-06 -0.1690E-06 -0.3950E-06 -0.3703E-06 -0.1211E-05 -0.1136E-05 -0.1185E-05 -0.1111E-05
     -1.470 -0.6189E-03 -0.6633E-03 -0.2551E-04 -0.2738E-04 -0.2551E-04 -0.2738E-04 -0.2624E-05 -0.2815E-05 -0.7327E-06 -0.7868E-06 -0.4938E-05 -0.5303E-05 -0.1477E-06 -0.1585E-06 -0.7327E-06 -0.7868E-06 -0.4430E-06 -0.4755E-06
     -1.378  0.3150E-01  0.3310E-01  0.1298E-02  0.1366E-02  0.1298E-02  0.1366E-02  0.1333E-03  0.1402E-03  0.3729E-04  0.3926E-04  0.2514E-03  0.2646E-03  0.7515E-05  0.7908E-05  0.3729E-04  0.3926E-04  0.2254E-04  0.2372E-04
     -1.285  0.7006E-01  0.6822E-01  0.2888E-02  0.2816E-02  0.2888E-02  0.2816E-02  0.2965E-03  0.2890E-03  0.8295E-04  0.8092E-04  0.5592E-03  0.5454E-03  0.1672E-04  0.1630E-04  0.8295E-04  0.8092E-04  0.5015E-04  0.4889E-04
     -1.193 -0.2197E-02 -0.2098E-02 -0.9056E-04 -0.8659E-04 -0.9056E-04 -0.8659E-04 -0.9303E-05 -0.8896E-05 -0.2603E-05 -0.2491E-05 -0.1753E-04 -0.1677E-04 -0.5241E-06 -0.5012E-06 -0.2603E-05 -0.2491E-05 -0.1572E-05 -0.1503E-05
     -1.101 -0.1031E-02 -0.1079E-02 -0.2973E-04 -0.3089E-04 -0.6317E-04 -0.6685E-04 -0.2971E-04 -0.3088E-04 -0.7991E-05 -0.8299E-05 -0.8623E-05 -0.8979E-05 -0.3731E-05 -0.4014E-05 -0.8620E-05 -0.8976E-05 -0.3928E-09 -0.3417E-09
     -1.009  0.4001E-01  0.4157E-01  0.9619E-03  0.9851E-03  0.2910E-02  0.3065E-02  0.9619E-03  0.9851E-03  0.2515E-03  0.2570E-03  0.2882E-03  0.2962E-03  0.2174E-03  0.2322E-03  0.2882E-03  0.2962E-03 -0.1766E-16 -0.4732E-16
     -0.916  0.9110E-01  0.8926E-01  0.7168E-03  0.6929E-03  0.1015E-01  0.9980E-02  0.7168E-03  0.6929E-03  0.1212E-03  0.1159E-03  0.2987E-03  0.2907E-03  0.1052E-02  0.1037E-02  0.2987E-03  0.2907E-03 -0.2063E-15 -0.4860E-15
     -0.824 -0.3131E-02 -0.3043E-02 -0.1972E-04 -0.1895E-04 -0.3606E-03 -0.3514E-03 -0.1978E-04 -0.1901E-04 -0.2670E-05 -0.2527E-05 -0.9068E-05 -0.8768E-05 -0.3804E-04 -0.3711E-04 -0.9069E-05 -0.8769E-05 -0.3312E-08 -0.3713E-08
     -0.732 -0.3657E-02 -0.3791E-02 -0.1423E-03 -0.1477E-03 -0.1363E-04 -0.1411E-04 -0.4255E-03 -0.4418E-03 -0.8072E-04 -0.8385E-04 -0.7700E-05 -0.8000E-05 -0.1512E-04 -0.1570E-04 -0.1196E-04 -0.1242E-04 -0.1680E-04 -0.1744E-04
     -0.640  0.1225E+00  0.1250E+00  0.4771E-02  0.4871E-02  0.4495E-03  0.4589E-03  0.1427E-01  0.1457E-01  0.2707E-02  0.2765E-02  0.2580E-03  0.2637E-03  0.5063E-03  0.5171E-03  0.4008E-03  0.4096E-03  0.5631E-03  0.5753E-03
     -0.547  0.6665E-01  0.6393E-01  0.2595E-02  0.2492E-02  0.2445E-03  0.2347E-03  0.7760E-02  0.7453E-02  0.1472E-02  0.1415E-02  0.1403E-03  0.1349E-03  0.2754E-03  0.2645E-03  0.2180E-03  0.2095E-03  0.3063E-03  0.2943E-03
     -0.455 -0.2826E-02 -0.2804E-02 -0.1016E-03 -0.1006E-03 -0.5305E-04 -0.5469E-04 -0.3173E-03 -0.3146E-03 -0.7345E-04 -0.7353E-04 -0.3020E-04 -0.3115E-04 -0.7497E-05 -0.7256E-05 -0.4753E-04 -0.4904E-04 -0.1175E-04 -0.1162E-04
     -0.363  0.5272E-01  0.5385E-01  0.1747E-02  0.1787E-02  0.1747E-02  0.1787E-02  0.5709E-02  0.5839E-02  0.1566E-02  0.1603E-02  0.9934E-03  0.1017E-02  0.6572E-04  0.6726E-04  0.1566E-02  0.1603E-02  0.1972E-03  0.2018E-03
     -0.270  0.3812E-01  0.3682E-01  0.1263E-02  0.1222E-02  0.1263E-02  0.1222E-02  0.4128E-02  0.3993E-02  0.1132E-02  0.1096E-02  0.7183E-03  0.6954E-03  0.4752E-04  0.4599E-04  0.1132E-02  0.1096E-02  0.1426E-03  0.1380E-03
     -0.178 -0.8571E-03 -0.8142E-03 -0.2844E-04 -0.2706E-04 -0.2845E-04 -0.2707E-04 -0.9276E-04 -0.8822E-04 -0.2545E-04 -0.2422E-04 -0.1617E-04 -0.1540E-04 -0.1072E-05 -0.1021E-05 -0.2545E-04 -0.2422E-04 -0.3206E-05 -0.3051E-05
     -0.086 -0.2753E-02 -0.2836E-02 -0.2198E-03 -0.2258E-03 -0.4029E-03 -0.4164E-03 -0.8245E-05 -0.8512E-05 -0.1201E-04 -0.1236E-04 -0.1278E-03 -0.1315E-03 -0.6266E-04 -0.6522E-04 -0.1504E-04 -0.1551E-04 -0.1031E-04 -0.1059E-04
      0.006  0.9723E-01  0.9896E-01  0.6962E-02  0.7067E-02  0.1517E-01  0.1549E-01  0.3032E-03  0.3093E-03  0.3838E-03  0.3901E-03  0.4070E-02  0.4136E-02  0.2764E-02  0.2837E-02  0.5195E-03  0.5295E-03  0.3244E-03  0.3293E-03
      0.099  0.7376E-01  0.7169E-01  0.2851E-02  0.2740E-02  0.1449E-01  0.1415E-01  0.2117E-03  0.2046E-03  0.3830E-04  0.3114E-04  0.1653E-02  0.1588E-02  0.3808E-02  0.3733E-02  0.2307E-03  0.2198E-03  0.1317E-03  0.1266E-03
      0.191  0.7288E-01  0.7338E-01  0.6896E-02  0.6949E-02  0.6506E-02  0.6566E-02  0.1696E-02  0.1708E-02  0.3871E-02  0.3903E-02  0.6228E-02  0.6279E-02 -0.6697E-04 -0.6407E-04  0.3866E-02  0.3897E-02  0.1724E-03  0.1739E-03
      0.283  0.2959E-01  0.3003E-01  0.1611E-02  0.1597E-02  0.5593E-02  0.5785E-02  0.2670E-03  0.2568E-03  0.5705E-03  0.5461E-03  0.1610E-02  0.1606E-02  0.1199E-02  0.1261E-02  0.5955E-03  0.5723E-03  0.2651E-04  0.2543E-04
      0.375  0.1469E+00  0.1455E+00  0.5495E-02  0.5450E-02  0.3405E-01  0.3376E-01  0.4298E-03  0.4262E-03  0.7154E-03  0.7100E-03  0.6079E-02  0.6033E-02  0.8546E-02  0.8481E-02  0.8939E-03  0.8871E-03  0.3786E-04  0.3757E-04
      0.468 -0.2721E-02 -0.2279E-02 -0.4335E-04 -0.2513E-04 -0.1046E-02 -0.9757E-03  0.1453E-03  0.1616E-03  0.3158E-03  0.3479E-03  0.1205E-03  0.1576E-03 -0.3044E-03 -0.2919E-03  0.3134E-03  0.3486E-03 -0.1421E-05 -0.1406E-05
      0.560  0.1019E+00  0.1014E+00  0.3527E-02  0.3510E-02  0.1848E-01  0.1843E-01  0.3527E-02  0.3510E-02  0.6497E-02  0.6469E-02  0.7589E-02  0.7559E-02  0.3405E-02  0.3399E-02  0.7590E-02  0.7560E-02 -0.1376E-08 -0.1280E-08
      0.652 -0.2921E-02 -0.2990E-02 -0.1083E-03 -0.1100E-03 -0.4997E-03 -0.5165E-03 -0.1083E-03 -0.1100E-03 -0.2043E-03 -0.2071E-03 -0.2329E-03 -0.2368E-03 -0.8917E-04 -0.9265E-04 -0.2329E-03 -0.2368E-03 -0.6810E-10 -0.7359E-10
      0.745 -0.4172E-03 -0.4321E-03 -0.4096E-04 -0.4257E-04 -0.4193E-05 -0.4031E-05 -0.8800E-04 -0.9152E-04 -0.5359E-04 -0.5577E-04 -0.1120E-04 -0.1164E-04 -0.7115E-05 -0.7337E-05 -0.9806E-05 -0.1017E-04 -0.5992E-05 -0.6238E-05
      0.837  0.1897E-01  0.2001E-01  0.2050E-02  0.2154E-02  0.2837E-05  0.6318E-05  0.4301E-02  0.4530E-02  0.2343E-02  0.2491E-02  0.8197E-04  0.1221E-03  0.3359E-03  0.3522E-03  0.5854E-04  0.9352E-04  0.3002E-03  0.3158E-03
      0.929  0.2762E+00  0.2749E+00  0.2450E-01  0.2439E-01  0.8206E-03  0.8162E-03  0.5645E-01  0.5623E-01  0.4069E-01  0.4062E-01  0.1771E-01  0.1773E-01  0.2894E-02  0.2873E-02  0.1558E-01  0.1560E-01  0.3713E-02  0.3700E-02
      1.021  0.1143E+00  0.1142E+00  0.1497E-02  0.1484E-02  0.2298E-01  0.2308E-01  0.6625E-02  0.6584E-02  0.1456E-01  0.1451E-01  0.1587E-01  0.1584E-01  0.2085E-01  0.2096E-01  0.1551E-01  0.1548E-01  0.2607E-03  0.2584E-03
      1.114  0.6194E-02  0.5805E-02 -0.8135E-04 -0.8668E-04  0.3093E-02  0.2975E-02 -0.1251E-03 -0.1373E-03 -0.7723E-03 -0.7811E-03 -0.7930E-03 -0.8049E-03  0.3169E-02  0.3059E-02 -0.7345E-03 -0.7446E-03 -0.9454E-05 -0.1001E-04
      1.206  0.5403E-01  0.5438E-01  0.2609E-02  0.2637E-02  0.1639E-02  0.1657E-02  0.3139E-03  0.3144E-03  0.2334E-01  0.2352E-01  0.2474E-01  0.2494E-01 -0.8871E-03 -0.8975E-03  0.2336E-01  0.2353E-01  0.5188E-04  0.5252E-04