    1    1    1    2
  0.1865462E+02  0.2976920E-09  0.2976920E-09  0.2976920E-09  0.5000000E-15
  1.000000000000000E-004
  CAR 
 unknown system                          
    5   60    9
 
  0.6250000E-01  0.6250000E-01  0.6250000E-01  0.3906250E-02
   1       -2.148209     -2.149474
   2        6.137347      6.137478
   3        6.350205      6.350373
   4        6.350205      6.350373
   5        9.207803      9.209481
   6        9.207803      9.209481
   7       18.652839     18.651100
   8       19.344508     19.383957
   9       22.389352     22.388233
 
  0.1875000E+00  0.6250000E-01  0.6250000E-01  0.1171875E-01
   1       -1.366360     -1.367409
   2        5.543849      5.543894
   3        6.655797      6.656092
   4        6.687869      6.688076
   5        8.628310      8.629778
   6        9.333595      9.335174
   7       19.343141     19.382471
   8       20.026233     20.024649
   9       20.846411     20.844962
 
  0.3125000E+00  0.6250000E-01  0.6250000E-01  0.1171875E-01
   1        0.163983      0.163287
   2        5.007866      5.008062
   3        6.522269      6.522782
   4        6.745216      6.745779
   5        8.981552      8.982623
   6       10.133007     10.134364
   7       18.318204     18.316512
   8       19.346045     19.385470
   9       22.120681     22.120966
 
  0.4375000E+00  0.6250000E-01  0.6250000E-01  0.1171875E-01
   1        1.191605      1.190979
   2        5.642515      5.643389
   3        6.101443      6.102052
   4        6.294327      6.294996
   5       10.585012     10.586132
   6       11.542161     11.543560
   7       16.621331     16.620730
   8       19.235515     19.239930
   9       19.373403     19.407790
 
 -0.4375000E+00  0.6250000E-01  0.6250000E-01  0.1171875E-01
   1        1.339596      1.338947
   2        5.729066      5.729734
   3        6.179556      6.180222
   4        6.476268      6.477502
   5       11.646500     11.647826
   6       11.751537     11.752906
   7       15.814484     15.814622
   8       18.274056     18.272111
   9       19.348285     19.387924
 
 -0.3125000E+00  0.6250000E-01  0.6250000E-01  0.1171875E-01
   1        0.973290      0.972672
   2        5.276375      5.276998
   3        6.157842      6.158411
   4        6.484791      6.485432
   5       10.241912     10.243041
   6       10.915730     10.917062
   7       17.145259     17.144128
   8       19.342471     19.381570
   9       20.244269     20.244712
 
 -0.1875000E+00  0.6250000E-01  0.6250000E-01  0.1171875E-01
   1       -0.367455     -0.368257
   2        5.064700      5.064773
   3        6.678635      6.679099
   4        6.832522      6.832978
   5        8.725595      8.726728
   6        9.679493      9.680945
   7       18.986948     18.985550
   8       19.350251     19.389294
   9       22.038368     22.037845
 
 -0.6250000E-01  0.6250000E-01  0.6250000E-01  0.1171875E-01
   1       -1.745876     -1.747028
   2        5.755517      5.755564
   3        6.566199      6.566409
   4        6.578907      6.579129
   5        8.704020      8.705519
   6        9.378693      9.380391
   7       19.343931     19.383339
   8       19.473597     19.471999
   9       21.617617     21.616077
 
  0.1875000E+00  0.1875000E+00  0.6250000E-01  0.1171875E-01
   1       -0.987424     -0.988364
   2        5.106846      5.106767
   3        6.956190      6.956554
   4        7.033540      7.033864
   5        7.945947      7.947103
   6        9.704731      9.706468
   7       19.343284     19.382670
   8       20.884007     20.882512
   9       21.380570     21.379023
 
  0.3125000E+00  0.1875000E+00  0.6250000E-01  0.2343750E-01
   1        0.308631      0.308030
   2        4.466989      4.466888
   3        6.327220      6.327799
   4        7.599777      7.600347
   5        8.332605      8.333465
   6       10.433920     10.435512
   7       19.339784     19.378818
   8       20.193410     20.192615
   9       23.015545     23.014988
 
  0.4375000E+00  0.1875000E+00  0.6250000E-01  0.2343750E-01
   1        1.675611      1.675227
   2        4.523419      4.523753
   3        5.511887      5.512263
   4        7.247827      7.248644
   5       10.190100     10.191198
   6       11.855963     11.857468
   7       17.573781     17.573869
   8       19.348634     19.388181
   9       20.882137     20.881179
 
 -0.4375000E+00  0.1875000E+00  0.6250000E-01  0.2343750E-01
   1        2.110717      2.110300
   2        4.676630      4.677089
   3        5.961817      5.962682
   4        6.901036      6.901882
   5       11.378854     11.379995
   6       12.915347     12.917016
   7       15.197065     15.197141
   8       19.347157     19.386755
   9       20.001430     19.999883
 
 -0.3125000E+00  0.1875000E+00  0.6250000E-01  0.2343750E-01
   1        1.982175      1.981807
   2        4.863962      4.864502
   3        5.442604      5.443041
   4        6.994878      6.995749
   5       10.168697     10.169645
   6       12.663107     12.664563
   7       16.717416     16.717740
   8       19.347867     19.387456
   9       20.453196     20.451834
 
 -0.1875000E+00  0.1875000E+00  0.6250000E-01  0.2343750E-01
   1        0.861206      0.860728
   2        4.582430      4.582483
   3        5.954268      5.954711
   4        7.481511      7.482337
   5        8.354065      8.354815
   6       11.201440     11.202934
   7       19.253472     19.264600
   8       19.402577     19.430089
   9       22.599421     22.599513
 
 -0.6250000E-01  0.1875000E+00  0.6250000E-01  0.2343750E-01
   1       -0.648319     -0.649176
   2        5.066215      5.066197
   3        6.713450      6.713889
   4        7.058041      7.058360
   5        8.191887      8.193087
   6        9.765913      9.767471
   7       19.341308     19.380457
   8       20.123380     20.121982
   9       21.573978     21.572798
 
  0.3125000E+00  0.3125000E+00  0.6250000E-01  0.1171875E-01
   1        0.996738      0.996317
   2        3.703909      3.703628
   3        6.193724      6.194513
   4        8.575519      8.576178
   5        8.953993      8.954681
   6       10.678978     10.680813
   7       19.341207     19.380487
   8       21.347579     21.348142
   9       22.463015     22.464879
 
  0.4375000E+00  0.3125000E+00  0.6250000E-01  0.2343750E-01
   1        1.887266      1.887020
   2        3.384679      3.384456
   3        5.831908      5.832620
   4        9.119453      9.120617
   5       10.294645     10.295677
   6       11.927029     11.928595
   7       18.407886     18.408856
   8       19.351931     19.391378
   9       20.621839     20.623929
 
 -0.4375000E+00  0.3125000E+00  0.6250000E-01  0.2343750E-01
   1        2.629869      2.629651
   2        3.679785      3.679982
   3        5.622195      5.622851
   4        8.505992      8.507243
   5       11.481041     11.482032
   6       13.878244     13.880124
   7       14.883403     14.883603
   8       19.344214     19.383612
   9       20.573870     20.576024
 
 -0.3125000E+00  0.3125000E+00  0.6250000E-01  0.2343750E-01
   1        3.306250      3.306126
   2        3.867183      3.867552
   3        5.138538      5.139111
   4        8.036146      8.037427
   5       10.397758     10.398415
   6       13.028294     13.028570
   7       17.236684     17.238343
   8       19.323917     19.348428
   9       19.409212     19.426492
 
 -0.1875000E+00  0.3125000E+00  0.6250000E-01  0.2343750E-01
   1        2.390473      2.390346
   2        4.563606      4.563913
   3        4.891365      4.891593
   4        7.620218      7.621384
   5        9.277692      9.278281
   6       12.886086     12.887416
   7       17.709645     17.710258
   8       19.350101     19.389730
   9       21.455790     21.458011
 
 -0.6250000E-01  0.3125000E+00  0.6250000E-01  0.2343750E-01
   1        0.882352      0.881803
   2        4.840896      4.841184
   3        6.075823      6.076315
   4        6.863054      6.863734
   5        9.341752      9.342726
   6       11.010115     11.011548
   7       18.118195     18.117105
   8       19.346830     19.386247
   9       21.404670     21.404960
 
  0.4375000E+00  0.4375000E+00  0.6250000E-01  0.1171875E-01
   1        1.611839      1.611475
   2        2.763338      2.762958
   3        7.372891      7.374432
   4       10.609402     10.610743
   5       11.442489     11.443531
   6       11.726278     11.727855
   7       17.790877     17.792203
   8       18.723508     18.725499
   9       19.335689     19.374163
 
 -0.4375000E+00  0.4375000E+00  0.6250000E-01  0.2343750E-01
   1        1.854585      1.854273
   2        2.850343      2.850063
   3        7.405572      7.407094
   4       10.367804     10.369563
   5       12.083109     12.084022
   6       13.550416     13.552008
   7       15.579351     15.580032
   8       17.764070     17.765979
   9       19.332265     19.369658
 
 -0.3125000E+00  0.4375000E+00  0.6250000E-01  0.2343750E-01
   1        2.617629      2.617414
   2        3.544689      3.544837
   3        6.051030      6.051972
   4        8.942707      8.944107
   5       11.414169     11.414936
   6       13.661389     13.661691
   7       15.693375     15.695321
   8       19.129170     19.133686
   9       19.373088     19.410011
 
 -0.1875000E+00  0.4375000E+00  0.6250000E-01  0.2343750E-01
   1        2.752738      2.752500
   2        4.144398      4.144750
   3        5.580822      5.581557
   4        7.491790      7.492825
   5       10.940804     10.941703
   6       13.352458     13.353370
   7       15.494685     15.495642
   8       19.346331     19.385893
   9       20.801030     20.801440
 
 -0.6250000E-01  0.4375000E+00  0.6250000E-01  0.2343750E-01
   1        1.571620      1.571064
   2        5.317258      5.317896
   3        6.093796      6.094663
   4        6.471589      6.472318
   5       11.103396     11.104594
   6       12.169841     12.171324
   7       16.002666     16.002732
   8       19.131431     19.130077
   9       19.350234     19.389582
 
 -0.4375000E+00 -0.4375000E+00  0.6250000E-01  0.1171875E-01
   1        1.520782      1.520383
   2        2.564822      2.564423
   3        8.298855      8.300905
   4       11.260746     11.262726
   5       12.169055     12.170062
   6       12.533322     12.534472
   7       16.411598     16.412762
   8       17.479520     17.481534
   9       18.810558     18.812333
 
 -0.3125000E+00 -0.4375000E+00  0.6250000E-01  0.2343750E-01
   1        1.951929      1.951654
   2        3.031824      3.031563
   3        6.599499      6.600602
   4        9.930778      9.932328
   5       11.401266     11.402355
   6       12.703222     12.704694
   7       16.724036     16.724837
   8       18.905465     18.907565
   9       19.346121     19.385404
 
 -0.1875000E+00 -0.4375000E+00  0.6250000E-01  0.2343750E-01
   1        2.341897      2.341641
   2        4.050478      4.050756
   3        5.325136      5.325547
   4        7.841956      7.842965
   5       11.165424     11.166666
   6       12.655538     12.657093
   7       16.214651     16.215043
   8       19.347197     19.386764
   9       21.294200     21.292282
 
 -0.3125000E+00 -0.3125000E+00  0.6250000E-01  0.1171875E-01
   1        1.559268      1.558937
   2        3.150609      3.150267
   3        6.415726      6.416762
   4        9.591854      9.592764
   5       10.136112     10.136974
   6       11.219304     11.221126
   7       19.330422     19.368022
   8       19.740775     19.744002
   9       20.550673     20.552667
 
 -0.1875000E+00 -0.3125000E+00  0.6250000E-01  0.2343750E-01
   1        1.286810      1.286455
   2        3.879852      3.879682
   3        5.787045      5.787605
   4        8.288547      8.289396
   5        9.168128      9.168998
   6       11.182435     11.184051
   7       19.332897     19.371009
   8       19.918995     19.920597
   9       22.486501     22.488379
 
 -0.1875000E+00 -0.1875000E+00  0.6250000E-01  0.1171875E-01
   1        0.011382      0.010715
   2        4.380895      4.380701
   3        6.703279      6.704068
   4        7.705823      7.706294
   5        8.031231      8.031838
   6       10.154093     10.155880
   7       19.342549     19.381907
   8       21.411111     21.409742
   9       22.916145     22.915094
 
  0.1875000E+00  0.1875000E+00  0.1875000E+00  0.3906250E-02
   1       -1.021199     -1.022163
   2        5.397693      5.397768
   3        6.703169      6.703486
   4        6.703169      6.703486
   5        9.022749      9.024188
   6        9.022749      9.024188
   7       19.324848     19.351694
   8       19.422445     19.433143
   9       21.198549     21.197521
 
  0.3125000E+00  0.1875000E+00  0.1875000E+00  0.1171875E-01
   1       -0.005792     -0.006489
   2        4.897952      4.897994
   3        6.450305      6.450766
   4        7.221877      7.222327
   5        8.109964      8.111067
   6       10.323791     10.325233
   7       19.328583     19.363848
   8       19.553375     19.556055
   9       22.360189     22.359324
 
  0.4375000E+00  0.1875000E+00  0.1875000E+00  0.1171875E-01
   1        1.589353      1.589038
   2        4.640228      4.640431
   3        5.511845      5.512197
   4        7.365229      7.366268
   5        8.614466      8.615009
   6       12.148766     12.150275
   7       18.585304     18.585416
   8       19.354967     19.394387
   9       21.731253     21.730437
 
 -0.4375000E+00  0.1875000E+00  0.1875000E+00  0.1171875E-01
   1        2.336242      2.335923
   2        4.639064      4.639484
   3        5.610195      5.610926
   4        7.067518      7.068437
   5       10.480975     10.481894
   6       13.035972     13.037085
   7       16.088921     16.089608
   8       19.347303     19.386909
   9       20.630256     20.629131
 
 -0.3125000E+00  0.1875000E+00  0.1875000E+00  0.1171875E-01
   1        2.195805      2.195432
   2        4.405503      4.405956
   3        5.686413      5.687020
   4        7.232522      7.233394
   5       11.753140     11.754463
   6       12.473808     12.475436
   7       15.456090     15.456197
   8       19.346943     19.386517
   9       20.473829     20.472550
 
 -0.1875000E+00  0.1875000E+00  0.1875000E+00  0.1171875E-01
   1        1.429162      1.428791
   2        4.110991      4.111010
   3        5.676580      5.677061
   4        7.661950      7.662726
   5       10.012342     10.013407
   6       11.207038     11.208591
   7       18.677537     18.677817
   8       19.354556     19.393870
   9       21.795222     21.794647
 
  0.3125000E+00  0.3125000E+00  0.1875000E+00  0.1171875E-01
   1        0.509008      0.508422
   2        4.605781      4.605827
   3        6.235973      6.236519
   4        7.145819      7.146424
   5        9.048850      9.049792
   6       10.455923     10.457431
   7       19.000947     19.000395
   8       19.354495     19.393226
   9       22.391535     22.391857
 
  0.4375000E+00  0.3125000E+00  0.1875000E+00  0.2343750E-01
   1        1.798356      1.798115
   2        4.197763      4.197800
   3        5.300907      5.301252
   4        7.954469      7.955552
   5        9.151222      9.151970
   6       12.098086     12.099615
   7       18.632800     18.633324
   8       19.356157     19.395543
   9       21.959595     21.958317
 
 -0.4375000E+00  0.3125000E+00  0.1875000E+00  0.2343750E-01
   1        3.116638      3.116723
   2        4.131009      4.131186
   3        4.619655      4.619910
   4        8.113269      8.114602
   5       10.201538     10.202246
   6       13.280591     13.281481
   7       17.044761     17.045899
   8       19.347512     19.387047
   9       19.988700     19.991128
 
 -0.3125000E+00  0.3125000E+00  0.1875000E+00  0.2343750E-01
   1        3.180682      3.180597
   2        3.781575      3.781838
   3        5.251674      5.252245
   4        7.997440      7.998624
   5       11.074459     11.075159
   6       14.511598     14.513479
   7       14.709118     14.709421
   8       19.344743     19.384183
   9       20.577351     20.579816
 
 -0.1875000E+00  0.3125000E+00  0.1875000E+00  0.2343750E-01
   1        2.471777      2.471689
   2        3.819652      3.819657
   3        5.054521      5.054880
   4        8.609591      8.610950
   5       10.199531     10.200398
   6       12.871046     12.872460
   7       17.360107     17.360847
   8       19.348630     19.388208
   9       20.444252     20.446518
 
  0.4375000E+00  0.4375000E+00  0.1875000E+00  0.1171875E-01
   1        2.057705      2.057441
   2        3.641901      3.641882
   3        5.616705      5.617286
   4        8.358771      8.359758
   5       11.379404     11.380745
   6       11.756810     11.758324
   7       17.205214     17.205809
   8       19.347805     19.387352
   9       21.799518     21.404589
 
 -0.4375000E+00  0.4375000E+00  0.1875000E+00  0.2343750E-01
   1        2.563586      2.563486
   2        3.535700      3.535662
   3        5.557811      5.558450
   4        9.095210      9.096735
   5       11.234502     11.235368
   6       13.658861     13.660190
   7       16.208117     16.209031
   8       18.853822     18.856043
   9       19.349123     19.388592
 
 -0.3125000E+00  0.4375000E+00  0.1875000E+00  0.2343750E-01
   1        3.021950      3.022023
   2        4.133172      4.133383
   3        5.114680      5.115237
   4        8.082353      8.083243
   5       12.018181     12.019059
   6       14.995096     14.995761
   7       15.798855     15.800931
   8       17.437664     17.439601
   9       19.348986     19.388640
 
 -0.1875000E+00  0.4375000E+00  0.1875000E+00  0.2343750E-01
   1        3.240405      3.240545
   2        4.059498      4.059666
   3        4.719280      4.719628
   4        8.310700      8.311947
   5       11.177697     11.178466
   6       13.926614     13.927387
   7       16.416106     16.417662
   8       18.692131     18.694394
   9       19.350117     19.389681
 
 -0.4375000E+00 -0.4375000E+00  0.1875000E+00  0.1171875E-01
   1        2.117181      2.116886
   2        3.116436      3.116328
   3        6.890733      6.892037
   4        9.832905      9.834554
   5       11.756018     11.756918
   6       14.069485     14.070278
   7       14.665114     14.666423
   8       19.311600     19.343481
   9       19.634529     19.595551
 
 -0.3125000E+00 -0.4375000E+00  0.1875000E+00  0.2343750E-01
   1        2.442080      2.441940
   2        3.394952      3.394891
   3        6.234396      6.235389
   4        9.086337      9.087631
   5       12.032183     12.033062
   6       14.647647     14.649264
   7       15.331470     15.332371
   8       17.676809     17.678720
   9       19.347147     19.386645
 
 -0.3125000E+00 -0.3125000E+00  0.1875000E+00  0.1171875E-01
   1        2.188533      2.188261
   2        3.290000      3.289926
   3        6.221725      6.222658
   4        9.158095      9.159367
   5       11.928236     11.929527
   6       12.964391     12.966071
   7       15.509140     15.509512
   8       19.343656     19.383006
   9       20.206735     20.208934
 
  0.3125000E+00  0.3125000E+00  0.3125000E+00  0.3906250E-02
   1        0.495734      0.495056
   2        5.181438      5.181861
   3        6.485687      6.486277
   4        6.485687      6.486277
   5        9.973923      9.975117
   6        9.973923      9.975117
   7       17.463167     17.461479
   8       19.343809     19.383178
   9       21.317543     21.318244
 
  0.4375000E+00  0.3125000E+00  0.3125000E+00  0.1171875E-01
   1        1.386969      1.386489
   2        5.044380      5.044915
   3        5.780624      5.781036
   4        6.743501      6.744271
   5        9.567300      9.568187
   6       11.909195     11.910689
   7       17.538454     17.538064
   8       19.346790     19.386222
   9       20.490045     20.489524
 
 -0.4375000E+00  0.3125000E+00  0.3125000E+00  0.1171875E-01
   1        2.911116      2.911042
   2        4.363325      4.363630
   3        4.960467      4.960923
   4        7.655471      7.656670
   5        9.699411      9.699986
   6       13.073015     13.073754
   7       17.358343     17.359473
   8       19.348628     19.388236
   9       20.408868     20.411244
 
 -0.3125000E+00  0.3125000E+00  0.3125000E+00  0.1171875E-01
   1        2.939398      2.939135
   2        3.765096      3.765490
   3        5.666620      5.667418
   4        8.498099      8.499486
   5       10.835249     10.835972
   6       12.882303     12.882302
   7       16.804005     16.806008
   8       19.205906     19.212161
   9       19.374927     19.410065
 
  0.4375000E+00  0.4375000E+00  0.3125000E+00  0.1171875E-01
   1        1.563983      1.563475
   2        5.004106      5.004726
   3        5.807048      5.807578
   4        6.741879      6.742608
   5       11.127330     11.128637
   6       11.586839     11.588246
   7       16.623815     16.623771
   8       19.345314     19.384486
   9       19.788922     19.788102
 
 -0.4375000E+00  0.4375000E+00  0.3125000E+00  0.2343750E-01
   1        2.622424      2.622203
   2        4.250968      4.251314
   3        5.344987      5.345530
   4        7.504337      7.505375
   5       10.849513     10.850480
   6       13.325943     13.327317
   7       15.682750     15.683311
   8       19.346851     19.386432
   9       21.069408     21.068642
 
 -0.3125000E+00  0.4375000E+00  0.3125000E+00  0.2343750E-01
   1        3.254703      3.254714
   2        3.852251      3.852495
   3        5.171534      5.172120
   4        8.203508      8.204645
   5       11.224836     11.225566
   6       13.755632     13.756085
   7       16.446300     16.448250
   8       18.735866     18.738032
   9       19.353380     19.392881
 
 -0.4375000E+00 -0.4375000E+00  0.3125000E+00  0.1171875E-01
   1        2.718153      2.717873
   2        3.928464      3.928846
   3        5.651744      5.652442
   4        7.888454      7.889541
   5       11.383707     11.384779
   6       13.338929     13.339814
   7       15.140646     15.141586
   8       19.345400     19.384900
   9       20.737788     20.738606
 
  0.4375000E+00  0.4375000E+00  0.4375000E+00  0.3906250E-02
   1        1.155227      1.154543
   2        6.101734      6.102373
   3        6.101734      6.102373
   4        6.240919      6.242158
   5       11.376575     11.377868
   6       11.376575     11.377868
   7       16.173351     16.173072
   8       18.337371     18.335958
   9       19.349854     19.389496
 
 -0.4375000E+00  0.4375000E+00  0.4375000E+00  0.1171875E-01
   1        1.749856      1.749333
   2        5.146450      5.146998
   3        6.230366      6.231405
   4        6.517024      6.517777
   5       11.274722     11.275908
   6       12.541442     12.542939
   7       15.520622     15.520777
   8       19.230834     19.229117
   9       19.347789     19.387366
