       N       E                     dE             d eps       ncg     rms          rms(c)
DAV:   1     0.934585789887E+01    0.93459E+01   -0.21480E+03  2240   0.409E+02
DAV:   2    -0.163227620342E+01   -0.10978E+02   -0.96489E+01  2942   0.625E+01
DAV:   3    -0.182435685875E+01   -0.19208E+00   -0.18954E+00  2499   0.758E+00
DAV:   4    -0.182471615291E+01   -0.35929E-03   -0.35926E-03  3007   0.289E-01
DAV:   5    -0.182471627363E+01   -0.12073E-06   -0.12025E-06  2538   0.462E-03    0.688E+00
DAV:   6    -0.117851375819E+02   -0.99604E+01   -0.47684E+00  2339   0.574E+00    0.489E+00
DAV:   7    -0.113707632947E+02    0.41437E+00   -0.17316E+01  2500   0.824E+00    0.391E+00
DAV:   8    -0.113605906920E+02    0.10173E-01   -0.16536E-02  2954   0.784E-01    0.403E+00
DAV:   9    -0.113474191586E+02    0.13172E-01   -0.59218E-01  2422   0.417E+00    0.299E+00
DAV:  10    -0.116454563502E+02   -0.29804E+00   -0.84591E-01  2561   0.462E+00    0.414E+00
DAV:  11    -0.129768430859E+02   -0.13314E+01   -0.32555E-01  2338   0.255E+00    0.313E+00
DAV:  12    -0.128064928688E+02    0.17035E+00   -0.19484E-02  2303   0.739E-01    0.255E+00
DAV:  13    -0.124939168284E+02    0.31258E+00   -0.60743E-03  2387   0.413E-01    0.200E+00
DAV:  14    -0.118241372200E+02    0.66978E+00   -0.19522E-01  2258   0.166E+00    0.104E+00
DAV:  15    -0.117913041080E+02    0.32833E-01   -0.28011E-03  2582   0.285E-01    0.981E-01
DAV:  16    -0.118054502900E+02   -0.14146E-01   -0.82198E-04  2490   0.127E-01    0.967E-01
DAV:  17    -0.116176099196E+02    0.18784E+00   -0.57679E-02  2343   0.106E+00    0.325E-01
DAV:  18    -0.116164797901E+02    0.11301E-02   -0.71139E-03  2595   0.395E-01    0.107E-01
DAV:  19    -0.116162831338E+02    0.19666E-03   -0.17664E-04  2250   0.711E-02    0.596E-02
DAV:  20    -0.116164399249E+02   -0.15679E-03   -0.37491E-04  2366   0.914E-02    0.520E-02
DAV:  21    -0.116163728819E+02    0.67043E-04   -0.14745E-05  1133   0.184E-02
   1 F= -.11616373E+02 E0= -.11616236E+02  d E =-.409354E-03  mag=     0.0021
