PROCAR lm decomposed
# of k-points:   60         # of bands:   9         # of ions:   1

 k-point    1 :    0.06250000 0.06250000 0.06250000     weight = 0.00390625

band   1 # energy   -2.14820869 # occ.  1.00000000
 
ion      s     py     pz     px    dxy    dyz    dz2    dxz    dx2    tot
  1  0.827  0.004  0.004  0.004  0.000  0.000  0.000  0.000  0.000  0.839
 
band   2 # energy    6.13734667 # occ.  0.00000000
 
ion      s     py     pz     px    dxy    dyz    dz2    dxz    dx2    tot
  1  0.000  0.002  0.002  0.002  0.330  0.330  0.000  0.330  0.000  0.997
 
band   3 # energy    6.35020524 # occ.  0.00000000
 
ion      s     py     pz     px    dxy    dyz    dz2    dxz    dx2    tot
  1  0.000  0.000  0.001  0.001  0.596  0.379  0.001  0.025  0.000  1.002
 
band   4 # energy    6.35020524 # occ.  0.00000000
 
ion      s     py     pz     px    dxy    dyz    dz2    dxz    dx2    tot
  1  0.000  0.001  0.000  0.000  0.070  0.288  0.000  0.642  0.001  1.002
 
band   5 # energy    9.20780267 # occ.  0.00000000
 
ion      s     py     pz     px    dxy    dyz    dz2    dxz    dx2    tot
  1  0.000  0.000  0.000  0.000  0.001  0.000  0.983  0.000  0.004  0.988
 
band   6 # energy    9.20780267 # occ.  0.00000000
 
ion      s     py     pz     px    dxy    dyz    dz2    dxz    dx2    tot
  1  0.000  0.000  0.000  0.000  0.000  0.000  0.004  0.001  0.983  0.988
 
band   7 # energy   18.65283915 # occ.  0.00000000
 
ion      s     py     pz     px    dxy    dyz    dz2    dxz    dx2    tot
  1  0.000  0.000  0.000  0.000  0.005  0.005  0.000  0.005  0.000  0.015
 
band   8 # energy   19.34450826 # occ.  0.00000000
 
ion      s     py     pz     px    dxy    dyz    dz2    dxz    dx2    tot
  1 43.909  0.000  0.000  0.000  0.000  0.000  0.000  0.000  0.000 43.909
 
band   9 # energy   22.38935238 # occ.  0.00000000
 
ion      s     py     pz     px    dxy    dyz    dz2    dxz    dx2    tot
  1  0.040  0.036  0.036  0.036  0.003  0.003  0.000  0.003  0.000  0.156
 

 k-point    2 :    0.18750000 0.06250000 0.06250000     weight = 0.01171875

band   1 # energy   -1.36635967 # occ.  1.00000000
 
ion      s     py     pz     px    dxy    dyz    dz2    dxz    dx2    tot
  1  0.777  0.032  0.032  0.003  0.001  0.006  0.000  0.001  0.001  0.854
 
band   2 # energy    5.54384855 # occ.  1.00000000
 
ion      s     py     pz     px    dxy    dyz    dz2    dxz    dx2    tot
  1  0.000  0.003  0.003  0.025  0.451  0.039  0.000  0.451  0.000  0.973
 
band   3 # energy    6.65579734 # occ.  0.00000000
 
ion      s     py     pz     px    dxy    dyz    dz2    dxz    dx2    tot
  1  0.000  0.010  0.010  0.001  0.021  0.854  0.018  0.021  0.053  0.988
 
band   4 # energy    6.68786859 # occ.  0.00000000
 
ion      s     py     pz     px    dxy    dyz    dz2    dxz    dx2    tot
  1  0.000  0.000  0.000  0.000  0.487  0.000  0.013  0.487  0.004  0.991
 
band   5 # energy    8.62830980 # occ.  0.00000000
 
ion      s     py     pz     px    dxy    dyz    dz2    dxz    dx2    tot
  1  0.000  0.000  0.000  0.000  0.008  0.000  0.709  0.008  0.236  0.963
 
band   6 # energy    9.33359469 # occ.  0.00000000
 
ion      s     py     pz     px    dxy    dyz    dz2    dxz    dx2    tot
  1  0.001  0.001  0.001  0.000  0.001  0.066  0.225  0.001  0.676  0.974
 
band   7 # energy   19.34314059 # occ.  0.00000000
 
ion      s     py     pz     px    dxy    dyz    dz2    dxz    dx2    tot
  1 43.784  0.000  0.000  0.000  0.000  0.000  0.000  0.000  0.000 43.784
 
band   8 # energy   20.02623294 # occ.  0.00000000
 
ion      s     py     pz     px    dxy    dyz    dz2    dxz    dx2    tot
  1  0.061  0.005  0.005  0.003  0.021  0.000  0.001  0.021  0.002  0.120
 
band   9 # energy   20.84641085 # occ.  0.00000000
 
ion      s     py     pz     px    dxy    dyz    dz2    dxz    dx2    tot
  1  0.143  0.030  0.030  0.008  0.022  0.031  0.004  0.022  0.012  0.302
 

 k-point    3 :    0.31250000 0.06250000 0.06250000     weight = 0.01171875

band   1 # energy    0.16398319 # occ.  1.00000000
 
ion      s     py     pz     px    dxy    dyz    dz2    dxz    dx2    tot
  1  0.640  0.059  0.059  0.015  0.033  0.053  0.000  0.033  0.001  0.894
 
band   2 # energy    5.00786617 # occ.  1.00000000
 
ion      s     py     pz     px    dxy    dyz    dz2    dxz    dx2    tot
  1  0.014  0.046  0.046  0.081  0.332  0.085  0.001  0.332  0.002  0.939
 
band   3 # energy    6.52226886 # occ.  0.00000000
 
ion      s     py     pz     px    dxy    dyz    dz2    dxz    dx2    tot
  1  0.000  0.009  0.009  0.002  0.054  0.472  0.092  0.054  0.276  0.969
 
band   4 # energy    6.74521648 # occ.  0.00000000
 
ion      s     py     pz     px    dxy    dyz    dz2    dxz    dx2    tot
  1  0.000  0.000  0.000  0.000  0.288  0.000  0.298  0.288  0.099  0.975
 
band   5 # energy    8.98155153 # occ.  0.00000000
 
ion      s     py     pz     px    dxy    dyz    dz2    dxz    dx2    tot
  1  0.000  0.005  0.005  0.000  0.195  0.000  0.410  0.195  0.137  0.947
 
band   6 # energy   10.13300725 # occ.  0.00000000
 
ion      s     py     pz     px    dxy    dyz    dz2    dxz    dx2    tot
  1  0.005  0.010  0.010  0.001  0.022  0.310  0.145  0.022  0.436  0.960
 
band   7 # energy   18.31820362 # occ.  0.00000000
 
ion      s     py     pz     px    dxy    dyz    dz2    dxz    dx2    tot
  1  0.079  0.024  0.024  0.023  0.010  0.041  0.004  0.010  0.011  0.227
 
band   8 # energy   19.34604483 # occ.  0.00000000
 
ion      s     py     pz     px    dxy    dyz    dz2    dxz    dx2    tot
  1 43.897  0.000  0.000  0.000  0.000  0.000  0.000  0.000  0.000 43.897
 
band   9 # energy   22.12068081 # occ.  0.00000000
 
ion      s     py     pz     px    dxy    dyz    dz2    dxz    dx2    tot
  1  0.172  0.057  0.057  0.050  0.133  0.095  0.000  0.133  0.000  0.697
 

 k-point    4 :    0.43750000 0.06250000 0.06250000     weight = 0.01171875

band   1 # energy    1.19160544 # occ.  1.00000000
 
ion      s     py     pz     px    dxy    dyz    dz2    dxz    dx2    tot
  1  0.421  0.026  0.026  0.001  0.157  0.173  0.000  0.157  0.001  0.961
 
band   2 # energy    5.64251495 # occ.  1.00001596
 
ion      s     py     pz     px    dxy    dyz    dz2    dxz    dx2    tot
  1  0.030  0.170  0.170  0.160  0.058  0.084  0.034  0.058  0.101  0.866
 
band   3 # energy    6.10144294 # occ.  0.00000000
 
ion      s     py     pz     px    dxy    dyz    dz2    dxz    dx2    tot
  1  0.009  0.011  0.011  0.044  0.132  0.220  0.103  0.132  0.310  0.972
 
band   4 # energy    6.29432669 # occ.  0.00000000
 
ion      s     py     pz     px    dxy    dyz    dz2    dxz    dx2    tot
  1  0.000  0.000  0.000  0.000  0.194  0.000  0.438  0.194  0.146  0.973
 
band   5 # energy   10.58501221 # occ.  0.00000000
 
ion      s     py     pz     px    dxy    dyz    dz2    dxz    dx2    tot
  1  0.000  0.005  0.005  0.000  0.291  0.000  0.271  0.291  0.090  0.954
 
band   6 # energy   11.54216107 # occ.  0.00000000
 
ion      s     py     pz     px    dxy    dyz    dz2    dxz    dx2    tot
  1  0.006  0.017  0.017  0.001  0.050  0.421  0.103  0.050  0.308  0.973
 
band   7 # energy   16.62133145 # occ.  0.00000000
 
ion      s     py     pz     px    dxy    dyz    dz2    dxz    dx2    tot
  1  0.256  0.024  0.024  0.021  0.080  0.123  0.002  0.080  0.006  0.617
 
band   8 # energy   19.23551480 # occ.  0.00000000
 
ion      s     py     pz     px    dxy    dyz    dz2    dxz    dx2    tot
  1  7.192  0.041  0.041  0.025  0.049  0.017  0.001  0.049  0.002  7.415
 
band   9 # energy   19.37340268 # occ.  0.00000000
 
ion      s     py     pz     px    dxy    dyz    dz2    dxz    dx2    tot
  1 37.014  0.010  0.010  0.007  0.014  0.006  0.000  0.014  0.000 37.077
 

 k-point    5 :   -0.43750000 0.06250000 0.06250000     weight = 0.01171875

band   1 # energy    1.33959595 # occ.  1.00000000
 
ion      s     py     pz     px    dxy    dyz    dz2    dxz    dx2    tot
  1  0.350  0.000  0.000  0.011  0.201  0.218  0.000  0.201  0.000  0.982
 
band   2 # energy    5.72906552 # occ.  1.02456202
 
ion      s     py     pz     px    dxy    dyz    dz2    dxz    dx2    tot
  1  0.000  0.056  0.056  0.032  0.049  0.117  0.140  0.049  0.420  0.920
 
band   3 # energy    6.17955553 # occ.  0.00000000
 
ion      s     py     pz     px    dxy    dyz    dz2    dxz    dx2    tot
  1  0.000  0.002  0.002  0.000  0.191  0.000  0.442  0.191  0.147  0.975
 
band   4 # energy    6.47626837 # occ.  0.00000000
 
ion      s     py     pz     px    dxy    dyz    dz2    dxz    dx2    tot
  1  0.003  0.197  0.197  0.219  0.021  0.187  0.010  0.021  0.031  0.887
 
band   5 # energy   11.64649981 # occ.  0.00000000
 
ion      s     py     pz     px    dxy    dyz    dz2    dxz    dx2    tot
  1  0.000  0.000  0.000  0.000  0.306  0.000  0.278  0.306  0.093  0.982
 
band   6 # energy   11.75153681 # occ.  0.00000000
 
ion      s     py     pz     px    dxy    dyz    dz2    dxz    dx2    tot
  1  0.000  0.014  0.014  0.031  0.100  0.351  0.089  0.100  0.267  0.966
 
band   7 # energy   15.81448358 # occ.  0.00000000
 
ion      s     py     pz     px    dxy    dyz    dz2    dxz    dx2    tot
  1  0.453  0.001  0.001  0.002  0.167  0.139  0.000  0.167  0.000  0.932
 
band   8 # energy   18.27405635 # occ.  0.00000000
 
ion      s     py     pz     px    dxy    dyz    dz2    dxz    dx2    tot
  1  0.003  0.015  0.015  0.021  0.000  0.019  0.002  0.000  0.006  0.081
 
band   9 # energy   19.34828463 # occ.  0.00000000
 
ion      s     py     pz     px    dxy    dyz    dz2    dxz    dx2    tot
  1 44.135  0.000  0.000  0.000  0.000  0.000  0.000  0.000  0.000 44.135
 

 k-point    6 :   -0.31250000 0.06250000 0.06250000     weight = 0.01171875

band   1 # energy    0.97328983 # occ.  1.00000000
 
ion      s     py     pz     px    dxy    dyz    dz2    dxz    dx2    tot
  1  0.489  0.015  0.015  0.060  0.118  0.121  0.001  0.118  0.003  0.940
 
band   2 # energy    5.27637538 # occ.  1.00000000
 
ion      s     py     pz     px    dxy    dyz    dz2    dxz    dx2    tot
  1  0.037  0.143  0.143  0.119  0.090  0.231  0.010  0.090  0.031  0.892
 
band   3 # energy    6.15784183 # occ.  0.00000000
 
ion      s     py     pz     px    dxy    dyz    dz2    dxz    dx2    tot
  1  0.004  0.001  0.001  0.002  0.066  0.306  0.131  0.066  0.392  0.969
 
band   4 # energy    6.48479085 # occ.  0.00000000
 
ion      s     py     pz     px    dxy    dyz    dz2    dxz    dx2    tot
  1  0.000  0.005  0.005  0.000  0.236  0.000  0.370  0.236  0.123  0.976
 
band   5 # energy   10.24191202 # occ.  0.00000000
 
ion      s     py     pz     px    dxy    dyz    dz2    dxz    dx2    tot
  1  0.005  0.003  0.003  0.038  0.140  0.245  0.093  0.140  0.279  0.947
 
band   6 # energy   10.91573010 # occ.  0.00000000
 
ion      s     py     pz     px    dxy    dyz    dz2    dxz    dx2    tot
  1  0.000  0.005  0.005  0.000  0.245  0.000  0.350  0.245  0.117  0.966
 
band   7 # energy   17.14525946 # occ.  0.00000000
 
ion      s     py     pz     px    dxy    dyz    dz2    dxz    dx2    tot
  1  0.157  0.027  0.027  0.024  0.074  0.033  0.002  0.074  0.005  0.424
 
band   8 # energy   19.34247082 # occ.  0.00000000
 
ion      s     py     pz     px    dxy    dyz    dz2    dxz    dx2    tot
  1 43.550  0.000  0.000  0.000  0.000  0.000  0.000  0.000  0.000 43.551
 
band   9 # energy   20.24426862 # occ.  0.00000000
 
ion      s     py     pz     px    dxy    dyz    dz2    dxz    dx2    tot
  1  0.664  0.058  0.058  0.079  0.070  0.102  0.002  0.070  0.005  1.106
 

 k-point    7 :   -0.18750000 0.06250000 0.06250000     weight = 0.01171875

band   1 # energy   -0.36745547 # occ.  1.00000000
 
ion      s     py     pz     px    dxy    dyz    dz2    dxz    dx2    tot
  1  0.697  0.023  0.023  0.075  0.021  0.013  0.001  0.021  0.003  0.877
 
band   2 # energy    5.06469987 # occ.  1.00000000
 
ion      s     py     pz     px    dxy    dyz    dz2    dxz    dx2    tot
  1  0.006  0.039  0.039  0.020  0.144  0.561  0.000  0.144  0.001  0.953
 
band   3 # energy    6.67863525 # occ.  0.00000000
 
ion      s     py     pz     px    dxy    dyz    dz2    dxz    dx2    tot
  1  0.000  0.002  0.002  0.004  0.192  0.266  0.078  0.192  0.235  0.971
 
band   4 # energy    6.83252155 # occ.  0.00000000
 
ion      s     py     pz     px    dxy    dyz    dz2    dxz    dx2    tot
  1  0.000  0.009  0.009  0.000  0.371  0.000  0.166  0.371  0.055  0.982
 
band   5 # energy    8.72559454 # occ.  0.00000000
 
ion      s     py     pz     px    dxy    dyz    dz2    dxz    dx2    tot
  1  0.004  0.001  0.001  0.015  0.099  0.107  0.156  0.099  0.468  0.950
 
band   6 # energy    9.67949297 # occ.  0.00000000
 
ion      s     py     pz     px    dxy    dyz    dz2    dxz    dx2    tot
  1  0.000  0.003  0.003  0.000  0.107  0.000  0.557  0.107  0.186  0.963
 
band   7 # energy   18.98694769 # occ.  0.00000000
 
ion      s     py     pz     px    dxy    dyz    dz2    dxz    dx2    tot
  1  0.512  0.023  0.023  0.021  0.015  0.001  0.003  0.015  0.010  0.625
 
band   8 # energy   19.35025086 # occ.  0.00000000
 
ion      s     py     pz     px    dxy    dyz    dz2    dxz    dx2    tot
  1 43.460  0.000  0.000  0.000  0.000  0.000  0.000  0.000  0.000 43.461
 
band   9 # energy   22.03836779 # occ.  0.00000000
 
ion      s     py     pz     px    dxy    dyz    dz2    dxz    dx2    tot
  1  0.075  0.023  0.023  0.020  0.077  0.131  0.000  0.077  0.000  0.427
 

 k-point    8 :   -0.06250000 0.06250000 0.06250000     weight = 0.01171875

band   1 # energy   -1.74587582 # occ.  1.00000000
 
ion      s     py     pz     px    dxy    dyz    dz2    dxz    dx2    tot
  1  0.802  0.004  0.004  0.034  0.001  0.000  0.000  0.001  0.001  0.846
 
band   2 # energy    5.75551679 # occ.  1.02868735
 
ion      s     py     pz     px    dxy    dyz    dz2    dxz    dx2    tot
  1  0.000  0.004  0.004  0.001  0.064  0.846  0.000  0.064  0.000  0.983
 
band   3 # energy    6.56619902 # occ.  0.00000000
 
ion      s     py     pz     px    dxy    dyz    dz2    dxz    dx2    tot
  1  0.000  0.004  0.004  0.002  0.421  0.136  0.002  0.421  0.006  0.995
 
band   4 # energy    6.57890723 # occ.  0.00000000
 
ion      s     py     pz     px    dxy    dyz    dz2    dxz    dx2    tot
  1  0.000  0.006  0.006  0.000  0.487  0.000  0.007  0.487  0.002  0.995
 
band   5 # energy    8.70402006 # occ.  0.00000000
 
ion      s     py     pz     px    dxy    dyz    dz2    dxz    dx2    tot
  1  0.001  0.000  0.000  0.001  0.003  0.001  0.240  0.003  0.719  0.967
 
band   6 # energy    9.37869295 # occ.  0.00000000
 
ion      s     py     pz     px    dxy    dyz    dz2    dxz    dx2    tot
  1  0.000  0.000  0.000  0.000  0.005  0.000  0.733  0.005  0.244  0.986
 
band   7 # energy   19.34393110 # occ.  0.00000000
 
ion      s     py     pz     px    dxy    dyz    dz2    dxz    dx2    tot
  1 43.871  0.000  0.000  0.000  0.000  0.000  0.000  0.000  0.000 43.871
 
band   8 # energy   19.47359711 # occ.  0.00000000
 
ion      s     py     pz     px    dxy    dyz    dz2    dxz    dx2    tot
  1  0.011  0.000  0.000  0.000  0.004  0.041  0.000  0.004  0.000  0.060
 
band   9 # energy   21.61761682 # occ.  0.00000000
 
ion      s     py     pz     px    dxy    dyz    dz2    dxz    dx2    tot
  1  0.092  0.020  0.020  0.043  0.008  0.003  0.006  0.008  0.018  0.217
 

 k-point    9 :    0.18750000 0.18750000 0.06250000     weight = 0.01171875

band   1 # energy   -0.98742356 # occ.  1.00000000
 
ion      s     py     pz     px    dxy    dyz    dz2    dxz    dx2    tot
  1  0.749  0.003  0.090  0.003  0.000  0.002  0.010  0.002  0.000  0.859
 
band   2 # energy    5.10684568 # occ.  1.00000000
 
ion      s     py     pz     px    dxy    dyz    dz2    dxz    dx2    tot
  1  0.000  0.004  0.000  0.004  0.922  0.020  0.000  0.020  0.000  0.972
 
band   3 # energy    6.95618952 # occ.  0.00000000
 
ion      s     py     pz     px    dxy    dyz    dz2    dxz    dx2    tot
  1  0.000  0.013  0.001  0.013  0.043  0.397  0.112  0.397  0.000  0.976
 
band   4 # energy    7.03353990 # occ.  0.00000000
 
ion      s     py     pz     px    dxy    dyz    dz2    dxz    dx2    tot
  1  0.000  0.015  0.000  0.015  0.000  0.463  0.000  0.463  0.027  0.983
 
band   5 # energy    7.94594716 # occ.  0.00000000
 
ion      s     py     pz     px    dxy    dyz    dz2    dxz    dx2    tot
  1  0.008  0.002  0.008  0.002  0.005  0.054  0.812  0.054  0.000  0.944
 
band   6 # energy    9.70473123 # occ.  0.00000000
 
ion      s     py     pz     px    dxy    dyz    dz2    dxz    dx2    tot
  1  0.000  0.000  0.000  0.000  0.000  0.013  0.000  0.013  0.956  0.983
 
band   7 # energy   19.34328411 # occ.  0.00000000
 
ion      s     py     pz     px    dxy    dyz    dz2    dxz    dx2    tot
  1 43.841  0.000  0.000  0.000  0.000  0.000  0.000  0.000  0.000 43.841
 
band   8 # energy   20.88400681 # occ.  0.00000000
 
ion      s     py     pz     px    dxy    dyz    dz2    dxz    dx2    tot
  1  0.025  0.003  0.004  0.003  0.078  0.000  0.012  0.000  0.000  0.126
 
band   9 # energy   21.38057016 # occ.  0.00000000
 
ion      s     py     pz     px    dxy    dyz    dz2    dxz    dx2    tot
  1  0.114  0.016  0.025  0.016  0.028  0.018  0.064  0.018  0.000  0.299
 

 k-point   10 :    0.31250000 0.18750000 0.06250000     weight = 0.02343750

band   1 # energy    0.30863109 # occ.  1.00000000
 
ion      s     py     pz     px    dxy    dyz    dz2    dxz    dx2    tot
  1  0.637  0.024  0.148  0.002  0.003  0.026  0.037  0.004  0.000  0.881
 
band   2 # energy    4.46698871 # occ.  1.00000000
 
ion      s     py     pz     px    dxy    dyz    dz2    dxz    dx2    tot
  1  0.001  0.006  0.002  0.036  0.836  0.007  0.002  0.076  0.000  0.965
 
band   3 # energy    6.32721960 # occ.  0.00000000
 
ion      s     py     pz     px    dxy    dyz    dz2    dxz    dx2    tot
  1  0.011  0.020  0.002  0.000  0.018  0.294  0.544  0.013  0.029  0.933
 
band   4 # energy    7.59977657 # occ.  0.00000000
 
ion      s     py     pz     px    dxy    dyz    dz2    dxz    dx2    tot
  1  0.001  0.011  0.005  0.024  0.043  0.161  0.053  0.520  0.147  0.966
 
band   5 # energy    8.33260548 # occ.  0.00000000
 
ion      s     py     pz     px    dxy    dyz    dz2    dxz    dx2    tot
  1  0.010  0.014  0.032  0.013  0.053  0.196  0.255  0.280  0.099  0.952
 
band   6 # energy   10.43391951 # occ.  0.00000000
 
ion      s     py     pz     px    dxy    dyz    dz2    dxz    dx2    tot
  1  0.005  0.011  0.006  0.000  0.000  0.226  0.020  0.011  0.694  0.973
 
band   7 # energy   19.33978433 # occ.  0.00000000
 
ion      s     py     pz     px    dxy    dyz    dz2    dxz    dx2    tot
  1 43.465  0.000  0.000  0.000  0.000  0.000  0.000  0.000  0.000 43.467
 
band   8 # energy   20.19341025 # occ.  0.00000000
 
ion      s     py     pz     px    dxy    dyz    dz2    dxz    dx2    tot
  1  0.536  0.069  0.028  0.016  0.000  0.078  0.066  0.011  0.012  0.817
 
band   9 # energy   23.01554478 # occ.  0.00000000
 
ion      s     py     pz     px    dxy    dyz    dz2    dxz    dx2    tot
  1  0.032  0.030  0.016  0.021  0.186  0.029  0.002  0.056  0.000  0.373
 

 k-point   11 :    0.43750000 0.18750000 0.06250000     weight = 0.02343750

band   1 # energy    1.67561138 # occ.  1.00000000
 
ion      s     py     pz     px    dxy    dyz    dz2    dxz    dx2    tot
  1  0.428  0.022  0.130  0.000  0.123  0.110  0.053  0.064  0.000  0.931
 
band   2 # energy    4.52341915 # occ.  1.00000000
 
ion      s     py     pz     px    dxy    dyz    dz2    dxz    dx2    tot
  1  0.015  0.088  0.046  0.110  0.411  0.027  0.147  0.066  0.006  0.915
 
band   3 # energy    5.51188711 # occ.  1.00000000
 
ion      s     py     pz     px    dxy    dyz    dz2    dxz    dx2    tot
  1  0.030  0.002  0.025  0.007  0.233  0.193  0.411  0.006  0.038  0.945
 
band   4 # energy    7.24782725 # occ.  0.00000000
 
ion      s     py     pz     px    dxy    dyz    dz2    dxz    dx2    tot
  1  0.001  0.013  0.012  0.012  0.021  0.119  0.063  0.272  0.446  0.958
 
band   5 # energy   10.19010047 # occ.  0.00000000
 
ion      s     py     pz     px    dxy    dyz    dz2    dxz    dx2    tot
  1  0.006  0.010  0.064  0.029  0.115  0.014  0.173  0.427  0.102  0.940
 
band   6 # energy   11.85596339 # occ.  0.00000000
 
ion      s     py     pz     px    dxy    dyz    dz2    dxz    dx2    tot
  1  0.020  0.023  0.033  0.003  0.009  0.445  0.058  0.029  0.362  0.983
 
band   7 # energy   17.57378128 # occ.  0.00000000
 
ion      s     py     pz     px    dxy    dyz    dz2    dxz    dx2    tot
  1  0.207  0.086  0.062  0.054  0.035  0.121  0.010  0.094  0.015  0.683
 
band   8 # energy   19.34863405 # occ.  0.00000000
 
ion      s     py     pz     px    dxy    dyz    dz2    dxz    dx2    tot
  1 44.039  0.000  0.000  0.000  0.000  0.000  0.000  0.000  0.000 44.040
 
band   9 # energy   20.88213730 # occ.  0.00000000
 
ion      s     py     pz     px    dxy    dyz    dz2    dxz    dx2    tot
  1  0.119  0.027  0.072  0.013  0.052  0.000  0.087  0.013  0.001  0.385
 

 k-point   12 :   -0.43750000 0.18750000 0.06250000     weight = 0.02343750

band   1 # energy    2.11071652 # occ.  1.00000000
 
ion      s     py     pz     px    dxy    dyz    dz2    dxz    dx2    tot
  1  0.290  0.000  0.047  0.018  0.277  0.198  0.009  0.138  0.001  0.977
 
band   2 # energy    4.67663017 # occ.  1.00000000
 
ion      s     py     pz     px    dxy    dyz    dz2    dxz    dx2    tot
  1  0.000  0.110  0.022  0.057  0.011  0.047  0.555  0.009  0.061  0.871
 
band   3 # energy    5.96181670 # occ. -0.00005683
 
ion      s     py     pz     px    dxy    dyz    dz2    dxz    dx2    tot
  1  0.006  0.081  0.169  0.132  0.330  0.195  0.018  0.006  0.007  0.943
 
band   4 # energy    6.90103557 # occ.  0.00000000
 
ion      s     py     pz     px    dxy    dyz    dz2    dxz    dx2    tot
  1  0.000  0.004  0.012  0.012  0.015  0.061  0.067  0.239  0.547  0.958
 
band   5 # energy   11.37885445 # occ.  0.00000000
 
ion      s     py     pz     px    dxy    dyz    dz2    dxz    dx2    tot
  1  0.013  0.002  0.006  0.000  0.078  0.161  0.048  0.410  0.247  0.965
 
band   6 # energy   12.91534734 # occ.  0.00000000
 
ion      s     py     pz     px    dxy    dyz    dz2    dxz    dx2    tot
  1  0.000  0.050  0.126  0.087  0.178  0.204  0.226  0.002  0.064  0.937
 
band   7 # energy   15.19706485 # occ.  0.00000000
 
ion      s     py     pz     px    dxy    dyz    dz2    dxz    dx2    tot
  1  0.487  0.002  0.000  0.002  0.085  0.130  0.008  0.192  0.010  0.916
 
band   8 # energy   19.34715749 # occ.  0.00000000
 
ion      s     py     pz     px    dxy    dyz    dz2    dxz    dx2    tot
  1 44.087  0.000  0.000  0.000  0.000  0.000  0.000  0.000  0.000 44.087
 
band   9 # energy   20.00143024 # occ.  0.00000000
 
ion      s     py     pz     px    dxy    dyz    dz2    dxz    dx2    tot
  1  0.010  0.001  0.042  0.012  0.035  0.030  0.069  0.002  0.005  0.206
 

 k-point   13 :   -0.31250000 0.18750000 0.06250000     weight = 0.02343750

band   1 # energy    1.98217501 # occ.  1.00000000
 
ion      s     py     pz     px    dxy    dyz    dz2    dxz    dx2    tot
  1  0.369  0.033  0.005  0.085  0.207  0.148  0.003  0.098  0.007  0.955
 
band   2 # energy    4.86396242 # occ.  1.00000000
 
ion      s     py     pz     px    dxy    dyz    dz2    dxz    dx2    tot
  1  0.007  0.127  0.081  0.071  0.067  0.056  0.346  0.039  0.077  0.871
 
band   3 # energy    5.44260399 # occ.  1.00000000
 
ion      s     py     pz     px    dxy    dyz    dz2    dxz    dx2    tot
  1  0.026  0.010  0.099  0.035  0.183  0.363  0.161  0.067  0.017  0.961
 
band   4 # energy    6.99487750 # occ.  0.00000000
 
ion      s     py     pz     px    dxy    dyz    dz2    dxz    dx2    tot
  1  0.000  0.001  0.002  0.023  0.018  0.072  0.069  0.204  0.564  0.955
 
band   5 # energy   10.16869739 # occ.  0.00000000
 
ion      s     py     pz     px    dxy    dyz    dz2    dxz    dx2    tot
  1  0.000  0.000  0.009  0.025  0.001  0.220  0.006  0.432  0.251  0.943
 
band   6 # energy   12.66310717 # occ.  0.00000000
 
ion      s     py     pz     px    dxy    dyz    dz2    dxz    dx2    tot
  1  0.065  0.028  0.014  0.047  0.480  0.013  0.334  0.007  0.000  0.988
 
band   7 # energy   16.71741577 # occ.  0.00000000
 
ion      s     py     pz     px    dxy    dyz    dz2    dxz    dx2    tot
  1  0.290  0.073  0.041  0.068  0.078  0.067  0.064  0.099  0.000  0.781
 
band   8 # energy   19.34786716 # occ.  0.00000000
 
ion      s     py     pz     px    dxy    dyz    dz2    dxz    dx2    tot
  1 44.082  0.000  0.000  0.000  0.000  0.000  0.000  0.000  0.000 44.082
 
band   9 # energy   20.45319572 # occ.  0.00000000
 
ion      s     py     pz     px    dxy    dyz    dz2    dxz    dx2    tot
  1  0.051  0.019  0.014  0.047  0.013  0.042  0.035  0.019  0.015  0.258
 

 k-point   14 :   -0.18750000 0.18750000 0.06250000     weight = 0.02343750

band   1 # energy    0.86120575 # occ.  1.00000000
 
ion      s     py     pz     px    dxy    dyz    dz2    dxz    dx2    tot
  1  0.591  0.062  0.001  0.132  0.075  0.008  0.010  0.007  0.009  0.895
 
band   2 # energy    4.58242953 # occ.  1.00000000
 
ion      s     py     pz     px    dxy    dyz    dz2    dxz    dx2    tot
  1  0.003  0.009  0.089  0.007  0.005  0.630  0.002  0.213  0.001  0.959
 
band   3 # energy    5.95426779 # occ. -0.00013271
 
ion      s     py     pz     px    dxy    dyz    dz2    dxz    dx2    tot
  1  0.003  0.032  0.000  0.004  0.370  0.019  0.393  0.000  0.107  0.928
 
band   4 # energy    7.48151075 # occ.  0.00000000
 
ion      s     py     pz     px    dxy    dyz    dz2    dxz    dx2    tot
  1  0.002  0.002  0.005  0.014  0.051  0.093  0.035  0.269  0.485  0.956
 
band   5 # energy    8.35406497 # occ.  0.00000000
 
ion      s     py     pz     px    dxy    dyz    dz2    dxz    dx2    tot
  1  0.002  0.001  0.008  0.017  0.018  0.176  0.004  0.406  0.318  0.949
 
band   6 # energy   11.20143972 # occ.  0.00000000
 
ion      s     py     pz     px    dxy    dyz    dz2    dxz    dx2    tot
  1  0.021  0.024  0.000  0.024  0.401  0.001  0.495  0.003  0.008  0.977
 
band   7 # energy   19.25347205 # occ.  0.00000000
 
ion      s     py     pz     px    dxy    dyz    dz2    dxz    dx2    tot
  1 15.443  0.049  0.007  0.033  0.070  0.002  0.046  0.005  0.002 15.656
 
band   8 # energy   19.40257692 # occ.  0.00000000
 
ion      s     py     pz     px    dxy    dyz    dz2    dxz    dx2    tot
  1 28.631  0.029  0.005  0.018  0.046  0.001  0.030  0.003  0.001 28.764
 
band   9 # energy   22.59942053 # occ.  0.00000000
 
ion      s     py     pz     px    dxy    dyz    dz2    dxz    dx2    tot
  1  0.136  0.094  0.036  0.095  0.033  0.092  0.013  0.067  0.012  0.578
 

 k-point   15 :   -0.06250000 0.18750000 0.06250000     weight = 0.02343750

band   1 # energy   -0.64831950 # occ.  1.00000000
 
ion      s     py     pz     px    dxy    dyz    dz2    dxz    dx2    tot
  1  0.725  0.028  0.003  0.084  0.016  0.002  0.003  0.002  0.003  0.867
 
band   2 # energy    5.06621515 # occ.  1.00000000
 
ion      s     py     pz     px    dxy    dyz    dz2    dxz    dx2    tot
  1  0.001  0.005  0.034  0.002  0.017  0.726  0.000  0.180  0.000  0.965
 
band   3 # energy    6.71345026 # occ.  0.00000000
 
ion      s     py     pz     px    dxy    dyz    dz2    dxz    dx2    tot
  1  0.000  0.024  0.000  0.006  0.650  0.036  0.193  0.005  0.053  0.967
 
band   4 # energy    7.05804100 # occ.  0.00000000
 
ion      s     py     pz     px    dxy    dyz    dz2    dxz    dx2    tot
  1  0.000  0.002  0.011  0.000  0.035  0.169  0.008  0.696  0.060  0.980
 
band   5 # energy    8.19188693 # occ.  0.00000000
 
ion      s     py     pz     px    dxy    dyz    dz2    dxz    dx2    tot
  1  0.005  0.001  0.001  0.011  0.075  0.025  0.023  0.051  0.759  0.950
 
band   6 # energy    9.76591338 # occ.  0.00000000
 
ion      s     py     pz     px    dxy    dyz    dz2    dxz    dx2    tot
  1  0.003  0.005  0.000  0.003  0.147  0.000  0.734  0.007  0.071  0.971
 
band   7 # energy   19.34130838 # occ.  0.00000000
 
ion      s     py     pz     px    dxy    dyz    dz2    dxz    dx2    tot
  1 43.595  0.000  0.000  0.000  0.000  0.000  0.000  0.000  0.000 43.595
 
band   8 # energy   20.12337996 # occ.  0.00000000
 
ion      s     py     pz     px    dxy    dyz    dz2    dxz    dx2    tot
  1  0.382  0.034  0.010  0.025  0.034  0.001  0.033  0.001  0.011  0.530
 
band   9 # energy   21.57397793 # occ.  0.00000000
 
ion      s     py     pz     px    dxy    dyz    dz2    dxz    dx2    tot
  1  0.026  0.008  0.001  0.006  0.020  0.101  0.004  0.040  0.001  0.207
 

 k-point   16 :    0.31250000 0.31250000 0.06250000     weight = 0.01171875

band   1 # energy    0.99673805 # occ.  1.00000000
 
ion      s     py     pz     px    dxy    dyz    dz2    dxz    dx2    tot
  1  0.506  0.002  0.185  0.002  0.001  0.003  0.183  0.003  0.000  0.884
 
band   2 # energy    3.70390879 # occ.  1.00000000
 
ion      s     py     pz     px    dxy    dyz    dz2    dxz    dx2    tot
  1  0.000  0.004  0.000  0.004  0.960  0.004  0.001  0.004  0.000  0.976
 
band   3 # energy    6.19372414 # occ.  0.00000000
 
ion      s     py     pz     px    dxy    dyz    dz2    dxz    dx2    tot
  1  0.084  0.002  0.108  0.002  0.002  0.034  0.652  0.034  0.000  0.919
 
band   4 # energy    8.57551939 # occ.  0.00000000
 
ion      s     py     pz     px    dxy    dyz    dz2    dxz    dx2    tot
  1  0.000  0.037  0.000  0.037  0.000  0.389  0.000  0.389  0.101  0.953
 
band   5 # energy    8.95399303 # occ.  0.00000000
 
ion      s     py     pz     px    dxy    dyz    dz2    dxz    dx2    tot
  1  0.008  0.039  0.023  0.039  0.010  0.392  0.046  0.392  0.000  0.949
 
band   6 # energy   10.67897793 # occ.  0.00000000
 
ion      s     py     pz     px    dxy    dyz    dz2    dxz    dx2    tot
  1  0.000  0.002  0.000  0.002  0.000  0.049  0.000  0.049  0.877  0.980
 