<?xml version="1.0" encoding="ISO-8859-1"?>
<modeling>
 <generator>
  <i name="program" type="string">vasp </i>
  <i name="version" type="string">5.2.12  </i>
  <i name="subversion" type="string">11Nov11 complex                                                      parallel </i>
  <i name="platform" type="string">LinuxIFC </i>
  <i name="date" type="string">2012 10 17 </i>
  <i name="time" type="string">11:06:50 </i>
 </generator>
 <incar>
  <i type="int" name="ISTART">     0</i>
  <i type="string" name="PREC">accurate</i>
  <i type="int" name="ISPIN">     2</i>
  <i name="ENCUT">    400.00000000</i>
  <v name="MAGMOM">      6.00000000</v>
  <i type="logical" name="LREAL"> F  </i>
  <i type="int" name="ISMEAR">     1</i>
  <i name="SIGMA">      0.05000000</i>
  <i type="logical" name="LORBIT"> F  </i>
 </incar>
 <kpoints>
  <generation param="Monkhorst-Pack">
   <v type="int" name="divisions">       8        8        8 </v>
   <v name="usershift">      0.00000000       0.00000000       0.00000000 </v>
   <v name="genvec1">      0.12500000       0.00000000       0.00000000 </v>
   <v name="genvec2">      0.00000000       0.12500000       0.00000000 </v>
   <v name="genvec3">      0.00000000       0.00000000       0.12500000 </v>
   <v name="shift">      0.50000000       0.50000000       0.50000000 </v>
  </generation>
  <varray name="kpointlist" >
   <v>       0.06250000       0.06250000       0.06250000 </v>
   <v>       0.18750000       0.06250000       0.06250000 </v>
   <v>       0.31250000       0.06250000       0.06250000 </v>
   <v>       0.43750000       0.06250000       0.06250000 </v>
   <v>      -0.43750000       0.06250000       0.06250000 </v>
   <v>      -0.31250000       0.06250000       0.06250000 </v>
   <v>      -0.18750000       0.06250000       0.06250000 </v>
   <v>      -0.06250000       0.06250000       0.06250000 </v>
   <v>       0.18750000       0.18750000       0.06250000 </v>
   <v>       0.31250000       0.18750000       0.06250000 </v>
   <v>       0.43750000       0.18750000       0.06250000 </v>
   <v>      -0.43750000       0.18750000       0.06250000 </v>
   <v>      -0.31250000       0.18750000       0.06250000 </v>
   <v>      -0.18750000       0.18750000       0.06250000 </v>
   <v>      -0.06250000       0.18750000       0.06250000 </v>
   <v>       0.31250000       0.31250000       0.06250000 </v>
   <v>       0.43750000       0.31250000       0.06250000 </v>
   <v>      -0.43750000       0.31250000       0.06250000 </v>
   <v>      -0.31250000       0.31250000       0.06250000 </v>
   <v>      -0.18750000       0.31250000       0.06250000 </v>
   <v>      -0.06250000       0.31250000       0.06250000 </v>
   <v>       0.43750000       0.43750000       0.06250000 </v>
   <v>      -0.43750000       0.43750000       0.06250000 </v>
   <v>      -0.31250000       0.43750000       0.06250000 </v>
   <v>      -0.18750000       0.43750000       0.06250000 </v>
   <v>      -0.06250000       0.43750000       0.06250000 </v>
   <v>      -0.43750000      -0.43750000       0.06250000 </v>
   <v>      -0.31250000      -0.43750000       0.06250000 </v>
   <v>      -0.18750000      -0.43750000       0.06250000 </v>
   <v>      -0.31250000      -0.31250000       0.06250000 </v>
   <v>      -0.18750000      -0.31250000       0.06250000 </v>
   <v>      -0.18750000      -0.18750000       0.06250000 </v>
   <v>       0.18750000       0.18750000       0.18750000 </v>
   <v>       0.31250000       0.18750000       0.18750000 </v>
   <v>       0.43750000       0.18750000       0.18750000 </v>
   <v>      -0.43750000       0.18750000       0.18750000 </v>
   <v>      -0.31250000       0.18750000       0.18750000 </v>
   <v>      -0.18750000       0.18750000       0.18750000 </v>
   <v>       0.31250000       0.31250000       0.18750000 </v>
   <v>       0.43750000       0.31250000       0.18750000 </v>
   <v>      -0.43750000       0.31250000       0.18750000 </v>
   <v>      -0.31250000       0.31250000       0.18750000 </v>
   <v>      -0.18750000       0.31250000       0.18750000 </v>
   <v>       0.43750000       0.43750000       0.18750000 </v>
   <v>      -0.43750000       0.43750000       0.18750000 </v>
   <v>      -0.31250000       0.43750000       0.18750000 </v>
   <v>      -0.18750000       0.43750000       0.18750000 </v>
   <v>      -0.43750000      -0.43750000       0.18750000 </v>
   <v>      -0.31250000      -0.43750000       0.18750000 </v>
   <v>      -0.31250000      -0.31250000       0.18750000 </v>
   <v>       0.31250000       0.31250000       0.31250000 </v>
   <v>       0.43750000       0.31250000       0.31250000 </v>
   <v>      -0.43750000       0.31250000       0.31250000 </v>
   <v>      -0.31250000       0.31250000       0.31250000 </v>
   <v>       0.43750000       0.43750000       0.31250000 </v>
   <v>      -0.43750000       0.43750000       0.31250000 </v>
   <v>      -0.31250000       0.43750000       0.31250000 </v>
   <v>      -0.43750000      -0.43750000       0.31250000 </v>
   <v>       0.43750000       0.43750000       0.43750000 </v>
   <v>      -0.43750000       0.43750000       0.43750000 </v>
  </varray>
  <varray name="weights" >
   <v>       0.00390625 </v>
   <v>       0.01171875 </v>
   <v>       0.01171875 </v>
   <v>       0.01171875 </v>
   <v>       0.01171875 </v>
   <v>       0.01171875 </v>
   <v>       0.01171875 </v>
   <v>       0.01171875 </v>
   <v>       0.01171875 </v>
   <v>       0.02343750 </v>
   <v>       0.02343750 </v>
   <v>       0.02343750 </v>
   <v>       0.02343750 </v>
   <v>       0.02343750 </v>
   <v>       0.02343750 </v>
   <v>       0.01171875 </v>
   <v>       0.02343750 </v>
   <v>       0.02343750 </v>
   <v>       0.02343750 </v>
   <v>       0.02343750 </v>
   <v>       0.02343750 </v>
   <v>       0.01171875 </v>
   <v>       0.02343750 </v>
   <v>       0.02343750 </v>
   <v>       0.02343750 </v>
   <v>       0.02343750 </v>
   <v>       0.01171875 </v>
   <v>       0.02343750 </v>
   <v>       0.02343750 </v>
   <v>       0.01171875 </v>
   <v>       0.02343750 </v>
   <v>       0.01171875 </v>
   <v>       0.00390625 </v>
   <v>       0.01171875 </v>
   <v>       0.01171875 </v>
   <v>       0.01171875 </v>
   <v>       0.01171875 </v>
   <v>       0.01171875 </v>
   <v>       0.01171875 </v>
   <v>       0.02343750 </v>
   <v>       0.02343750 </v>
   <v>       0.02343750 </v>
   <v>       0.02343750 </v>
   <v>       0.01171875 </v>
   <v>       0.02343750 </v>
   <v>       0.02343750 </v>
   <v>       0.02343750 </v>
   <v>       0.01171875 </v>
   <v>       0.02343750 </v>
   <v>       0.01171875 </v>
   <v>       0.00390625 </v>
   <v>       0.01171875 </v>
   <v>       0.01171875 </v>
   <v>       0.01171875 </v>
   <v>       0.01171875 </v>
   <v>       0.02343750 </v>
   <v>       0.02343750 </v>
   <v>       0.01171875 </v>
   <v>       0.00390625 </v>
   <v>       0.01171875 </v>
  </varray>
 </kpoints>
 <parameters>
  <separator name="general" >
   <i type="string" name="SYSTEM">unknown system</i>
   <i type="logical" name="LCOMPAT"> F  </i>
  </separator>
  <separator name="electronic" >
   <i type="string" name="PREC">accura</i>
   <i name="ENMAX">    400.00000000</i>
   <i name="ENAUG">    332.07500000</i>
   <i name="EDIFF">      0.00010000</i>
   <i type="int" name="IALGO">    38</i>
   <i type="int" name="IWAVPR">    10</i>
   <i type="int" name="NBANDS">     9</i>
   <i name="NELECT">      5.00000000</i>
   <i type="int" name="TURBO">     0</i>
   <i type="int" name="IRESTART">     0</i>
   <i type="int" name="NREBOOT">     0</i>
   <i type="int" name="NMIN">     0</i>
   <i name="EREF">      0.00000000</i>
   <separator name="electronic smearing" >
    <i type="int" name="ISMEAR">     1</i>
    <i name="SIGMA">      0.05000000</i>
    <i name="KSPACING">      0.50000000</i>
    <i type="logical" name="KGAMMA"> T  </i>
   </separator>
   <separator name="electronic projectors" >
    <i type="logical" name="LREAL"> F  </i>
    <v name="ROPT">      0.00000000</v>
    <i type="int" name="LMAXPAW">  -100</i>
    <i type="int" name="LMAXMIX">     2</i>
    <i type="logical" name="NLSPLINE"> F  </i>
   </separator>
   <separator name="electronic startup" >
    <i type="int" name="ISTART">     0</i>
    <i type="int" name="ICHARG">     2</i>
    <i type="int" name="INIWAV">     1</i>
   </separator>
   <separator name="electronic spin" >
    <i type="int" name="ISPIN">     2</i>
    <i type="logical" name="LNONCOLLINEAR"> F  </i>
    <v name="MAGMOM">      6.00000000</v>
    <i name="NUPDOWN">     -1.00000000</i>
    <i type="logical" name="LSORBIT"> F  </i>
    <v name="SAXIS">      0.00000000      0.00000000      1.00000000</v>
    <i type="logical" name="LSPIRAL"> F  </i>
    <v name="QSPIRAL">      0.00000000      0.00000000      0.00000000</v>
    <i type="logical" name="LZEROZ"> F  </i>
   </separator>
   <separator name="electronic exchange-correlation" >
    <i type="logical" name="LASPH"> F  </i>
    <i type="logical" name="LMETAGGA"> F  </i>
   </separator>
   <separator name="electronic convergence" >
    <i type="int" name="NELM">    60</i>
    <i type="int" name="NELMDL">    -5</i>
    <i type="int" name="NELMIN">     2</i>
    <i name="ENINI">    400.00000000</i>
    <separator name="electronic convergence detail" >
     <i type="logical" name="LDIAG"> T  </i>
     <i type="logical" name="LSUBROT"> T  </i>
     <i name="WEIMIN">      0.00000000</i>
     <i name="EBREAK">      0.00000278</i>
     <i name="DEPER">      0.30000000</i>
     <i type="int" name="NRMM">     4</i>
     <i name="TIME">      0.40000000</i>
    </separator>
   </separator>
   <separator name="electronic mixer" >
    <i name="AMIX">      0.40000000</i>
    <i name="BMIX">      1.00000000</i>
    <i name="AMIN">      0.10000000</i>
    <i name="AMIX_MAG">      1.60000000</i>
    <i name="BMIX_MAG">      1.00000000</i>
    <separator name="electronic mixer details" >
     <i type="int" name="IMIX">     4</i>
     <i type="int" name="MAXMIX">   -45</i>
     <i name="WC">    100.00000000</i>
     <i type="int" name="INIMIX">     1</i>
     <i type="int" name="MIXPRE">     1</i>
     <i type="int" name="MREMOVE">     5</i>
    </separator>
   </separator>
   <separator name="electronic dipolcorrection" >
    <i type="logical" name="LDIPOL"> F  </i>
    <i type="logical" name="LMONO"> F  </i>
    <i type="int" name="IDIPOL">     0</i>
    <i name="EPSILON">      1.00000000</i>
    <v name="DIPOL">   -100.00000000   -100.00000000   -100.00000000</v>
    <i name="EFIELD">      0.00000000</i>
   </separator>
  </separator>
  <separator name="grids" >
   <i type="int" name="NGX">    20</i>
   <i type="int" name="NGY">    20</i>
   <i type="int" name="NGZ">    20</i>
   <i type="int" name="NGXF">    40</i>
   <i type="int" name="NGYF">    40</i>
   <i type="int" name="NGZF">    40</i>
   <i type="logical" name="ADDGRID"> F  </i>
  </separator>
  <separator name="ionic" >
   <i type="int" name="NSW">     0</i>
   <i type="int" name="IBRION">    -1</i>
   <i type="int" name="ISIF">     2</i>
   <i name="PSTRESS">      0.00000000</i>
   <i name="EDIFFG">      0.00100000</i>
   <i type="int" name="NFREE">     0</i>
   <i name="POTIM">      0.50000000</i>
   <i name="SMASS">     -3.00000000</i>
   <i name="SCALEE">      1.00000000</i>
  </separator>
  <separator name="ionic md" >
   <i name="TEBEG">      0.00010000</i>
   <i name="TEEND">      0.00010000</i>
   <i type="int" name="NBLOCK">     1</i>
   <i type="int" name="KBLOCK">     1</i>
   <i type="int" name="NPACO">   256</i>
   <i name="APACO">     16.00000000</i>
  </separator>
  <separator name="symmetry" >
   <i type="int" name="ISYM">     2</i>
   <i name="SYMPREC">      0.00001000</i>
  </separator>
  <separator name="dos" >
   <i type="logical" name="LORBIT"> F  </i>
   <v name="RWIGS">     -1.00000000</v>
   <i type="int" name="NEDOS">   301</i>
   <i name="EMIN">     10.00000000</i>
   <i name="EMAX">    -10.00000000</i>
   <i name="EFERMI">      0.00000000</i>
  </separator>
  <separator name="writing" >
   <i type="int" name="NWRITE">     2</i>
   <i type="logical" name="LWAVE"> T  </i>
   <i type="logical" name="LCHARG"> T  </i>
   <i type="logical" name="LPARD"> F  </i>
   <i type="logical" name="LVTOT"> F  </i>
   <i type="logical" name="LVHAR"> F  </i>
   <i type="logical" name="LELF"> F  </i>
   <i type="logical" name="LOPTICS"> F  </i>
   <v name="STM">      0.00000000      0.00000000      0.00000000      0.00000000      0.00000000      0.00000000      0.00000000</v>
  </separator>
  <separator name="performance" >
   <i type="int" name="NPAR">     1</i>
   <i type="int" name="NSIM">     4</i>
   <i type="int" name="NBLK">    -1</i>
   <i type="logical" name="LPLANE"> T  </i>
   <i type="logical" name="LSCALAPACK"> F  </i>
   <i type="logical" name="LSCAAWARE"> F  </i>
   <i type="logical" name="LSCALU"> F  </i>
   <i type="logical" name="LASYNC"> F  </i>
   <i type="logical" name="LORBITALREAL"> F  </i>
  </separator>
  <separator name="miscellaneous" >
   <i type="int" name="IDIOT">     3</i>
   <i type="logical" name="LMUSIC"> F  </i>
   <v name="POMASS">    180.94800000</v>
   <v name="DARWINR">      0.00000000</v>
   <v name="DARWINV">      1.00000000</v>
   <i type="logical" name="LCORR"> T  </i>
  </separator>
  <i type="logical" name="GGA_COMPAT"> T  </i>
  <i type="logical" name="LBERRY"> F  </i>
  <i type="int" name="ICORELEVEL">     0</i>
  <i type="logical" name="LDAU"> F  </i>
  <i type="int" name="I_CONSTRAINED_M">     0</i>
  <separator name="electronic exchange-correlation" >
   <i type="string" name="GGA">--</i>
   <i type="int" name="VOSKOWN">     0</i>
   <i type="logical" name="LHFCALC"> F  </i>
   <i type="string" name="PRECFOCK"></i>
   <i type="logical" name="LHFONE"> F  </i>
   <i type="logical" name="LRHFCALC"> F  </i>
   <i type="logical" name="LTHOMAS"> F  </i>
   <i type="logical" name="LMODELHF"> F  </i>
   <i name="ENCUT4O">     -1.00000000</i>
   <i type="int" name="EXXOEP">     0</i>
   <i type="int" name="FOURORBIT">     0</i>
   <i name="AEXX">      0.00000000</i>
   <i name="HFALPHA">      0.00000000</i>
   <i name="ALDAX">      1.00000000</i>
   <i name="AGGAX">      1.00000000</i>
   <i name="ALDAC">      1.00000000</i>
   <i name="AGGAC">      1.00000000</i>
   <i type="int" name="NKREDX">     1</i>
   <i type="int" name="NKREDY">     1</i>
   <i type="int" name="NKREDZ">     1</i>
   <i type="logical" name="SHIFTRED"> F  </i>
   <i type="logical" name="ODDONLY"> F  </i>
   <i type="logical" name="EVENONLY"> F  </i>
   <i type="int" name="LMAXFOCK">     0</i>
   <i type="int" name="NMAXFOCKAE">     0</i>
   <i type="logical" name="LFOCKAEDFT"> F  </i>
   <i name="HFSCREEN">      0.00000000</i>
   <i name="HFSCREENC">      0.00000000</i>
  </separator>
  <separator name="vdW DFT" >
   <i type="logical" name="LUSE_VDW"> F  </i>
   <i name="Zab_VDW">     -0.84910000</i>
   <i name="PARAM1">      0.12340000</i>
   <i name="PARAM2">      1.00000000</i>
   <i name="PARAM3">      0.00000000</i>
  </separator>
  <separator name="model GW" >
   <i type="int" name="MODEL_GW">     0</i>
   <i name="MODEL_EPS0">     11.19276915</i>
   <i name="MODEL_ALPHA">      1.00000000</i>
  </separator>
  <separator name="linear response parameters" >
   <i type="logical" name="LEPSILON"> F  </i>
   <i type="logical" name="LRPA"> F  </i>
   <i type="logical" name="LNABLA"> F  </i>
   <i type="logical" name="LVEL"> F  </i>
   <i type="int" name="KINTER">     0</i>
   <i name="CSHIFT">      0.10000000</i>
   <i name="OMEGAMAX">     -1.00000000</i>
  </separator>
  <separator name="orbital magnetization" >
   <i type="logical" name="NUCIND"> F  </i>
   <v name="MAGPOS">      0.00000000      0.00000000      0.00000000</v>
   <i type="logical" name="LNICSALL"> T  </i>
   <i type="logical" name="ORBITALMAG"> F  </i>
   <i type="logical" name="LMAGBLOCH"> F  </i>
   <i type="logical" name="LCHIMAG"> F  </i>
   <i type="logical" name="LGAUGE"> T  </i>
   <i type="int" name="MAGATOM">     0</i>
   <v name="MAGDIPOL">      0.00000000      0.00000000      0.00000000</v>
   <v name="AVECCONST">      0.00000000      0.00000000      0.00000000</v>
  </separator>
  <separator name="response functions" >
   <i type="logical" name="LADDER"> F  </i>
   <i type="logical" name="LHARTREE"> T  </i>
   <i type="int" name="IBSE">     0</i>
   <i type="logical" name="LTCTE"> F  </i>
   <i type="logical" name="LTETE"> F  </i>
   <i type="logical" name="LFXCEPS"> F  </i>
   <i type="logical" name="L2ORDER"> F  </i>
   <i type="logical" name="LUSEW"> F  </i>
   <i name="ENCUTGW">     -2.00000000</i>
   <i name="ENCUTGWSOFT">     -2.00000000</i>
   <i name="ENCUTLF">     -1.00000000</i>
   <i type="int" name="LMAXMP2">    -1</i>
   <i name="SCISSOR">      0.00000000</i>
   <i type="int" name="NOMEGA">     0</i>
   <i type="int" name="NOMEGAR">     0</i>
   <i type="int" name="NBANDSGW">    -1</i>
   <i type="int" name="NBANDSO">    -1</i>
   <i type="int" name="NBANDSV">    -1</i>
   <i name="OPTEMAX">      0.00000000</i>
   <i type="int" name="NELM">     1</i>
   <i type="int" name="DIM">     3</i>
   <i type="int" name="ANTIRES">     0</i>
   <i name="OMEGAMAX">    -30.00000000</i>
   <i name="OMEGATL">   -200.00000000</i>
   <i type="int" name="OMEGAGRID">     0</i>
   <i name="CSHIFT">     -0.10000000</i>
   <i type="logical" name="SELFENERGY"> F  </i>
   <i type="logical" name="LSPECTRAL"> F  </i>
   <i type="logical" name="ODDONLYGW"> F  </i>
   <i type="logical" name="EVENONLYGW"> F  </i>
   <i type="int" name="NKREDLFX">     1</i>
   <i type="int" name="NKREDLFY">     1</i>
   <i type="int" name="NKREDLFZ">     1</i>
   <i type="int" name="MAXMEM">  1800</i>
   <i type="int" name="TELESCOPE">     0</i>
  </separator>
 </parameters>
 <atominfo>
  <atoms>       1 </atoms>
  <types>       1 </types>
  <array name="atoms" >
   <dimension dim="1">ion</dimension>
   <field type="string">element</field>
   <field type="int">atomtype</field>
   <set>
    <rc><c>Ta</c><c>   1</c></rc>
   </set>
  </array>
  <array name="atomtypes" >
   <dimension dim="1">type</dimension>
   <field type="int">atomspertype</field>
   <field type="string">element</field>
   <field>mass</field>
   <field>valence</field>
   <field type="string">pseudopotential</field>
   <set>
    <rc><c>   1</c><c>Ta</c><c>    180.94800000</c><c>      5.00000000</c><c>  PAW_PBE Ta 17Jan2003                  </c></rc>
   </set>
  </array>
 </atominfo>
 <structure name="initialpos" >
  <crystal>
   <varray name="basis" >
    <v>       0.00000000       2.10500000       2.10500000 </v>
    <v>       2.10500000       0.00000000       2.10500000 </v>
    <v>       2.10500000       2.10500000       0.00000000 </v>
   </varray>
   <i name="volume">     18.65461525 </i>
   <varray name="rec_basis" >
    <v>      -0.23752969       0.23752969       0.23752969 </v>
    <v>       0.23752969      -0.23752969       0.23752969 </v>
    <v>       0.23752969       0.23752969      -0.23752969 </v>
   </varray>
  </crystal>
  <varray name="positions" >
   <v>       0.00000000       0.00000000       0.00000000 </v>
  </varray>
 </structure>
 <calculation>
  <scstep>
   <time name="dav">    2.92    2.92</time>
   <time name="total">    3.17    3.18</time>
   <energy>
    <i name="alphaZ">     29.72710466 </i>
    <i name="ewald">   -196.02445976 </i>
    <i name="hartreedc">     -2.70983790 </i>
    <i name="XCdc">    -60.70384699 </i>
    <i name="pawpsdc">    143.51874798 </i>
    <i name="pawaedc">    -69.33493833 </i>
    <i name="eentropy">     -0.00011488 </i>
    <i name="bandstr">     34.22436174 </i>
    <i name="atom">    130.64884137 </i>
    <i name="e_fr_energy">      9.34585790 </i>
    <i name="e_wo_entrp">      9.34597278 </i>
    <i name="e_0_energy">      9.34589619 </i>
   </energy>
  </scstep>
  <scstep>
   <time name="dav">    3.59    3.59</time>
   <time name="total">    3.59    3.60</time>
   <energy>
    <i name="e_fr_energy">     -1.63227620 </i>
    <i name="e_wo_entrp">     -1.63260595 </i>
    <i name="e_0_energy">     -1.63238612 </i>
   </energy>
  </scstep>
  <scstep>
   <time name="dav">    3.20    3.20</time>
   <time name="total">    3.21    3.23</time>
   <energy>
    <i name="e_fr_energy">     -1.82435686 </i>
    <i name="e_wo_entrp">     -1.82434452 </i>
    <i name="e_0_energy">     -1.82435275 </i>
   </energy>
  </scstep>
  <scstep>
   <time name="dav">    3.68    3.68</time>
   <time name="total">    3.69    3.70</time>
   <energy>
    <i name="e_fr_energy">     -1.82471615 </i>
    <i name="e_wo_entrp">     -1.82470452 </i>
    <i name="e_0_energy">     -1.82471227 </i>
   </energy>
  </scstep>
  <scstep>
   <time name="dav">    3.30    3.30</time>
   <time name="total">    3.51    3.54</time>
   <energy>
    <i name="e_fr_energy">     -1.82471627 </i>
    <i name="e_wo_entrp">     -1.82470464 </i>
    <i name="e_0_energy">     -1.82471240 </i>
   </energy>
  </scstep>
  <scstep>
   <time name="dav">    3.01    3.01</time>
   <time name="total">    3.48    3.49</time>
   <energy>
    <i name="e_fr_energy">    -11.78513758 </i>
    <i name="e_wo_entrp">    -11.78495915 </i>
    <i name="e_0_energy">    -11.78507810 </i>
   </energy>
  </scstep>
  <scstep>
   <time name="dav">    3.20    3.20</time>
   <time name="total">    3.68    3.70</time>
   <energy>
    <i name="e_fr_energy">    -11.37076329 </i>
    <i name="e_wo_entrp">    -11.37060889 </i>
    <i name="e_0_energy">    -11.37071183 </i>
   </energy>
  </scstep>
  <scstep>
   <time name="dav">    3.59    3.59</time>
   <time name="total">    4.07    4.11</time>
   <energy>
    <i name="e_fr_energy">    -11.36059069 </i>
    <i name="e_wo_entrp">    -11.36038531 </i>
    <i name="e_0_energy">    -11.36052223 </i>
   </energy>
  </scstep>
  <scstep>
   <time name="dav">    3.12    3.12</time>
   <time name="total">    3.60    3.62</time>
   <energy>
    <i name="e_fr_energy">    -11.34741916 </i>
    <i name="e_wo_entrp">    -11.34704321 </i>
    <i name="e_0_energy">    -11.34729384 </i>
   </energy>
  </scstep>
  <scstep>
   <time name="dav">    3.24    3.24</time>
   <time name="total">    3.71    3.73</time>
   <energy>
    <i name="e_fr_energy">    -11.64545635 </i>
    <i name="e_wo_entrp">    -11.64561772 </i>
    <i name="e_0_energy">    -11.64551014 </i>
   </energy>
  </scstep>
  <scstep>
   <time name="dav">    3.06    3.06</time>
   <time name="total">    3.54    3.56</time>
   <energy>
    <i name="e_fr_energy">    -12.97684309 </i>
    <i name="e_wo_entrp">    -12.97663286 </i>
    <i name="e_0_energy">    -12.97677301 </i>
   </energy>
  </scstep>
  <scstep>
   <time name="dav">    3.11    3.12</time>
   <time name="total">    3.60    3.62</time>
   <energy>
    <i name="e_fr_energy">    -12.80649287 </i>
    <i name="e_wo_entrp">    -12.80624899 </i>
    <i name="e_0_energy">    -12.80641158 </i>
   </energy>
  </scstep>
  <scstep>
   <time name="dav">    3.13    3.13</time>
   <time name="total">    3.61    3.63</time>
   <energy>
    <i name="e_fr_energy">    -12.49391683 </i>
    <i name="e_wo_entrp">    -12.49369695 </i>
    <i name="e_0_energy">    -12.49384354 </i>
   </energy>
  </scstep>
  <scstep>
   <time name="dav">    2.98    2.98</time>
   <time name="total">    3.45    3.46</time>
   <energy>
    <i name="e_fr_energy">    -11.82413722 </i>
    <i name="e_wo_entrp">    -11.82408678 </i>
    <i name="e_0_energy">    -11.82412041 </i>
   </energy>
  </scstep>
  <scstep>
   <time name="dav">    3.27    3.27</time>
   <time name="total">    3.74    3.75</time>
   <energy>
    <i name="e_fr_energy">    -11.79130411 </i>
    <i name="e_wo_entrp">    -11.79120870 </i>
    <i name="e_0_energy">    -11.79127230 </i>
   </energy>
  </scstep>
  <scstep>
   <time name="dav">    3.20    3.20</time>
   <time name="total">    3.67    3.68</time>
   <energy>
    <i name="e_fr_energy">    -11.80545029 </i>
    <i name="e_wo_entrp">    -11.80531196 </i>
    <i name="e_0_energy">    -11.80540418 </i>
   </energy>
  </scstep>
  <scstep>
   <time name="dav">    3.05    3.05</time>
   <time name="total">    3.52    3.53</time>
   <energy>
    <i name="e_fr_energy">    -11.61760992 </i>
    <i name="e_wo_entrp">    -11.61730769 </i>
    <i name="e_0_energy">    -11.61750918 </i>
   </energy>
  </scstep>
  <scstep>
   <time name="dav">    3.29    3.29</time>
   <time name="total">    3.76    3.78</time>
   <energy>
    <i name="e_fr_energy">    -11.61647979 </i>
    <i name="e_wo_entrp">    -11.61600874 </i>
    <i name="e_0_energy">    -11.61632277 </i>
   </energy>
  </scstep>
  <scstep>
   <time name="dav">    2.97    2.97</time>
   <time name="total">    3.44    3.45</time>
   <energy>
    <i name="e_fr_energy">    -11.61628313 </i>
    <i name="e_wo_entrp">    -11.61584062 </i>
    <i name="e_0_energy">    -11.61613563 </i>
   </energy>
  </scstep>
  <scstep>
   <time name="dav">    3.07    3.07</time>
   <time name="total">    3.54    3.56</time>
   <energy>
    <i name="e_fr_energy">    -11.61643992 </i>
    <i name="e_wo_entrp">    -11.61603684 </i>
    <i name="e_0_energy">    -11.61630556 </i>
   </energy>
  </scstep>
  <scstep>
   <time name="dav">    1.96    1.96</time>
   <time name="total">    2.21    2.32</time>
   <energy>
    <i name="alphaZ">     29.72710466 </i>
    <i name="ewald">   -196.02445976 </i>
    <i name="hartreedc">     -0.68188986 </i>
    <i name="XCdc">    -66.00700233 </i>
    <i name="pawpsdc">    183.15116006 </i>
    <i name="pawaedc">   -109.74568674 </i>
    <i name="eentropy">     -0.00040935 </i>
    <i name="bandstr">     17.31596906 </i>
    <i name="atom">    130.64884137 </i>
    <i name="e_fr_energy">    -11.61637288 </i>
    <i name="e_wo_entrp">    -11.61596353 </i>
    <i name="e_0_energy">    -11.61623643 </i>
   </energy>
  </scstep>
  <parameters_embedded>
   <separator name="dft+d2" >
    <i type="logical" name="LVDW"> F  </i>
   </separator>
  </parameters_embedded>
  <structure>
   <crystal>
    <varray name="basis" >
     <v>       0.00000000       2.10500000       2.10500000 </v>
     <v>       2.10500000       0.00000000       2.10500000 </v>
     <v>       2.10500000       2.10500000       0.00000000 </v>
    </varray>
    <i name="volume">     18.65461525 </i>
    <varray name="rec_basis" >
     <v>      -0.23752969       0.23752969       0.23752969 </v>
     <v>       0.23752969      -0.23752969       0.23752969 </v>
     <v>       0.23752969       0.23752969      -0.23752969 </v>
    </varray>
   </crystal>
   <varray name="positions" >
    <v>       0.00000000       0.00000000       0.00000000 </v>
   </varray>
  </structure>
  <varray name="forces" >
   <v>       0.00000000       0.00000000       0.00000000 </v>
  </varray>
  <varray name="stress" >
   <v>      -0.86523434       0.00000000       0.00000000 </v>
   <v>       0.00000000      -0.86523434       0.00000000 </v>
   <v>       0.00000000       0.00000000      -0.86523434 </v>
  </varray>
  <energy>
   <i name="e_fr_energy">    -11.61637288 </i>
   <i name="e_wo_entrp">    -11.61623643 </i>
   <i name="e_0_energy">     -0.00040935 </i>
  </energy>
  <time name="totalsc">   75.96   76.54</time>
  <eigenvalues>
   <array>
    <dimension dim="1">band</dimension>
    <dimension dim="2">kpoint</dimension>
    <dimension dim="3">spin</dimension>
    <field>eigene</field>
    <field>occ</field>
    <set>
     <set comment="spin 1">
      <set comment="kpoint 1">
       <r>   -2.1482    1.0000 </r>
       <r>    6.1373    0.0000 </r>
       <r>    6.3502    0.0000 </r>
       <r>    6.3502    0.0000 </r>
       <r>    9.2078    0.0000 </r>
       <r>    9.2078    0.0000 </r>
       <r>   18.6528    0.0000 </r>
       <r>   19.3445    0.0000 </r>
       <r>   22.3894    0.0000 </r>
      </set>
      <set comment="kpoint 2">
       <r>   -1.3664    1.0000 </r>
       <r>    5.5438    1.0000 </r>
       <r>    6.6558    0.0000 </r>
       <r>    6.6879    0.0000 </r>
       <r>    8.6283    0.0000 </r>
       <r>    9.3336    0.0000 </r>
       <r>   19.3431    0.0000 </r>
       <r>   20.0262    0.0000 </r>
       <r>   20.8464    0.0000 </r>
      </set>
      <set comment="kpoint 3">
       <r>    0.1640    1.0000 </r>
       <r>    5.0079    1.0000 </r>
       <r>    6.5223    0.0000 </r>
       <r>    6.7452    0.0000 </r>
       <r>    8.9816    0.0000 </r>
       <r>   10.1330    0.0000 </r>
       <r>   18.3182    0.0000 </r>
       <r>   19.3460    0.0000 </r>
       <r>   22.1207    0.0000 </r>
      </set>
      <set comment="kpoint 4">
       <r>    1.1916    1.0000 </r>
       <r>    5.6425    1.0000 </r>
       <r>    6.1014    0.0000 </r>
       <r>    6.2943    0.0000 </r>
       <r>   10.5850    0.0000 </r>
       <r>   11.5422    0.0000 </r>
       <r>   16.6213    0.0000 </r>
       <r>   19.2355    0.0000 </r>
       <r>   19.3734    0.0000 </r>
      </set>
      <set comment="kpoint 5">
       <r>    1.3396    1.0000 </r>
       <r>    5.7291    1.0246 </r>
       <r>    6.1796    0.0000 </r>
       <r>    6.4763    0.0000 </r>
       <r>   11.6465    0.0000 </r>
       <r>   11.7515    0.0000 </r>
       <r>   15.8145    0.0000 </r>
       <r>   18.2741    0.0000 </r>
       <r>   19.3483    0.0000 </r>
      </set>
      <set comment="kpoint 6">
       <r>    0.9733    1.0000 </r>
       <r>    5.2764    1.0000 </r>
       <r>    6.1578    0.0000 </r>
       <r>    6.4848    0.0000 </r>
       <r>   10.2419    0.0000 </r>
       <r>   10.9157    0.0000 </r>
       <r>   17.1453    0.0000 </r>
       <r>   19.3425    0.0000 </r>
       <r>   20.2443    0.0000 </r>
      </set>
      <set comment="kpoint 7">
       <r>   -0.3675    1.0000 </r>
       <r>    5.0647    1.0000 </r>
       <r>    6.6786    0.0000 </r>
       <r>    6.8325    0.0000 </r>
       <r>    8.7256    0.0000 </r>
       <r>    9.6795    0.0000 </r>
       <r>   18.9869    0.0000 </r>
       <r>   19.3503    0.0000 </r>
       <r>   22.0384    0.0000 </r>
      </set>
      <set comment="kpoint 8">
       <r>   -1.7459    1.0000 </r>
       <r>    5.7555    1.0287 </r>
       <r>    6.5662    0.0000 </r>
       <r>    6.5789    0.0000 </r>
       <r>    8.7040    0.0000 </r>
       <r>    9.3787    0.0000 </r>
       <r>   19.3439    0.0000 </r>
       <r>   19.4736    0.0000 </r>
       <r>   21.6176    0.0000 </r>
      </set>
      <set comment="kpoint 9">
       <r>   -0.9874    1.0000 </r>
       <r>    5.1068    1.0000 </r>
       <r>    6.9562    0.0000 </r>
       <r>    7.0335    0.0000 </r>
       <r>    7.9459    0.0000 </r>
       <r>    9.7047    0.0000 </r>
       <r>   19.3433    0.0000 </r>
       <r>   20.8840    0.0000 </r>
       <r>   21.3806    0.0000 </r>
      </set>
      <set comment="kpoint 10">
       <r>    0.3086    1.0000 </r>
       <r>    4.4670    1.0000 </r>
       <r>    6.3272    0.0000 </r>
       <r>    7.5998    0.0000 </r>
       <r>    8.3326    0.0000 </r>
       <r>   10.4339    0.0000 </r>
       <r>   19.3398    0.0000 </r>
       <r>   20.1934    0.0000 </r>
       <r>   23.0155    0.0000 </r>
      </set>
      <set comment="kpoint 11">
       <r>    1.6756    1.0000 </r>
       <r>    4.5234    1.0000 </r>
       <r>    5.5119    1.0000 </r>
       <r>    7.2478    0.0000 </r>
       <r>   10.1901    0.0000 </r>
       <r>   11.8560    0.0000 </r>
       <r>   17.5738    0.0000 </r>
       <r>   19.3486    0.0000 </r>
       <r>   20.8821    0.0000 </r>
      </set>
      <set comment="kpoint 12">
       <r>    2.1107    1.0000 </r>
       <r>    4.6766    1.0000 </r>
       <r>    5.9618   -0.0001 </r>
       <r>    6.9010    0.0000 </r>
       <r>   11.3789    0.0000 </r>
       <r>   12.9153    0.0000 </r>
       <r>   15.1971    0.0000 </r>
       <r>   19.3472    0.0000 </r>
       <r>   20.0014    0.0000 </r>
      </set>
      <set comment="kpoint 13">
       <r>    1.9822    1.0000 </r>
       <r>    4.8640    1.0000 </r>
       <r>    5.4426    1.0000 </r>
       <r>    6.9949    0.0000 </r>
       <r>   10.1687    0.0000 </r>
       <r>   12.6631    0.0000 </r>
       <r>   16.7174    0.0000 </r>
       <r>   19.3479    0.0000 </r>
       <r>   20.4532    0.0000 </r>
      </set>
      <set comment="kpoint 14">
       <r>    0.8612    1.0000 </r>
       <r>    4.5824    1.0000 </r>
       <r>    5.9543   -0.0001 </r>
       <r>    7.4815    0.0000 </r>
       <r>    8.3541    0.0000 </r>
       <r>   11.2014    0.0000 </r>
       <r>   19.2535    0.0000 </r>
       <r>   19.4026    0.0000 </r>
       <r>   22.5994    0.0000 </r>
      </set>
      <set comment="kpoint 15">
       <r>   -0.6483    1.0000 </r>
       <r>    5.0662    1.0000 </r>
       <r>    6.7135    0.0000 </r>
       <r>    7.0580    0.0000 </r>
       <r>    8.1919    0.0000 </r>
       <r>    9.7659    0.0000 </r>
       <r>   19.3413    0.0000 </r>
       <r>   20.1234    0.0000 </r>
       <r>   21.5740    0.0000 </r>
      </set>
      <set comment="kpoint 16">
       <r>    0.9967    1.0000 </r>
       <r>    3.7039    1.0000 </r>
       <r>    6.1937    0.0000 </r>
       <r>    8.5755    0.0000 </r>
       <r>    8.9540    0.0000 </r>
       <r>   10.6790    0.0000 </r>
       <r>   19.3412    0.0000 </r>
       <r>   21.3476    0.0000 </r>
       <r>   22.4630    0.0000 </r>
      </set>
      <set comment="kpoint 17">
       <r>    1.8873    1.0000 </r>
       <r>    3.3847    1.0000 </r>
       <r>    5.8319    0.1359 </r>
       <r>    9.1195    0.0000 </r>
       <r>   10.2946    0.0000 </r>
       <r>   11.9270    0.0000 </r>
       <r>   18.4079    0.0000 </r>
       <r>   19.3519    0.0000 </r>
       <r>   20.6218    0.0000 </r>
      </set>
      <set comment="kpoint 18">
       <r>    2.6299    1.0000 </r>
       <r>    3.6798    1.0000 </r>
       <r>    5.6222    1.0000 </r>
       <r>    8.5060    0.0000 </r>
       <r>   11.4810    0.0000 </r>
       <r>   13.8782    0.0000 </r>
       <r>   14.8834    0.0000 </r>
       <r>   19.3442    0.0000 </r>
       <r>   20.5739    0.0000 </r>
      </set>
      <set comment="kpoint 19">
       <r>    3.3062    1.0000 </r>
       <r>    3.8672    1.0000 </r>
       <r>    5.1385    1.0000 </r>
       <r>    8.0361    0.0000 </r>
       <r>   10.3978    0.0000 </r>
       <r>   13.0283    0.0000 </r>
       <r>   17.2367    0.0000 </r>
       <r>   19.3239    0.0000 </r>
       <r>   19.4092    0.0000 </r>
      </set>
      <set comment="kpoint 20">
       <r>    2.3905    1.0000 </r>
       <r>    4.5636    1.0000 </r>
       <r>    4.8914    1.0000 </r>
       <r>    7.6202    0.0000 </r>
       <r>    9.2777    0.0000 </r>
       <r>   12.8861    0.0000 </r>
       <r>   17.7096    0.0000 </r>
       <r>   19.3501    0.0000 </r>
       <r>   21.4558    0.0000 </r>
      </set>
      <set comment="kpoint 21">
       <r>    0.8824    1.0000 </r>
       <r>    4.8409    1.0000 </r>
       <r>    6.0758    0.0000 </r>
       <r>    6.8631    0.0000 </r>
       <r>    9.3418    0.0000 </r>
       <r>   11.0101    0.0000 </r>
       <r>   18.1182    0.0000 </r>
       <r>   19.3468    0.0000 </r>
       <r>   21.4047    0.0000 </r>
      </set>
      <set comment="kpoint 22">
       <r>    1.6118    1.0000 </r>
       <r>    2.7633    1.0000 </r>
       <r>    7.3729    0.0000 </r>
       <r>   10.6094    0.0000 </r>
       <r>   11.4425    0.0000 </r>
       <r>   11.7263    0.0000 </r>
       <r>   17.7909    0.0000 </r>
       <r>   18.7235    0.0000 </r>
       <r>   19.3357    0.0000 </r>
      </set>
      <set comment="kpoint 23">
       <r>    1.8546    1.0000 </r>
       <r>    2.8503    1.0000 </r>
       <r>    7.4056    0.0000 </r>
       <r>   10.3678    0.0000 </r>
       <r>   12.0831    0.0000 </r>
       <r>   13.5504    0.0000 </r>
       <r>   15.5794    0.0000 </r>
       <r>   17.7641    0.0000 </r>
       <r>   19.3323    0.0000 </r>
      </set>
      <set comment="kpoint 24">
       <r>    2.6176    1.0000 </r>
       <r>    3.5447    1.0000 </r>
       <r>    6.0510    0.0000 </r>
       <r>    8.9427    0.0000 </r>
       <r>   11.4142    0.0000 </r>
       <r>   13.6614    0.0000 </r>
       <r>   15.6934    0.0000 </r>
       <r>   19.1292    0.0000 </r>
       <r>   19.3731    0.0000 </r>
      </set>
      <set comment="kpoint 25">
       <r>    2.7527    1.0000 </r>
       <r>    4.1444    1.0000 </r>
       <r>    5.5808    1.0000 </r>
       <r>    7.4918    0.0000 </r>
       <r>   10.9408    0.0000 </r>
       <r>   13.3525    0.0000 </r>
       <r>   15.4947    0.0000 </r>
       <r>   19.3463    0.0000 </r>
       <r>   20.8010    0.0000 </r>
      </set>
      <set comment="kpoint 26">
       <r>    1.5716    1.0000 </r>
       <r>    5.3173    1.0000 </r>
       <r>    6.0938    0.0000 </r>
       <r>    6.4716    0.0000 </r>
       <r>   11.1034    0.0000 </r>
       <r>   12.1698    0.0000 </r>
       <r>   16.0027    0.0000 </r>
       <r>   19.1314    0.0000 </r>
       <r>   19.3502    0.0000 </r>
      </set>
      <set comment="kpoint 27">
       <r>    1.5208    1.0000 </r>
       <r>    2.5648    1.0000 </r>
       <r>    8.2989    0.0000 </r>
       <r>   11.2607    0.0000 </r>
       <r>   12.1691    0.0000 </r>
       <r>   12.5333    0.0000 </r>
       <r>   16.4116    0.0000 </r>
       <r>   17.4795    0.0000 </r>
       <r>   18.8106    0.0000 </r>
      </set>
      <set comment="kpoint 28">
       <r>    1.9519    1.0000 </r>
       <r>    3.0318    1.0000 </r>
       <r>    6.5995    0.0000 </r>
       <r>    9.9308    0.0000 </r>
       <r>   11.4013    0.0000 </r>
       <r>   12.7032    0.0000 </r>
       <r>   16.7240    0.0000 </r>
       <r>   18.9055    0.0000 </r>
       <r>   19.3461    0.0000 </r>
      </set>
      <set comment="kpoint 29">
       <r>    2.3419    1.0000 </r>
       <r>    4.0505    1.0000 </r>
       <r>    5.3251    1.0000 </r>
       <r>    7.8420    0.0000 </r>
       <r>   11.1654    0.0000 </r>
       <r>   12.6555    0.0000 </r>
       <r>   16.2147    0.0000 </r>
       <r>   19.3472    0.0000 </r>
       <r>   21.2942    0.0000 </r>
      </set>
      <set comment="kpoint 30">
       <r>    1.5593    1.0000 </r>
       <r>    3.1506    1.0000 </r>
       <r>    6.4157    0.0000 </r>
       <r>    9.5919    0.0000 </r>
       <r>   10.1361    0.0000 </r>
       <r>   11.2193    0.0000 </r>
       <r>   19.3304    0.0000 </r>
       <r>   19.7408    0.0000 </r>
       <r>   20.5507    0.0000 </r>
      </set>
      <set comment="kpoint 31">
       <r>    1.2868    1.0000 </r>
       <r>    3.8799    1.0000 </r>
       <r>    5.7870    0.8155 </r>
       <r>    8.2885    0.0000 </r>
       <r>    9.1681    0.0000 </r>
       <r>   11.1824    0.0000 </r>
       <r>   19.3329    0.0000 </r>
       <r>   19.9190    0.0000 </r>
       <r>   22.4865    0.0000 </r>
      </set>
      <set comment="kpoint 32">
       <r>    0.0114    1.0000 </r>
       <r>    4.3809    1.0000 </r>
       <r>    6.7033    0.0000 </r>
       <r>    7.7058    0.0000 </r>
       <r>    8.0312    0.0000 </r>
       <r>   10.1541    0.0000 </r>
       <r>   19.3425    0.0000 </r>
       <r>   21.4111    0.0000 </r>
       <r>   22.9161    0.0000 </r>
      </set>
      <set comment="kpoint 33">
       <r>   -1.0212    1.0000 </r>
       <r>    5.3977    1.0000 </r>
       <r>    6.7032    0.0000 </r>
       <r>    6.7032    0.0000 </r>
       <r>    9.0227    0.0000 </r>
       <r>    9.0227    0.0000 </r>
       <r>   19.3248    0.0000 </r>
       <r>   19.4224    0.0000 </r>
       <r>   21.1985    0.0000 </r>
      </set>
      <set comment="kpoint 34">
       <r>   -0.0058    1.0000 </r>
       <r>    4.8980    1.0000 </r>
       <r>    6.4503    0.0000 </r>
       <r>    7.2219    0.0000 </r>
       <r>    8.1100    0.0000 </r>
       <r>   10.3238    0.0000 </r>
       <r>   19.3286    0.0000 </r>
       <r>   19.5534    0.0000 </r>
       <r>   22.3602    0.0000 </r>
      </set>
      <set comment="kpoint 35">
       <r>    1.5894    1.0000 </r>
       <r>    4.6402    1.0000 </r>
       <r>    5.5118    1.0000 </r>
       <r>    7.3652    0.0000 </r>
       <r>    8.6145    0.0000 </r>
       <r>   12.1488    0.0000 </r>
       <r>   18.5853    0.0000 </r>
       <r>   19.3550    0.0000 </r>
       <r>   21.7313    0.0000 </r>
      </set>
      <set comment="kpoint 36">
       <r>    2.3362    1.0000 </r>
       <r>    4.6391    1.0000 </r>
       <r>    5.6102    1.0000 </r>
       <r>    7.0675    0.0000 </r>
       <r>   10.4810    0.0000 </r>
       <r>   13.0360    0.0000 </r>
       <r>   16.0889    0.0000 </r>
       <r>   19.3473    0.0000 </r>
       <r>   20.6303    0.0000 </r>
      </set>
      <set comment="kpoint 37">
       <r>    2.1958    1.0000 </r>
       <r>    4.4055    1.0000 </r>
       <r>    5.6864    1.0016 </r>
       <r>    7.2325    0.0000 </r>
       <r>   11.7531    0.0000 </r>
       <r>   12.4738    0.0000 </r>
       <r>   15.4561    0.0000 </r>
       <r>   19.3469    0.0000 </r>
       <r>   20.4738    0.0000 </r>
      </set>
      <set comment="kpoint 38">
       <r>    1.4292    1.0000 </r>
       <r>    4.1110    1.0000 </r>
       <r>    5.6766    1.0007 </r>
       <r>    7.6619    0.0000 </r>
       <r>   10.0123    0.0000 </r>
       <r>   11.2070    0.0000 </r>
       <r>   18.6775    0.0000 </r>
       <r>   19.3546    0.0000 </r>
       <r>   21.7952    0.0000 </r>
      </set>
      <set comment="kpoint 39">
       <r>    0.5090    1.0000 </r>
       <r>    4.6058    1.0000 </r>
       <r>    6.2360    0.0000 </r>
       <r>    7.1458    0.0000 </r>
       <r>    9.0489    0.0000 </r>
       <r>   10.4559    0.0000 </r>
       <r>   19.0009    0.0000 </r>
       <r>   19.3545    0.0000 </r>
       <r>   22.3915    0.0000 </r>
      </set>
      <set comment="kpoint 40">
       <r>    1.7984    1.0000 </r>
       <r>    4.1978    1.0000 </r>
       <r>    5.3009    1.0000 </r>
       <r>    7.9545    0.0000 </r>
       <r>    9.1512    0.0000 </r>
       <r>   12.0981    0.0000 </r>
       <r>   18.6328    0.0000 </r>
       <r>   19.3562    0.0000 </r>
       <r>   21.9596    0.0000 </r>
      </set>
      <set comment="kpoint 41">
       <r>    3.1166    1.0000 </r>
       <r>    4.1310    1.0000 </r>
       <r>    4.6197    1.0000 </r>
       <r>    8.1133    0.0000 </r>
       <r>   10.2015    0.0000 </r>
       <r>   13.2806    0.0000 </r>
       <r>   17.0448    0.0000 </r>
       <r>   19.3475    0.0000 </r>
       <r>   19.9887    0.0000 </r>
      </set>
      <set comment="kpoint 42">
       <r>    3.1807    1.0000 </r>
       <r>    3.7816    1.0000 </r>
       <r>    5.2517    1.0000 </r>
       <r>    7.9974    0.0000 </r>
       <r>   11.0745    0.0000 </r>
       <r>   14.5116    0.0000 </r>
       <r>   14.7091    0.0000 </r>
       <r>   19.3447    0.0000 </r>
       <r>   20.5774    0.0000 </r>
      </set>
      <set comment="kpoint 43">
       <r>    2.4718    1.0000 </r>
       <r>    3.8197    1.0000 </r>
       <r>    5.0545    1.0000 </r>
       <r>    8.6096    0.0000 </r>
       <r>   10.1995    0.0000 </r>
       <r>   12.8710    0.0000 </r>
       <r>   17.3601    0.0000 </r>
       <r>   19.3486    0.0000 </r>
       <r>   20.4443    0.0000 </r>
      </set>
      <set comment="kpoint 44">
       <r>    2.0577    1.0000 </r>
       <r>    3.6419    1.0000 </r>
       <r>    5.6167    1.0000 </r>
       <r>    8.3588    0.0000 </r>
       <r>   11.3794    0.0000 </r>
       <r>   11.7568    0.0000 </r>
       <r>   17.2052    0.0000 </r>
       <r>   19.3478    0.0000 </r>
       <r>   21.7995    0.0000 </r>
      </set>
      <set comment="kpoint 45">
       <r>    2.5636    1.0000 </r>
       <r>    3.5357    1.0000 </r>
       <r>    5.5578    1.0000 </r>
       <r>    9.0952    0.0000 </r>
       <r>   11.2345    0.0000 </r>
       <r>   13.6589    0.0000 </r>
       <r>   16.2081    0.0000 </r>
       <r>   18.8538    0.0000 </r>
       <r>   19.3491    0.0000 </r>
      </set>
      <set comment="kpoint 46">
       <r>    3.0220    1.0000 </r>
       <r>    4.1332    1.0000 </r>
       <r>    5.1147    1.0000 </r>
       <r>    8.0824    0.0000 </r>
       <r>   12.0182    0.0000 </r>
       <r>   14.9951    0.0000 </r>
       <r>   15.7989    0.0000 </r>
       <r>   17.4377    0.0000 </r>
       <r>   19.3490    0.0000 </r>
      </set>
      <set comment="kpoint 47">
       <r>    3.2404    1.0000 </r>
       <r>    4.0595    1.0000 </r>
       <r>    4.7193    1.0000 </r>
       <r>    8.3107    0.0000 </r>
       <r>   11.1777    0.0000 </r>
       <r>   13.9266    0.0000 </r>
       <r>   16.4161    0.0000 </r>
       <r>   18.6921    0.0000 </r>
       <r>   19.3501    0.0000 </r>
      </set>
      <set comment="kpoint 48">
       <r>    2.1172    1.0000 </r>
       <r>    3.1164    1.0000 </r>
       <r>    6.8907    0.0000 </r>
       <r>    9.8329    0.0000 </r>
       <r>   11.7560    0.0000 </r>
       <r>   14.0695    0.0000 </r>
       <r>   14.6651    0.0000 </r>
       <r>   19.3116    0.0000 </r>
       <r>   19.6345    0.0000 </r>
      </set>
      <set comment="kpoint 49">
       <r>    2.4421    1.0000 </r>
       <r>    3.3950    1.0000 </r>
       <r>    6.2344    0.0000 </r>
       <r>    9.0863    0.0000 </r>
       <r>   12.0322    0.0000 </r>
       <r>   14.6476    0.0000 </r>
       <r>   15.3315    0.0000 </r>
       <r>   17.6768    0.0000 </r>
       <r>   19.3471    0.0000 </r>
      </set>
      <set comment="kpoint 50">
       <r>    2.1885    1.0000 </r>
       <r>    3.2900    1.0000 </r>
       <r>    6.2217    0.0000 </r>
       <r>    9.1581    0.0000 </r>
       <r>   11.9282    0.0000 </r>
       <r>   12.9644    0.0000 </r>
       <r>   15.5091    0.0000 </r>
       <r>   19.3437    0.0000 </r>
       <r>   20.2067    0.0000 </r>
      </set>
      <set comment="kpoint 51">
       <r>    0.4957    1.0000 </r>
       <r>    5.1814    1.0000 </r>
       <r>    6.4857    0.0000 </r>
       <r>    6.4857    0.0000 </r>
       <r>    9.9739    0.0000 </r>
       <r>    9.9739    0.0000 </r>
       <r>   17.4632    0.0000 </r>
       <r>   19.3438    0.0000 </r>
       <r>   21.3175    0.0000 </r>
      </set>
      <set comment="kpoint 52">
       <r>    1.3870    1.0000 </r>
       <r>    5.0444    1.0000 </r>
       <r>    5.7806    0.8895 </r>
       <r>    6.7435    0.0000 </r>
       <r>    9.5673    0.0000 </r>
       <r>   11.9092    0.0000 </r>
       <r>   17.5385    0.0000 </r>
       <r>   19.3468    0.0000 </r>
       <r>   20.4900    0.0000 </r>
      </set>
      <set comment="kpoint 53">
       <r>    2.9111    1.0000 </r>
       <r>    4.3633    1.0000 </r>
       <r>    4.9605    1.0000 </r>
       <r>    7.6555    0.0000 </r>
       <r>    9.6994    0.0000 </r>
       <r>   13.0730    0.0000 </r>
       <r>   17.3583    0.0000 </r>
       <r>   19.3486    0.0000 </r>
       <r>   20.4089    0.0000 </r>
      </set>
      <set comment="kpoint 54">
       <r>    2.9394    1.0000 </r>
       <r>    3.7651    1.0000 </r>
       <r>    5.6666    1.0003 </r>
       <r>    8.4981    0.0000 </r>
       <r>   10.8352    0.0000 </r>
       <r>   12.8823    0.0000 </r>
       <r>   16.8040    0.0000 </r>
       <r>   19.2059    0.0000 </r>
       <r>   19.3749    0.0000 </r>
      </set>
      <set comment="kpoint 55">
       <r>    1.5640    1.0000 </r>
       <r>    5.0041    1.0000 </r>
       <r>    5.8070    0.5068 </r>
       <r>    6.7419    0.0000 </r>
       <r>   11.1273    0.0000 </r>
       <r>   11.5868    0.0000 </r>
       <r>   16.6238    0.0000 </r>
       <r>   19.3453    0.0000 </r>
       <r>   19.7889    0.0000 </r>
      </set>
      <set comment="kpoint 56">
       <r>    2.6224    1.0000 </r>
       <r>    4.2510    1.0000 </r>
       <r>    5.3450    1.0000 </r>
       <r>    7.5043    0.0000 </r>
       <r>   10.8495    0.0000 </r>
       <r>   13.3259    0.0000 </r>
       <r>   15.6827    0.0000 </r>
       <r>   19.3469    0.0000 </r>
       <r>   21.0694    0.0000 </r>
      </set>
      <set comment="kpoint 57">
       <r>    3.2547    1.0000 </r>
       <r>    3.8523    1.0000 </r>
       <r>    5.1715    1.0000 </r>
       <r>    8.2035    0.0000 </r>
       <r>   11.2248    0.0000 </r>
       <r>   13.7556    0.0000 </r>
       <r>   16.4463    0.0000 </r>
       <r>   18.7359    0.0000 </r>
       <r>   19.3534    0.0000 </r>
      </set>
      <set comment="kpoint 58">
       <r>    2.7182    1.0000 </r>
       <r>    3.9285    1.0000 </r>
       <r>    5.6517    1.0000 </r>
       <r>    7.8885    0.0000 </r>
       <r>   11.3837    0.0000 </r>
       <r>   13.3389    0.0000 </r>
       <r>   15.1406    0.0000 </r>
       <r>   19.3454    0.0000 </r>
       <r>   20.7378    0.0000 </r>
      </set>
      <set comment="kpoint 59">
       <r>    1.1552    1.0000 </r>
       <r>    6.1017    0.0000 </r>
       <r>    6.1017    0.0000 </r>
       <r>    6.2409    0.0000 </r>
       <r>   11.3766    0.0000 </r>
       <r>   11.3766    0.0000 </r>
       <r>   16.1734    0.0000 </r>
       <r>   18.3374    0.0000 </r>
       <r>   19.3499    0.0000 </r>
      </set>
      <set comment="kpoint 60">
       <r>    1.7499    1.0000 </r>
       <r>    5.1465    1.0000 </r>
       <r>    6.2304    0.0000 </r>
       <r>    6.5170    0.0000 </r>
       <r>   11.2747    0.0000 </r>
       <r>   12.5414    0.0000 </r>
       <r>   15.5206    0.0000 </r>
       <r>   19.2308    0.0000 </r>
       <r>   19.3478    0.0000 </r>
      </set>
     </set>
     <set comment="spin 2">
      <set comment="kpoint 1">
       <r>   -2.1495    1.0000 </r>
       <r>    6.1375    0.0000 </r>
       <r>    6.3504    0.0000 </r>
       <r>    6.3504    0.0000 </r>
       <r>    9.2095    0.0000 </r>
       <r>    9.2095    0.0000 </r>
       <r>   18.6511    0.0000 </r>
       <r>   19.3840    0.0000 </r>
       <r>   22.3882    0.0000 </r>
      </set>
      <set comment="kpoint 2">
       <r>   -1.3674    1.0000 </r>
       <r>    5.5439    1.0000 </r>
       <r>    6.6561    0.0000 </r>
       <r>    6.6881    0.0000 </r>
       <r>    8.6298    0.0000 </r>
       <r>    9.3352    0.0000 </r>
       <r>   19.3825    0.0000 </r>
       <r>   20.0246    0.0000 </r>
       <r>   20.8450    0.0000 </r>
      </set>
      <set comment="kpoint 3">
       <r>    0.1633    1.0000 </r>
       <r>    5.0081    1.0000 </r>
       <r>    6.5228    0.0000 </r>
       <r>    6.7458    0.0000 </r>
       <r>    8.9826    0.0000 </r>
       <r>   10.1344    0.0000 </r>
       <r>   18.3165    0.0000 </r>
       <r>   19.3855    0.0000 </r>
       <r>   22.1210    0.0000 </r>
      </set>
      <set comment="kpoint 4">
       <r>    1.1910    1.0000 </r>
       <r>    5.6434    1.0000 </r>
       <r>    6.1021    0.0000 </r>
       <r>    6.2950    0.0000 </r>
       <r>   10.5861    0.0000 </r>
       <r>   11.5436    0.0000 </r>
       <r>   16.6207    0.0000 </r>
       <r>   19.2399    0.0000 </r>
       <r>   19.4078    0.0000 </r>
      </set>
      <set comment="kpoint 5">
       <r>    1.3389    1.0000 </r>
       <r>    5.7297    1.0252 </r>
       <r>    6.1802    0.0000 </r>
       <r>    6.4775    0.0000 </r>
       <r>   11.6478    0.0000 </r>
       <r>   11.7529    0.0000 </r>
       <r>   15.8146    0.0000 </r>
       <r>   18.2721    0.0000 </r>
       <r>   19.3879    0.0000 </r>
      </set>
      <set comment="kpoint 6">
       <r>    0.9727    1.0000 </r>
       <r>    5.2770    1.0000 </r>
       <r>    6.1584    0.0000 </r>
       <r>    6.4854    0.0000 </r>
       <r>   10.2430    0.0000 </r>
       <r>   10.9171    0.0000 </r>
       <r>   17.1441    0.0000 </r>
       <r>   19.3816    0.0000 </r>
       <r>   20.2447    0.0000 </r>
      </set>
      <set comment="kpoint 7">
       <r>   -0.3683    1.0000 </r>
       <r>    5.0648    1.0000 </r>
       <r>    6.6791    0.0000 </r>
       <r>    6.8330    0.0000 </r>
       <r>    8.7267    0.0000 </r>
       <r>    9.6809    0.0000 </r>
       <r>   18.9855    0.0000 </r>
       <r>   19.3893    0.0000 </r>
       <r>   22.0378    0.0000 </r>
      </set>
      <set comment="kpoint 8">
       <r>   -1.7470    1.0000 </r>
       <r>    5.7556    1.0286 </r>
       <r>    6.5664    0.0000 </r>
       <r>    6.5791    0.0000 </r>
       <r>    8.7055    0.0000 </r>
       <r>    9.3804    0.0000 </r>
       <r>   19.3833    0.0000 </r>
       <r>   19.4720    0.0000 </r>
       <r>   21.6161    0.0000 </r>
      </set>
      <set comment="kpoint 9">
       <r>   -0.9884    1.0000 </r>
       <r>    5.1068    1.0000 </r>
       <r>    6.9566    0.0000 </r>
       <r>    7.0339    0.0000 </r>
       <r>    7.9471    0.0000 </r>
       <r>    9.7065    0.0000 </r>
       <r>   19.3827    0.0000 </r>
       <r>   20.8825    0.0000 </r>
       <r>   21.3790    0.0000 </r>
      </set>
      <set comment="kpoint 10">
       <r>    0.3080    1.0000 </r>
       <r>    4.4669    1.0000 </r>
       <r>    6.3278    0.0000 </r>
       <r>    7.6003    0.0000 </r>
       <r>    8.3335    0.0000 </r>
       <r>   10.4355    0.0000 </r>
       <r>   19.3788    0.0000 </r>
       <r>   20.1926    0.0000 </r>
       <r>   23.0150    0.0000 </r>
      </set>
      <set comment="kpoint 11">
       <r>    1.6752    1.0000 </r>
       <r>    4.5238    1.0000 </r>
       <r>    5.5123    1.0000 </r>
       <r>    7.2486    0.0000 </r>
       <r>   10.1912    0.0000 </r>
       <r>   11.8575    0.0000 </r>
       <r>   17.5739    0.0000 </r>
       <r>   19.3882    0.0000 </r>
       <r>   20.8812    0.0000 </r>
      </set>
      <set comment="kpoint 12">
       <r>    2.1103    1.0000 </r>
       <r>    4.6771    1.0000 </r>
       <r>    5.9627   -0.0001 </r>
       <r>    6.9019    0.0000 </r>
       <r>   11.3800    0.0000 </r>
       <r>   12.9170    0.0000 </r>
       <r>   15.1971    0.0000 </r>
       <r>   19.3868    0.0000 </r>
       <r>   19.9999    0.0000 </r>
      </set>
      <set comment="kpoint 13">
       <r>    1.9818    1.0000 </r>
       <r>    4.8645    1.0000 </r>
       <r>    5.4430    1.0000 </r>
       <r>    6.9957    0.0000 </r>
       <r>   10.1696    0.0000 </r>
       <r>   12.6646    0.0000 </r>
       <r>   16.7177    0.0000 </r>
       <r>   19.3875    0.0000 </r>
       <r>   20.4518    0.0000 </r>
      </set>
      <set comment="kpoint 14">
       <r>    0.8607    1.0000 </r>
       <r>    4.5825    1.0000 </r>
       <r>    5.9547   -0.0001 </r>
       <r>    7.4823    0.0000 </r>
       <r>    8.3548    0.0000 </r>
       <r>   11.2029    0.0000 </r>
       <r>   19.2646    0.0000 </r>
       <r>   19.4301    0.0000 </r>
       <r>   22.5995    0.0000 </r>
      </set>
      <set comment="kpoint 15">
       <r>   -0.6492    1.0000 </r>
       <r>    5.0662    1.0000 </r>
       <r>    6.7139    0.0000 </r>
       <r>    7.0584    0.0000 </r>
       <r>    8.1931    0.0000 </r>
       <r>    9.7675    0.0000 </r>
       <r>   19.3805    0.0000 </r>
       <r>   20.1220    0.0000 </r>
       <r>   21.5728    0.0000 </r>
      </set>
      <set comment="kpoint 16">
       <r>    0.9963    1.0000 </r>
       <r>    3.7036    1.0000 </r>
       <r>    6.1945    0.0000 </r>
       <r>    8.5762    0.0000 </r>
       <r>    8.9547    0.0000 </r>
       <r>   10.6808    0.0000 </r>
       <r>   19.3805    0.0000 </r>
       <r>   21.3481    0.0000 </r>
       <r>   22.4649    0.0000 </r>
      </set>
      <set comment="kpoint 17">
       <r>    1.8870    1.0000 </r>
       <r>    3.3845    1.0000 </r>
       <r>    5.8326    0.1280 </r>
       <r>    9.1206    0.0000 </r>
       <r>   10.2957    0.0000 </r>
       <r>   11.9286    0.0000 </r>
       <r>   18.4089    0.0000 </r>
       <r>   19.3914    0.0000 </r>
       <r>   20.6239    0.0000 </r>
      </set>
      <set comment="kpoint 18">
       <r>    2.6297    1.0000 </r>
       <r>    3.6800    1.0000 </r>
       <r>    5.6229    1.0000 </r>
       <r>    8.5072    0.0000 </r>
       <r>   11.4820    0.0000 </r>
       <r>   13.8801    0.0000 </r>
       <r>   14.8836    0.0000 </r>
       <r>   19.3836    0.0000 </r>
       <r>   20.5760    0.0000 </r>
      </set>
      <set comment="kpoint 19">
       <r>    3.3061    1.0000 </r>
       <r>    3.8676    1.0000 </r>
       <r>    5.1391    1.0000 </r>
       <r>    8.0374    0.0000 </r>
       <r>   10.3984    0.0000 </r>
       <r>   13.0286    0.0000 </r>
       <r>   17.2383    0.0000 </r>
       <r>   19.3484    0.0000 </r>
       <r>   19.4265    0.0000 </r>
      </set>
      <set comment="kpoint 20">
       <r>    2.3903    1.0000 </r>
       <r>    4.5639    1.0000 </r>
       <r>    4.8916    1.0000 </r>
       <r>    7.6214    0.0000 </r>
       <r>    9.2783    0.0000 </r>
       <r>   12.8874    0.0000 </r>
       <r>   17.7103    0.0000 </r>
       <r>   19.3897    0.0000 </r>
       <r>   21.4580    0.0000 </r>
      </set>
      <set comment="kpoint 21">
       <r>    0.8818    1.0000 </r>
       <r>    4.8412    1.0000 </r>
       <r>    6.0763    0.0000 </r>
       <r>    6.8637    0.0000 </r>
       <r>    9.3427    0.0000 </r>
       <r>   11.0115    0.0000 </r>
       <r>   18.1171    0.0000 </r>
       <r>   19.3862    0.0000 </r>
       <r>   21.4050    0.0000 </r>
      </set>
      <set comment="kpoint 22">
       <r>    1.6115    1.0000 </r>
       <r>    2.7630    1.0000 </r>
       <r>    7.3744    0.0000 </r>
       <r>   10.6107    0.0000 </r>
       <r>   11.4435    0.0000 </r>
       <r>   11.7279    0.0000 </r>
       <r>   17.7922    0.0000 </r>
       <r>   18.7255    0.0000 </r>
       <r>   19.3742    0.0000 </r>
      </set>
      <set comment="kpoint 23">
       <r>    1.8543    1.0000 </r>
       <r>    2.8501    1.0000 </r>
       <r>    7.4071    0.0000 </r>
       <r>   10.3696    0.0000 </r>
       <r>   12.0840    0.0000 </r>
       <r>   13.5520    0.0000 </r>
       <r>   15.5800    0.0000 </r>
       <r>   17.7660    0.0000 </r>
       <r>   19.3697    0.0000 </r>
      </set>
      <set comment="kpoint 24">
       <r>    2.6174    1.0000 </r>
       <r>    3.5448    1.0000 </r>
       <r>    6.0520    0.0000 </r>
       <r>    8.9441    0.0000 </r>
       <r>   11.4149    0.0000 </r>
       <r>   13.6617    0.0000 </r>
       <r>   15.6953    0.0000 </r>
       <r>   19.1337    0.0000 </r>
       <r>   19.4100    0.0000 </r>
      </set>
      <set comment="kpoint 25">
       <r>    2.7525    1.0000 </r>
       <r>    4.1447    1.0000 </r>
       <r>    5.5816    1.0000 </r>
       <r>    7.4928    0.0000 </r>
       <r>   10.9417    0.0000 </r>
       <r>   13.3534    0.0000 </r>
       <r>   15.4956    0.0000 </r>
       <r>   19.3859    0.0000 </r>
       <r>   20.8014    0.0000 </r>
      </set>
      <set comment="kpoint 26">
       <r>    1.5711    1.0000 </r>
       <r>    5.3179    1.0000 </r>
       <r>    6.0947    0.0000 </r>
       <r>    6.4723    0.0000 </r>
       <r>   11.1046    0.0000 </r>
       <r>   12.1713    0.0000 </r>
       <r>   16.0027    0.0000 </r>
       <r>   19.1301    0.0000 </r>
       <r>   19.3896    0.0000 </r>
      </set>
      <set comment="kpoint 27">
       <r>    1.5204    1.0000 </r>
       <r>    2.5644    1.0000 </r>
       <r>    8.3009    0.0000 </r>
       <r>   11.2627    0.0000 </r>
       <r>   12.1701    0.0000 </r>
       <r>   12.5345    0.0000 </r>
       <r>   16.4128    0.0000 </r>
       <r>   17.4815    0.0000 </r>
       <r>   18.8123    0.0000 </r>
      </set>
      <set comment="kpoint 28">
       <r>    1.9517    1.0000 </r>
       <r>    3.0316    1.0000 </r>
       <r>    6.6006    0.0000 </r>
       <r>    9.9323    0.0000 </r>
       <r>   11.4024    0.0000 </r>
       <r>   12.7047    0.0000 </r>
       <r>   16.7248    0.0000 </r>
       <r>   18.9076    0.0000 </r>
       <r>   19.3854    0.0000 </r>
      </set>
      <set comment="kpoint 29">
       <r>    2.3416    1.0000 </r>
       <r>    4.0508    1.0000 </r>
       <r>    5.3255    1.0000 </r>
       <r>    7.8430    0.0000 </r>
       <r>   11.1667    0.0000 </r>
       <r>   12.6571    0.0000 </r>
       <r>   16.2150    0.0000 </r>
       <r>   19.3868    0.0000 </r>
       <r>   21.2923    0.0000 </r>
      </set>
      <set comment="kpoint 30">
       <r>    1.5589    1.0000 </r>
       <r>    3.1503    1.0000 </r>
       <r>    6.4168    0.0000 </r>
       <r>    9.5928    0.0000 </r>
       <r>   10.1370    0.0000 </r>
       <r>   11.2211    0.0000 </r>
       <r>   19.3680    0.0000 </r>
       <r>   19.7440    0.0000 </r>
       <r>   20.5527    0.0000 </r>
      </set>
      <set comment="kpoint 31">
       <r>    1.2865    1.0000 </r>
       <r>    3.8797    1.0000 </r>
       <r>    5.7876    0.8083 </r>
       <r>    8.2894    0.0000 </r>
       <r>    9.1690    0.0000 </r>
       <r>   11.1841    0.0000 </r>
       <r>   19.3710    0.0000 </r>
       <r>   19.9206    0.0000 </r>
       <r>   22.4884    0.0000 </r>
      </set>
      <set comment="kpoint 32">
       <r>    0.0107    1.0000 </r>
       <r>    4.3807    1.0000 </r>
       <r>    6.7041    0.0000 </r>
       <r>    7.7063    0.0000 </r>
       <r>    8.0318    0.0000 </r>
       <r>   10.1559    0.0000 </r>
       <r>   19.3819    0.0000 </r>
       <r>   21.4097    0.0000 </r>
       <r>   22.9151    0.0000 </r>
      </set>
      <set comment="kpoint 33">
       <r>   -1.0222    1.0000 </r>
       <r>    5.3978    1.0000 </r>
       <r>    6.7035    0.0000 </r>
       <r>    6.7035    0.0000 </r>
       <r>    9.0242    0.0000 </r>
       <r>    9.0242    0.0000 </r>
       <r>   19.3517    0.0000 </r>
       <r>   19.4331    0.0000 </r>
       <r>   21.1975    0.0000 </r>
      </set>
      <set comment="kpoint 34">
       <r>   -0.0065    1.0000 </r>
       <r>    4.8980    1.0000 </r>
       <r>    6.4508    0.0000 </r>
       <r>    7.2223    0.0000 </r>
       <r>    8.1111    0.0000 </r>
       <r>   10.3252    0.0000 </r>
       <r>   19.3638    0.0000 </r>
       <r>   19.5561    0.0000 </r>
       <r>   22.3593    0.0000 </r>
      </set>
      <set comment="kpoint 35">
       <r>    1.5890    1.0000 </r>
       <r>    4.6404    1.0000 </r>
       <r>    5.5122    1.0000 </r>
       <r>    7.3663    0.0000 </r>
       <r>    8.6150    0.0000 </r>
       <r>   12.1503    0.0000 </r>
       <r>   18.5854    0.0000 </r>
       <r>   19.3944    0.0000 </r>
       <r>   21.7304    0.0000 </r>
      </set>
      <set comment="kpoint 36">
       <r>    2.3359    1.0000 </r>
       <r>    4.6395    1.0000 </r>
       <r>    5.6109    1.0000 </r>
       <r>    7.0684    0.0000 </r>
       <r>   10.4819    0.0000 </r>
       <r>   13.0371    0.0000 </r>
       <r>   16.0896    0.0000 </r>
       <r>   19.3869    0.0000 </r>
       <r>   20.6291    0.0000 </r>
      </set>
      <set comment="kpoint 37">
       <r>    2.1954    1.0000 </r>
       <r>    4.4060    1.0000 </r>
       <r>    5.6870    1.0017 </r>
       <r>    7.2334    0.0000 </r>
       <r>   11.7545    0.0000 </r>
       <r>   12.4754    0.0000 </r>
       <r>   15.4562    0.0000 </r>
       <r>   19.3865    0.0000 </r>
       <r>   20.4726    0.0000 </r>
      </set>
      <set comment="kpoint 38">
       <r>    1.4288    1.0000 </r>
       <r>    4.1110    1.0000 </r>
       <r>    5.6771    1.0007 </r>
       <r>    7.6627    0.0000 </r>
       <r>   10.0134    0.0000 </r>
       <r>   11.2086    0.0000 </r>
       <r>   18.6778    0.0000 </r>
       <r>   19.3939    0.0000 </r>
       <r>   21.7946    0.0000 </r>
      </set>
      <set comment="kpoint 39">
       <r>    0.5084    1.0000 </r>
       <r>    4.6058    1.0000 </r>
       <r>    6.2365    0.0000 </r>
       <r>    7.1464    0.0000 </r>
       <r>    9.0498    0.0000 </r>
       <r>   10.4574    0.0000 </r>
       <r>   19.0004    0.0000 </r>
       <r>   19.3932    0.0000 </r>
       <r>   22.3919    0.0000 </r>
      </set>
      <set comment="kpoint 40">
       <r>    1.7981    1.0000 </r>
       <r>    4.1978    1.0000 </r>
       <r>    5.3013    1.0000 </r>
       <r>    7.9556    0.0000 </r>
       <r>    9.1520    0.0000 </r>
       <r>   12.0996    0.0000 </r>
       <r>   18.6333    0.0000 </r>
       <r>   19.3955    0.0000 </r>
       <r>   21.9583    0.0000 </r>
      </set>
      <set comment="kpoint 41">
       <r>    3.1167    1.0000 </r>
       <r>    4.1312    1.0000 </r>
       <r>    4.6199    1.0000 </r>
       <r>    8.1146    0.0000 </r>
       <r>   10.2022    0.0000 </r>
       <r>   13.2815    0.0000 </r>
       <r>   17.0459    0.0000 </r>
       <r>   19.3870    0.0000 </r>
       <r>   19.9911    0.0000 </r>
      </set>
      <set comment="kpoint 42">
       <r>    3.1806    1.0000 </r>
       <r>    3.7818    1.0000 </r>
       <r>    5.2522    1.0000 </r>
       <r>    7.9986    0.0000 </r>
       <r>   11.0752    0.0000 </r>
       <r>   14.5135    0.0000 </r>
       <r>   14.7094    0.0000 </r>
       <r>   19.3842    0.0000 </r>
       <r>   20.5798    0.0000 </r>
      </set>
      <set comment="kpoint 43">
       <r>    2.4717    1.0000 </r>
       <r>    3.8197    1.0000 </r>
       <r>    5.0549    1.0000 </r>
       <r>    8.6109    0.0000 </r>
       <r>   10.2004    0.0000 </r>
       <r>   12.8725    0.0000 </r>
       <r>   17.3608    0.0000 </r>
       <r>   19.3882    0.0000 </r>
       <r>   20.4465    0.0000 </r>
      </set>
      <set comment="kpoint 44">
       <r>    2.0574    1.0000 </r>
       <r>    3.6419    1.0000 </r>
       <r>    5.6173    1.0000 </r>
       <r>    8.3598    0.0000 </r>
       <r>   11.3807    0.0000 </r>
       <r>   11.7583    0.0000 </r>
       <r>   17.2058    0.0000 </r>
       <r>   19.3874    0.0000 </r>
       <r>   21.4046    0.0000 </r>
      </set>
      <set comment="kpoint 45">
       <r>    2.5635    1.0000 </r>
       <r>    3.5357    1.0000 </r>
       <r>    5.5584    1.0000 </r>
       <r>    9.0967    0.0000 </r>
       <r>   11.2354    0.0000 </r>
       <r>   13.6602    0.0000 </r>
       <r>   16.2090    0.0000 </r>
       <r>   18.8560    0.0000 </r>
       <r>   19.3886    0.0000 </r>
      </set>
      <set comment="kpoint 46">
       <r>    3.0220    1.0000 </r>
       <r>    4.1334    1.0000 </r>
       <r>    5.1152    1.0000 </r>
       <r>    8.0832    0.0000 </r>
       <r>   12.0191    0.0000 </r>
       <r>   14.9958    0.0000 </r>
       <r>   15.8009    0.0000 </r>
       <r>   17.4396    0.0000 </r>
       <r>   19.3886    0.0000 </r>
      </set>
      <set comment="kpoint 47">
       <r>    3.2405    1.0000 </r>
       <r>    4.0597    1.0000 </r>
       <r>    4.7196    1.0000 </r>
       <r>    8.3119    0.0000 </r>
       <r>   11.1785    0.0000 </r>
       <r>   13.9274    0.0000 </r>
       <r>   16.4177    0.0000 </r>
       <r>   18.6944    0.0000 </r>
       <r>   19.3897    0.0000 </r>
      </set>
      <set comment="kpoint 48">
       <r>    2.1169    1.0000 </r>
       <r>    3.1163    1.0000 </r>
       <r>    6.8920    0.0000 </r>
       <r>    9.8346    0.0000 </r>
       <r>   11.7569    0.0000 </r>
       <r>   14.0703    0.0000 </r>
       <r>   14.6664    0.0000 </r>
       <r>   19.3435    0.0000 </r>
       <r>   19.5956    0.0000 </r>
      </set>
      <set comment="kpoint 49">
       <r>    2.4419    1.0000 </r>
       <r>    3.3949    1.0000 </r>
       <r>    6.2354    0.0000 </r>
       <r>    9.0876    0.0000 </r>
       <r>   12.0331    0.0000 </r>
       <r>   14.6493    0.0000 </r>
       <r>   15.3324    0.0000 </r>
       <r>   17.6787    0.0000 </r>
       <r>   19.3866    0.0000 </r>
      </set>
      <set comment="kpoint 50">
       <r>    2.1883    1.0000 </r>
       <r>    3.2899    1.0000 </r>
       <r>    6.2227    0.0000 </r>
       <r>    9.1594    0.0000 </r>
       <r>   11.9295    0.0000 </r>
       <r>   12.9661    0.0000 </r>
       <r>   15.5095    0.0000 </r>
       <r>   19.3830    0.0000 </r>
       <r>   20.2089    0.0000 </r>
      </set>
      <set comment="kpoint 51">
       <r>    0.4951    1.0000 </r>
       <r>    5.1819    1.0000 </r>
       <r>    6.4863    0.0000 </r>
       <r>    6.4863    0.0000 </r>
       <r>    9.9751    0.0000 </r>
       <r>    9.9751    0.0000 </r>
       <r>   17.4615    0.0000 </r>
       <r>   19.3832    0.0000 </r>
       <r>   21.3182    0.0000 </r>
      </set>
      <set comment="kpoint 52">
       <r>    1.3865    1.0000 </r>
       <r>    5.0449    1.0000 </r>
       <r>    5.7810    0.8852 </r>
       <r>    6.7443    0.0000 </r>
       <r>    9.5682    0.0000 </r>
       <r>   11.9107    0.0000 </r>
       <r>   17.5381    0.0000 </r>
       <r>   19.3862    0.0000 </r>
       <r>   20.4895    0.0000 </r>
      </set>
      <set comment="kpoint 53">
       <r>    2.9110    1.0000 </r>
       <r>    4.3636    1.0000 </r>
       <r>    4.9609    1.0000 </r>
       <r>    7.6567    0.0000 </r>
       <r>    9.7000    0.0000 </r>
       <r>   13.0738    0.0000 </r>
       <r>   17.3595    0.0000 </r>
       <r>   19.3882    0.0000 </r>
       <r>   20.4112    0.0000 </r>
      </set>
      <set comment="kpoint 54">
       <r>    2.9391    1.0000 </r>
       <r>    3.7655    1.0000 </r>
       <r>    5.6674    1.0003 </r>
       <r>    8.4995    0.0000 </r>
       <r>   10.8360    0.0000 </r>
       <r>   12.8823    0.0000 </r>
       <r>   16.8060    0.0000 </r>
       <r>   19.2122    0.0000 </r>
       <r>   19.4101    0.0000 </r>
      </set>
      <set comment="kpoint 55">
       <r>    1.5635    1.0000 </r>
       <r>    5.0047    1.0000 </r>
       <r>    5.8076    0.4978 </r>
       <r>    6.7426    0.0000 </r>
       <r>   11.1286    0.0000 </r>
       <r>   11.5882    0.0000 </r>
       <r>   16.6238    0.0000 </r>
       <r>   19.3845    0.0000 </r>
       <r>   19.7881    0.0000 </r>
      </set>
      <set comment="kpoint 56">
       <r>    2.6222    1.0000 </r>
       <r>    4.2513    1.0000 </r>
       <r>    5.3455    1.0000 </r>
       <r>    7.5054    0.0000 </r>
       <r>   10.8505    0.0000 </r>
       <r>   13.3273    0.0000 </r>
       <r>   15.6833    0.0000 </r>
       <r>   19.3864    0.0000 </r>
       <r>   21.0686    0.0000 </r>
      </set>
      <set comment="kpoint 57">
       <r>    3.2547    1.0000 </r>
       <r>    3.8525    1.0000 </r>
       <r>    5.1721    1.0000 </r>
       <r>    8.2046    0.0000 </r>
       <r>   11.2256    0.0000 </r>
       <r>   13.7561    0.0000 </r>
       <r>   16.4482    0.0000 </r>
       <r>   18.7380    0.0000 </r>
       <r>   19.3929    0.0000 </r>
      </set>
      <set comment="kpoint 58">
       <r>    2.7179    1.0000 </r>
       <r>    3.9288    1.0000 </r>
       <r>    5.6524    1.0001 </r>
       <r>    7.8895    0.0000 </r>
       <r>   11.3848    0.0000 </r>
       <r>   13.3398    0.0000 </r>
       <r>   15.1416    0.0000 </r>
       <r>   19.3849    0.0000 </r>
       <r>   20.7386    0.0000 </r>
      </set>
      <set comment="kpoint 59">
       <r>    1.1545    1.0000 </r>
       <r>    6.1024    0.0000 </r>
       <r>    6.1024    0.0000 </r>
       <r>    6.2422    0.0000 </r>
       <r>   11.3779    0.0000 </r>
       <r>   11.3779    0.0000 </r>
       <r>   16.1731    0.0000 </r>
       <r>   18.3360    0.0000 </r>
       <r>   19.3895    0.0000 </r>
      </set>
      <set comment="kpoint 60">
       <r>    1.7493    1.0000 </r>
       <r>    5.1470    1.0000 </r>
       <r>    6.2314    0.0000 </r>
       <r>    6.5178    0.0000 </r>
       <r>   11.2759    0.0000 </r>
       <r>   12.5429    0.0000 </r>
       <r>   15.5208    0.0000 </r>
       <r>   19.2291    0.0000 </r>
       <r>   19.3874    0.0000 </r>
      </set>
     </set>
    </set>
   </array>
  </eigenvalues>
  <separator name="orbital magnetization" >
   <v name="MAGDIPOLOUT">      0.00000000      0.00000000      0.00000000</v>
  </separator>
  <dos>
   <i name="efermi">      5.80744939 </i>
   <total>
    <array>
     <dimension dim="1">gridpoints</dimension>
     <dimension dim="2">spin</dimension>
     <field>energy</field>
     <field>total</field>
     <field>integrated</field>
     <set>
      <set comment="spin 1">
       <r>    -3.4077     0.0000     0.0000 </r>
       <r>    -3.3155     0.0000     0.0000 </r>
       <r>    -3.2232     0.0000     0.0000 </r>
       <r>    -3.1309     0.0000     0.0000 </r>
       <r>    -3.0386     0.0000     0.0000 </r>
       <r>    -2.9464     0.0000     0.0000 </r>
       <r>    -2.8541     0.0000     0.0000 </r>
       <r>    -2.7618     0.0000     0.0000 </r>
       <r>    -2.6696     0.0000     0.0000 </r>
       <r>    -2.5773     0.0000     0.0000 </r>
       <r>    -2.4850     0.0000     0.0000 </r>
       <r>    -2.3927     0.0000     0.0000 </r>
       <r>    -2.3005     0.0000     0.0000 </r>
       <r>    -2.2082    -0.0015    -0.0001 </r>
       <r>    -2.1159     0.0413     0.0037 </r>
       <r>    -2.0236     0.0026     0.0039 </r>
       <r>    -1.9314    -0.0001     0.0039 </r>
       <r>    -1.8391    -0.0015     0.0038 </r>
       <r>    -1.7468     0.0630     0.0096 </r>
       <r>    -1.6546     0.0673     0.0158 </r>
       <r>    -1.5623    -0.0017     0.0156 </r>
       <r>    -1.4700    -0.0008     0.0156 </r>
       <r>    -1.3777     0.0405     0.0193 </r>
       <r>    -1.2855     0.0901     0.0276 </r>
       <r>    -1.1932    -0.0028     0.0273 </r>
       <r>    -1.1009    -0.0014     0.0272 </r>
       <r>    -1.0087     0.0533     0.0321 </r>
       <r>    -0.9164     0.1216     0.0434 </r>
       <r>    -0.8241    -0.0042     0.0430 </r>
       <r>    -0.7318    -0.0050     0.0425 </r>
       <r>    -0.6396     0.1690     0.0581 </r>
       <r>    -0.5473     0.0919     0.0666 </r>
       <r>    -0.4550    -0.0040     0.0662 </r>
       <r>    -0.3628     0.0756     0.0732 </r>
       <r>    -0.2705     0.0547     0.0782 </r>
       <r>    -0.1782    -0.0012     0.0781 </r>
       <r>    -0.0859    -0.0041     0.0777 </r>
       <r>     0.0063     0.1455     0.0912 </r>
       <r>     0.0986     0.1111     0.1014 </r>
       <r>     0.1909     0.1140     0.1119 </r>
       <r>     0.2831     0.0464     0.1162 </r>
       <r>     0.3754     0.2306     0.1375 </r>
       <r>     0.4677    -0.0038     0.1371 </r>
       <r>     0.5600     0.1696     0.1528 </r>
       <r>     0.6522    -0.0049     0.1523 </r>
       <r>     0.7445    -0.0007     0.1523 </r>
       <r>     0.8368     0.0318     0.1552 </r>
       <r>     0.9290     0.4842     0.1999 </r>
       <r>     1.0213     0.2322     0.2213 </r>
       <r>     1.1136     0.0117     0.2224 </r>
       <r>     1.2059     0.1333     0.2347 </r>
       <r>     1.2981     0.2121     0.2543 </r>
       <r>     1.3904     0.2856     0.2806 </r>
       <r>     1.4827     0.1733     0.2966 </r>
       <r>     1.5749     0.4926     0.3421 </r>
       <r>     1.6672     0.4995     0.3881 </r>
       <r>     1.7595     0.2437     0.4106 </r>
       <r>     1.8518     0.4219     0.4496 </r>
       <r>     1.9440     0.4880     0.4946 </r>
       <r>     2.0363     0.4221     0.5335 </r>
       <r>     2.1286     0.3834     0.5689 </r>
       <r>     2.2209     0.3308     0.5994 </r>
       <r>     2.3131     0.0592     0.6049 </r>
       <r>     2.4054     0.5447     0.6552 </r>
       <r>     2.4977     0.5274     0.7038 </r>
       <r>     2.5899     0.4140     0.7420 </r>
       <r>     2.6822     0.7834     0.8143 </r>
       <r>     2.7745     0.4031     0.8515 </r>
       <r>     2.8668     0.2755     0.8769 </r>
       <r>     2.9590     0.2804     0.9028 </r>
       <r>     3.0513     0.4598     0.9452 </r>
       <r>     3.1436     0.4783     0.9894 </r>
       <r>     3.2358     0.5281     1.0381 </r>
       <r>     3.3281     0.6798     1.1008 </r>
       <r>     3.4204     0.5176     1.1486 </r>
       <r>     3.5127     0.0961     1.1574 </r>
       <r>     3.6049     0.4653     1.2004 </r>
       <r>     3.6972     0.3556     1.2332 </r>
       <r>     3.7895     0.4143     1.2714 </r>
       <r>     3.8817     0.9242     1.3567 </r>
       <r>     3.9740     0.3204     1.3862 </r>
       <r>     4.0663     0.3272     1.4164 </r>
       <r>     4.1586     0.9542     1.5045 </r>
       <r>     4.2508     0.5107     1.5516 </r>
       <r>     4.3431     0.1431     1.5648 </r>
       <r>     4.4354     0.3661     1.5986 </r>
       <r>     4.5276     0.3912     1.6347 </r>
       <r>     4.6199     0.8788     1.7158 </r>
       <r>     4.7122     0.7240     1.7826 </r>
       <r>     4.8045     0.1529     1.7967 </r>
       <r>     4.8967     0.7095     1.8621 </r>
       <r>     4.9890     0.3363     1.8932 </r>
       <r>     5.0813     0.8802     1.9744 </r>
       <r>     5.1735     1.0057     2.0672 </r>
       <r>     5.2658     0.3795     2.1022 </r>
       <r>     5.3581     1.0985     2.2036 </r>
       <r>     5.4504     0.2688     2.2284 </r>
       <r>     5.5426     0.5778     2.2817 </r>
       <r>     5.6349     1.0323     2.3769 </r>
       <r>     5.7272     0.7258     2.4439 </r>
       <r>     5.8194     0.7191     2.5103 </r>
       <r>     5.9117     0.2275     2.5313 </r>
       <r>     6.0040     0.4964     2.5771 </r>
       <r>     6.0963     0.6924     2.6409 </r>
       <r>     6.1885     0.5951     2.6959 </r>
       <r>     6.2808     0.8433     2.7737 </r>
       <r>     6.3731     0.4074     2.8113 </r>
       <r>     6.4654     0.4106     2.8491 </r>
       <r>     6.5576     0.7783     2.9210 </r>
       <r>     6.6499     0.4918     2.9663 </r>
       <r>     6.7422     0.9518     3.0542 </r>
       <r>     6.8344     0.3013     3.0820 </r>
       <r>     6.9267     0.6546     3.1424 </r>
       <r>     7.0190     0.4086     3.1801 </r>
       <r>     7.1113     0.5210     3.2281 </r>
       <r>     7.2035     0.1503     3.2420 </r>
       <r>     7.2958     0.4725     3.2856 </r>
       <r>     7.3881     0.2484     3.3085 </r>
       <r>     7.4803     0.4991     3.3546 </r>
       <r>     7.5726     0.5527     3.4056 </r>
       <r>     7.6649     0.6380     3.4645 </r>
       <r>     7.7572     0.2169     3.4845 </r>
       <r>     7.8494     0.1569     3.4989 </r>
       <r>     7.9417     0.3442     3.5307 </r>
       <r>     8.0340     0.6865     3.5941 </r>
       <r>     8.1262     0.7316     3.6616 </r>
       <r>     8.2185     0.5127     3.7089 </r>
       <r>     8.3108     0.5761     3.7620 </r>
       <r>     8.4031     0.8177     3.8375 </r>
       <r>     8.4953     0.1194     3.8485 </r>
       <r>     8.5876     0.3973     3.8851 </r>
       <r>     8.6799     0.5154     3.9327 </r>
       <r>     8.7721     0.2276     3.9537 </r>
       <r>     8.8644    -0.0147     3.9524 </r>
       <r>     8.9567     0.2741     3.9776 </r>
       <r>     9.0490     0.3793     4.0126 </r>
       <r>     9.1412     0.9473     4.1001 </r>
       <r>     9.2335     0.6128     4.1566 </r>
       <r>     9.3258     0.3609     4.1899 </r>
       <r>     9.4180     0.4049     4.2273 </r>
       <r>     9.5103    -0.0145     4.2259 </r>
       <r>     9.6026     0.2098     4.2453 </r>
       <r>     9.6949     0.2357     4.2670 </r>
       <r>     9.7871     0.4098     4.3048 </r>
       <r>     9.8794     0.1625     4.3198 </r>
       <r>     9.9717     0.2978     4.3473 </r>
       <r>    10.0639     0.1663     4.3627 </r>
       <r>    10.1562     0.3665     4.3965 </r>
       <r>    10.2485     1.1342     4.5011 </r>
       <r>    10.3408     0.4023     4.5383 </r>
       <r>    10.4330     0.6567     4.5988 </r>
       <r>    10.5253     0.3701     4.6330 </r>
       <r>    10.6176     0.1940     4.6509 </r>
       <r>    10.7099     0.1768     4.6672 </r>
       <r>    10.8021     0.0100     4.6681 </r>
       <r>    10.8944     0.4037     4.7054 </r>
       <r>    10.9867     0.3969     4.7420 </r>
       <r>    11.0789     0.3912     4.7781 </r>
[...]
       </set>
       <set comment="band 6">
        <r>  0.1332  0.0082  0.1806  0.0089  0.0021  0.5250  0.0721  0.0161  0.0353 </r>
       </set>
       <set comment="band 7">
        <r>  0.3004  0.1145  0.0962  0.0820  0.0258  0.0002  0.0016  0.0439  0.1520 </r>
       </set>
       <set comment="band 8">
        <r>  0.1190  0.0334  0.0322  0.5153  0.0702  0.0017  0.0050  0.1190  0.0528 </r>
       </set>
       <set comment="band 9">
        <r> 43.9442  0.0013  0.0001  0.0017  0.0002  0.0001  0.0000  0.0003  0.0009 </r>
       </set>
      </set>
      <set comment="kpoint 46">
       <set comment="band 1">
        <r>  0.0133  0.1133  0.0032  0.0002  0.0080  0.0000  0.6410  0.0000  0.0912 </r>
       </set>
       <set comment="band 2">
        <r>  0.0133  0.0058  0.0028  0.1723  0.7552  0.0094  0.0013  0.0039  0.0052 </r>
       </set>
       <set comment="band 3">
        <r>  0.0179  0.0002  0.2717  0.0037  0.0151  0.6339  0.0004  0.0047  0.0088 </r>
       </set>
       <set comment="band 4">
        <r>  0.1549  0.0094  0.0144  0.0051  0.0041  0.0078  0.0914  0.0020  0.6154 </r>
       </set>
       <set comment="band 5">
        <r>  0.0072  0.0000  0.0087  0.0116  0.0149  0.0296  0.0000  0.9048  0.0000 </r>
       </set>
       <set comment="band 6">
        <r>  0.4239  0.0018  0.0883  0.0432  0.0309  0.0991  0.0485  0.0507  0.1199 </r>
       </set>
       <set comment="band 7">
        <r>  0.0238  0.0155  0.3471  0.1936  0.0807  0.2022  0.0086  0.0011  0.0415 </r>
       </set>
       <set comment="band 8">
        <r>  0.1023  0.0004  0.1084  0.3800  0.1063  0.0411  0.0441  0.0312  0.0828 </r>
       </set>
       <set comment="band 9">
        <r> 44.1570  0.0001  0.0000  0.0002  0.0000  0.0000  0.0000  0.0000  0.0006 </r>
       </set>
      </set>
      <set comment="kpoint 47">
       <set comment="band 1">
        <r>  0.0449  0.1131  0.0003  0.0444  0.0085  0.0245  0.3734  0.0015  0.2621 </r>
       </set>
       <set comment="band 2">
        <r>  0.0517  0.0090  0.1208  0.0344  0.1511  0.4957  0.0645  0.0298  0.0041 </r>
       </set>
       <set comment="band 3">
        <r>  0.0644  0.0019  0.0566  0.1497  0.4061  0.2351  0.0440  0.0014  0.0000 </r>
       </set>
       <set comment="band 4">
        <r>  0.0484  0.0103  0.0040  0.0757  0.0148  0.0000  0.2327  0.0198  0.5114 </r>
       </set>
       <set comment="band 5">
        <r>  0.0166  0.0004  0.0392  0.0000  0.0281  0.0827  0.0030  0.7784  0.0051 </r>
       </set>
       <set comment="band 6">
        <r>  0.3194  0.0035  0.0063  0.1402  0.3381  0.0008  0.0158  0.0282  0.0768 </r>
       </set>
       <set comment="band 7">
        <r>  0.1641  0.0600  0.1620  0.1507  0.0303  0.0749  0.1687  0.0596  0.0216 </r>
       </set>
       <set comment="band 8">
        <r>  0.1066  0.0266  0.4175  0.0944  0.0211  0.1139  0.0707  0.1068  0.0314 </r>
       </set>
       <set comment="band 9">
        <r> 44.0543  0.0005  0.0012  0.0004  0.0000  0.0003  0.0010  0.0002  0.0002 </r>
       </set>
      </set>
      <set comment="kpoint 48">
       <set comment="band 1">
        <r>  0.0977  0.0092  0.0044  0.0092  0.0917  0.0004  0.6853  0.0004  0.0000 </r>
       </set>
       <set comment="band 2">
        <r>  0.0004  0.0479  0.0000  0.0479  0.8196  0.0008  0.0601  0.0008  0.0000 </r>
       </set>
       <set comment="band 3">
        <r>  0.0180  0.0001  0.5104  0.0001  0.0039  0.1982  0.0103  0.1982  0.0000 </r>
       </set>
       <set comment="band 4">
        <r>  0.0000  0.0344  0.0000  0.0344  0.0000  0.0302  0.0000  0.0302  0.8063 </r>
       </set>
       <set comment="band 5">
        <r>  0.0000  0.0001  0.0000  0.0001  0.0000  0.4536  0.0000  0.4536  0.0665 </r>
       </set>
       <set comment="band 6">
        <r>  0.3051  0.1313  0.1191  0.1313  0.0536  0.0331  0.0000  0.0331  0.0000 </r>
       </set>
       <set comment="band 7">
        <r>  0.1570  0.0061  0.2234  0.0061  0.0036  0.2813  0.0237  0.2813  0.0000 </r>
       </set>
       <set comment="band 8">
        <r> 34.7822  0.0244  0.0066  0.0239  0.0035  0.0021  0.0663  0.0021  0.0000 </r>
       </set>
       <set comment="band 9">
        <r>  9.5689  0.1077  0.0308  0.1040  0.0143  0.0087  0.3541  0.0086  0.0000 </r>
       </set>
      </set>
      <set comment="kpoint 49">
       <set comment="band 1">
        <r>  0.0681  0.0608  0.0044  0.0001  0.0221  0.0004  0.7130  0.0001  0.0144 </r>
       </set>
       <set comment="band 2">
        <r>  0.0009  0.0093  0.0000  0.0938  0.8607  0.0004  0.0134  0.0015  0.0010 </r>
       </set>
       <set comment="band 3">
        <r>  0.0216  0.0008  0.4052  0.0001  0.0016  0.4870  0.0062  0.0117  0.0098 </r>
       </set>
       <set comment="band 4">
        <r>  0.0829  0.0504  0.0206  0.0028  0.0008  0.0020  0.0165  0.0042  0.7309 </r>
       </set>
       <set comment="band 5">
        <r>  0.0062  0.0003  0.0049  0.0132  0.0065  0.0583  0.0001  0.8861  0.0015 </r>
       </set>
       <set comment="band 6">
        <r>  0.0969  0.0000  0.3439  0.0003  0.0000  0.4377  0.0287  0.0639  0.0025 </r>
       </set>
       <set comment="band 7">
        <r>  0.3449  0.0576  0.0676  0.1497  0.0419  0.0237  0.0112  0.0060  0.1439 </r>
       </set>
       <set comment="band 8">
        <r>  0.0811  0.0092  0.0229  0.5088  0.0695  0.0057  0.0434  0.0242  0.0660 </r>
       </set>
       <set comment="band 9">
        <r> 43.9608  0.0013  0.0000  0.0004  0.0000  0.0000  0.0001  0.0000  0.0009 </r>
       </set>
      </set>
      <set comment="kpoint 50">
       <set comment="band 1">
        <r>  0.1487  0.0073  0.0438  0.0073  0.1169  0.0054  0.5672  0.0054  0.0000 </r>
       </set>
       <set comment="band 2">
        <r>  0.0000  0.0504  0.0005  0.0504  0.7626  0.0067  0.0902  0.0067  0.0000 </r>
       </set>
       <set comment="band 3">
        <r>  0.0997  0.0002  0.3741  0.0002  0.0339  0.1661  0.0993  0.1661  0.0000 </r>
       </set>
       <set comment="band 4">
        <r>  0.0000  0.0321  0.0000  0.0321  0.0000  0.1363  0.0000  0.1363  0.5999 </r>
       </set>
       <set comment="band 5">
        <r>  0.0000  0.0002  0.0000  0.0002  0.0000  0.3364  0.0000  0.3364  0.3140 </r>
       </set>
       <set comment="band 6">
        <r>  0.0032  0.0655  0.2535  0.0655  0.0277  0.2246  0.0711  0.2246  0.0000 </r>
       </set>
       <set comment="band 7">
        <r>  0.3910  0.0913  0.0168  0.0913  0.0326  0.0936  0.0103  0.0936  0.0000 </r>
       </set>
       <set comment="band 8">
        <r> 43.7933  0.0005  0.0004  0.0005  0.0001  0.0003  0.0004  0.0003  0.0000 </r>
       </set>
       <set comment="band 9">
        <r>  0.0000  0.3064  0.0000  0.3071  0.0000  0.0261  0.0000  0.0262  0.1177 </r>
       </set>
      </set>
      <set comment="kpoint 51">
       <set comment="band 1">
        <r>  0.5741  0.0362  0.0362  0.0362  0.0778  0.0778  0.0000  0.0778  0.0000 </r>
       </set>
       <set comment="band 2">
        <r>  0.0309  0.1012  0.1012  0.1012  0.1928  0.1928  0.0000  0.1928  0.0000 </r>
       </set>
       <set comment="band 3">
        <r>  0.0000  0.0002  0.0022  0.0012  0.3151  0.1744  0.4150  0.0293  0.0405 </r>
       </set>
       <set comment="band 4">
        <r>  0.0000  0.0022  0.0002  0.0012  0.0308  0.1714  0.0405  0.3166  0.4150 </r>
       </set>
       <set comment="band 5">
        <r>  0.0000  0.0018  0.0079  0.0022  0.2953  0.0816  0.4958  0.0665  0.0004 </r>
       </set>
       <set comment="band 6">
        <r>  0.0000  0.0061  0.0000  0.0057  0.0003  0.2140  0.0004  0.2291  0.4958 </r>
       </set>
       <set comment="band 7">
        <r>  0.0916  0.0209  0.0209  0.0209  0.0297  0.0297  0.0000  0.0297  0.0000 </r>
       </set>
       <set comment="band 8">
        <r> 43.8190  0.0001  0.0001  0.0001  0.0000  0.0000  0.0000  0.0000  0.0000 </r>
       </set>
       <set comment="band 9">
        <r>  0.3563  0.0742  0.0742  0.0742  0.1199  0.1199  0.0000  0.1199  0.0000 </r>
       </set>
      </set>
      <set comment="kpoint 52">
       <set comment="band 1">
        <r>  0.4669  0.0651  0.0651  0.0000  0.0896  0.1564  0.0010  0.0896  0.0029 </r>
       </set>
       <set comment="band 2">
        <r>  0.0279  0.0999  0.0999  0.1485  0.2200  0.0223  0.0161  0.2200  0.0484 </r>
       </set>
       <set comment="band 3">
        <r>  0.0050  0.0041  0.0041  0.0138  0.0816  0.2968  0.1153  0.0816  0.3459 </r>
       </set>
       <set comment="band 4">
        <r>  0.0000  0.0022  0.0022  0.0000  0.1706  0.0000  0.4623  0.1706  0.1541 </r>
       </set>
       <set comment="band 5">
        <r>  0.0000  0.0057  0.0057  0.0000  0.3092  0.0000  0.2350  0.3092  0.0783 </r>
       </set>
       <set comment="band 6">
        <r>  0.0279  0.0296  0.0296  0.0028  0.0147  0.4502  0.1034  0.0147  0.3102 </r>
       </set>
       <set comment="band 7">
        <r>  0.1854  0.0553  0.0553  0.0338  0.0465  0.1174  0.0111  0.0465  0.0334 </r>
       </set>
       <set comment="band 8">
        <r> 43.8989  0.0000  0.0000  0.0000  0.0000  0.0003  0.0000  0.0000  0.0001 </r>
       </set>
       <set comment="band 9">
        <r>  0.2855  0.0693  0.0693  0.0219  0.0580  0.0071  0.0032  0.0580  0.0095 </r>
       </set>
      </set>
      <set comment="kpoint 53">
       <set comment="band 1">
        <r>  0.3054  0.0924  0.0924  0.0071  0.0309  0.3973  0.0001  0.0309  0.0002 </r>
       </set>
       <set comment="band 2">
        <r>  0.0002  0.0750  0.0750  0.0040  0.0004  0.0849  0.1560  0.0004  0.4681 </r>
       </set>
       <set comment="band 3">
        <r>  0.0062  0.0112  0.0112  0.2190  0.3308  0.0418  0.0016  0.3308  0.0048 </r>
       </set>
       <set comment="band 4">
        <r>  0.0000  0.0174  0.0174  0.0000  0.0330  0.0000  0.6265  0.0330  0.2088 </r>
       </set>
       <set comment="band 5">
        <r>  0.0000  0.0015  0.0015  0.0000  0.4403  0.0000  0.0455  0.4403  0.0152 </r>
       </set>
       <set comment="band 6">
        <r>  0.2630  0.0198  0.0198  0.0037  0.0000  0.4764  0.0409  0.0000  0.1226 </r>
       </set>
       <set comment="band 7">
        <r>  0.1775  0.1348  0.1348  0.0378  0.0349  0.0000  0.0637  0.0349  0.1912 </r>
       </set>
       <set comment="band 8">
        <r> 44.0987  0.0001  0.0001  0.0004  0.0003  0.0001  0.0001  0.0003  0.0002 </r>
       </set>
       <set comment="band 9">
        <r>  0.0338  0.0157  0.0157  0.4979  0.2218  0.0003  0.0097  0.2218  0.0290 </r>
       </set>
      </set>
      <set comment="kpoint 54">
       <set comment="band 1">
        <r>  0.1086  0.0000  0.0000  0.0068  0.0050  0.4085  0.1007  0.0050  0.3020 </r>
       </set>
       <set comment="band 2">
        <r>  0.0211  0.1371  0.1371  0.0005  0.0070  0.2907  0.0769  0.0070  0.2306 </r>
       </set>
       <set comment="band 3">
        <r>  0.0041  0.0036  0.0036  0.3410  0.2818  0.0318  0.0007  0.2818  0.0022 </r>
       </set>
       <set comment="band 4">
        <r>  0.0000  0.0295  0.0295  0.0000  0.0260  0.0000  0.6141  0.0260  0.2047 </r>
       </set>
       <set comment="band 5">
        <r>  0.0000  0.0008  0.0008  0.0000  0.4505  0.0000  0.0378  0.4505  0.0126 </r>
       </set>
       <set comment="band 6">
        <r>  0.4900  0.0510  0.0510  0.0124  0.0008  0.2176  0.0034  0.0008  0.0101 </r>
       </set>
       <set comment="band 7">
        <r>  0.0617  0.0315  0.0315  0.3394  0.2150  0.0059  0.0263  0.2150  0.0790 </r>
       </set>
       <set comment="band 8">
        <r>  4.3903  0.0944  0.0944  0.1318  0.0516  0.0195  0.0765  0.0516  0.2296 </r>
       </set>
       <set comment="band 9">
        <r> 39.8167  0.0128  0.0128  0.0158  0.0057  0.0021  0.0117  0.0057  0.0352 </r>
       </set>
      </set>
      <set comment="kpoint 55">
       <set comment="band 1">
        <r>  0.3883  0.0021  0.0786  0.0021  0.1942  0.1359  0.0192  0.1359  0.0000 </r>
       </set>
       <set comment="band 2">
        <r>  0.0128  0.1285  0.0690  0.1285  0.0845  0.0540  0.3441  0.0540  0.0000 </r>
       </set>
       <set comment="band 3">
        <r>  0.0309  0.0271  0.0690  0.0271  0.4426  0.0454  0.2751  0.0454  0.0000 </r>
       </set>
       <set comment="band 4">
        <r>  0.0000  0.0100  0.0000  0.0100  0.0000  0.2087  0.0000  0.2087  0.5298 </r>
       </set>
       <set comment="band 5">
        <r>  0.0090  0.0286  0.0981  0.0286  0.1725  0.1583  0.2844  0.1583  0.0000 </r>
       </set>
       <set comment="band 6">
        <r>  0.0000  0.0018  0.0000  0.0018  0.0000  0.2744  0.0000  0.2744  0.4299 </r>
       </set>
       <set comment="band 7">
        <r>  0.3006  0.0395  0.0366  0.0395  0.0605  0.1356  0.0037  0.1356  0.0000 </r>
       </set>
       <set comment="band 8">
        <r> 43.5712  0.0000  0.0004  0.0000  0.0001  0.0001  0.0005  0.0001  0.0000 </r>
       </set>
       <set comment="band 9">
        <r>  0.5888  0.0188  0.0546  0.0188  0.0578  0.0053  0.0480  0.0053  0.0000 </r>
       </set>
      </set>
      <set comment="kpoint 56">
       <set comment="band 1">
        <r>  0.2635  0.0129  0.0918  0.0201  0.2425  0.2084  0.0393  0.0833  0.0001 </r>
       </set>
       <set comment="band 2">
        <r>  0.0001  0.1128  0.0159  0.0455  0.0118  0.0700  0.4812  0.0125  0.1215 </r>
       </set>
       <set comment="band 3">
        <r>  0.0257  0.0293  0.1032  0.1219  0.4132  0.2129  0.0185  0.0097  0.0216 </r>
       </set>
       <set comment="band 4">
        <r>  0.0002  0.0047  0.0439  0.0101  0.0236  0.0109  0.1586  0.2000  0.4924 </r>
       </set>
       <set comment="band 5">
        <r>  0.0136  0.0027  0.0216  0.0145  0.1387  0.0547  0.0694  0.4984  0.1333 </r>
       </set>
       <set comment="band 6">
        <r>  0.1124  0.0268  0.1058  0.0495  0.0241  0.4174  0.1307  0.0058  0.0893 </r>
       </set>
       <set comment="band 7">
        <r>  0.3501  0.0509  0.0537  0.0591  0.0910  0.0208  0.0046  0.1450  0.0902 </r>
       </set>
       <set comment="band 8">
        <r> 44.0670  0.0000  0.0000  0.0002  0.0001  0.0002  0.0000  0.0002  0.0000 </r>
       </set>
       <set comment="band 9">
        <r>  0.0006  0.0130  0.0268  0.0845  0.0615  0.0325  0.1242  0.0159  0.0401 </r>
       </set>
      </set>
      <set comment="kpoint 57">
       <set comment="band 1">
        <r>  0.0300  0.0743  0.0000  0.0053  0.0017  0.1201  0.3453  0.0010  0.3073 </r>
       </set>
       <set comment="band 2">
        <r>  0.0741  0.0598  0.1570  0.0079  0.0344  0.5307  0.0697  0.0095  0.0087 </r>
       </set>
       <set comment="band 3">
        <r>  0.0022  0.0039  0.0142  0.2658  0.5670  0.0532  0.0018  0.0483  0.0000 </r>
       </set>
       <set comment="band 4">
        <r>  0.0715  0.0051  0.0365  0.0080  0.0001  0.0154  0.3318  0.0179  0.4301 </r>
       </set>
       <set comment="band 5">
        <r>  0.0214  0.0001  0.0016  0.0208  0.1568  0.0171  0.0026  0.7316  0.0030 </r>
       </set>
       <set comment="band 6">
        <r>  0.4157  0.0134  0.1232  0.0088  0.0007  0.1910  0.0792  0.0298  0.0149 </r>
       </set>
       <set comment="band 7">
        <r>  0.0684  0.0215  0.0748  0.3398  0.2087  0.0177  0.0141  0.1266  0.0907 </r>
       </set>
       <set comment="band 8">
        <r>  0.2376  0.0317  0.2245  0.1870  0.0701  0.0480  0.0060  0.0567  0.2251 </r>
       </set>
       <set comment="band 9">
        <r> 43.9923  0.0004  0.0020  0.0013  0.0004  0.0003  0.0001  0.0003  0.0033 </r>
       </set>
      </set>
      <set comment="kpoint 58">
       <set comment="band 1">
        <r>  0.1830  0.0024  0.0501  0.0024  0.4290  0.0550  0.1821  0.0550  0.0000 </r>
       </set>
       <set comment="band 2">
        <r>  0.0047  0.1152  0.0003  0.1152  0.0977  0.0288  0.4929  0.0288  0.0000 </r>
       </set>
       <set comment="band 3">
        <r>  0.0250  0.0251  0.2565  0.0251  0.2228  0.1856  0.0264  0.1856  0.0000 </r>
       </set>
       <set comment="band 4">
        <r>  0.0000  0.0224  0.0000  0.0224  0.0000  0.1156  0.0000  0.1156  0.6643 </r>
       </set>
       <set comment="band 5">
        <r>  0.0000  0.0014  0.0000  0.0014  0.0000  0.3659  0.0000  0.3659  0.2323 </r>
       </set>
       <set comment="band 6">
        <r>  0.2367  0.0876  0.1404  0.0876  0.2094  0.0031  0.0757  0.0031  0.0000 </r>
       </set>
       <set comment="band 7">
        <r>  0.2991  0.0102  0.1001  0.0102  0.0008  0.2210  0.1140  0.2210  0.0000 </r>
       </set>
       <set comment="band 8">
        <r> 43.9683  0.0001  0.0004  0.0001  0.0001  0.0003  0.0001  0.0003  0.0000 </r>
       </set>
       <set comment="band 9">
        <r>  0.1468  0.0362  0.1958  0.0362  0.0009  0.0638  0.2924  0.0638  0.0000 </r>
       </set>
      </set>
      <set comment="kpoint 59">
       <set comment="band 1">
        <r>  0.3821  0.0049  0.0049  0.0049  0.1928  0.1928  0.0000  0.1928  0.0000 </r>
       </set>
       <set comment="band 2">
        <r>  0.0000  0.0001  0.0002  0.0002  0.1836  0.1595  0.4018  0.0545  0.1783 </r>
       </set>
       <set comment="band 3">
        <r>  0.0000  0.0002  0.0001  0.0001  0.0815  0.1056  0.1783  0.2105  0.4018 </r>
       </set>
       <set comment="band 4">
        <r>  0.0226  0.2433  0.2433  0.2433  0.0291  0.0291  0.0000  0.0291  0.0000 </r>
       </set>
       <set comment="band 5">
        <r>  0.0000  0.0005  0.0026  0.0010  0.3707  0.1495  0.3601  0.0683  0.0210 </r>
       </set>
       <set comment="band 6">
        <r>  0.0000  0.0022  0.0001  0.0017  0.0217  0.2429  0.0210  0.3240  0.3601 </r>
       </set>
       <set comment="band 7">
        <r>  0.3491  0.0096  0.0096  0.0096  0.1291  0.1291  0.0000  0.1291  0.0000 </r>
       </set>
       <set comment="band 8">
        <r>  0.0474  0.0282  0.0282  0.0282  0.0294  0.0294  0.0000  0.0294  0.0000 </r>
       </set>
       <set comment="band 9">
        <r> 44.1449  0.0001  0.0001  0.0001  0.0005  0.0005  0.0000  0.0005  0.0000 </r>
       </set>
      </set>
      <set comment="kpoint 60">
       <set comment="band 1">
        <r>  0.3207  0.0114  0.0114  0.0188  0.1814  0.2532  0.0002  0.1814  0.0007 </r>
       </set>
       <set comment="band 2">
        <r>  0.0003  0.0807  0.0807  0.0253  0.0163  0.0772  0.1464  0.0163  0.4391 </r>
       </set>
       <set comment="band 3">
        <r>  0.0015  0.1320  0.1320  0.2069  0.1065  0.2144  0.0068  0.1065  0.0204 </r>
       </set>
       <set comment="band 4">
        <r>  0.0000  0.0054  0.0054  0.0000  0.1692  0.0000  0.4622  0.1692  0.1541 </r>
       </set>
       <set comment="band 5">
        <r>  0.0000  0.0022  0.0022  0.0000  0.3206  0.0000  0.2416  0.3206  0.0805 </r>
       </set>
       <set comment="band 6">
        <r>  0.0223  0.0441  0.0441  0.0637  0.0429  0.3680  0.0815  0.0429  0.2445 </r>
       </set>
       <set comment="band 7">
        <r>  0.4566  0.0069  0.0069  0.0060  0.1609  0.0972  0.0050  0.1609  0.0151 </r>
       </set>
       <set comment="band 8">
        <r>  0.0359  0.0136  0.0136  0.0238  0.0163  0.0227  0.0070  0.0163  0.0209 </r>
       </set>
       <set comment="band 9">
        <r> 44.0809  0.0000  0.0000  0.0001  0.0003  0.0001  0.0000  0.0003  0.0000 </r>
       </set>
      </set>
     </set>
    </set>
   </array>
  </projected>
 </calculation>
 <structure name="finalpos" >
  <crystal>
   <varray name="basis" >
    <v>       0.00000000       2.10500000       2.10500000 </v>
    <v>       2.10500000       0.00000000       2.10500000 </v>
    <v>       2.10500000       2.10500000       0.00000000 </v>
   </varray>
   <i name="volume">     18.65461525 </i>
   <varray name="rec_basis" >
    <v>      -0.23752969       0.23752969       0.23752969 </v>
    <v>       0.23752969      -0.23752969       0.23752969 </v>
    <v>       0.23752969       0.23752969      -0.23752969 </v>
   </varray>
  </crystal>
  <varray name="positions" >
   <v>       0.00000000       0.00000000       0.00000000 </v>
  </varray>
 </structure>
</modeling>
