    2    2   50    1
  0.4851000E+03  0.9800000E-09  0.9900000E-09  0.1000000E-08  0.5000000E-15
  1.000000000000000E-004
  CAR 
 unknown system                          
   12    1   10
 
  0.0000000E+00  0.0000000E+00  0.0000000E+00  0.1000000E+01
   1      -31.937110
   2      -19.829274
   3      -12.968824
   4      -12.406093
   5      -12.406085
   6       -5.927140
   7       -5.927139
   8       -0.311220
   9        0.949293
  10        1.126011
