       N       E                     dE             d eps       ncg     rms          rms(c)
DAV:   1     0.713583172664E+02    0.71358E+02   -0.28545E+03    28   0.627E+02
DAV:   2     0.117250663766E+02   -0.59633E+02   -0.59577E+02    28   0.146E+02
DAV:   3     0.623287512161E+00   -0.11102E+02   -0.83080E+01    24   0.557E+01
DAV:   4    -0.877383138115E+01   -0.93971E+01   -0.93948E+01    36   0.204E+01
DAV:   5    -0.903539251726E+01   -0.26156E+00   -0.24233E+00    24   0.507E+00    0.438E+00
DAV:   6    -0.880026539143E+01    0.23513E+00   -0.48197E-01    22   0.629E+00    0.229E+00
DAV:   7    -0.877425338696E+01    0.26012E-01   -0.34972E-01    22   0.470E+00    0.566E+00
DAV:   8    -0.867647020958E+01    0.97783E-01   -0.77701E-02    20   0.136E+00    0.799E-01
DAV:   9    -0.874553364827E+01   -0.69063E-01   -0.96793E-03    20   0.837E-01    0.539E-01
DAV:  10    -0.874598136388E+01   -0.44772E-03   -0.37355E-03    24   0.134E-01    0.271E-01
DAV:  11    -0.874848588019E+01   -0.25045E-02   -0.12539E-03    20   0.203E-01    0.164E-01
DAV:  12    -0.874852592469E+01   -0.40045E-04   -0.39604E-04    20   0.105E-01
   1 F= -.87485259E+01 E0= -.87391243E+01  d E =-.874853E+01
       N       E                     dE             d eps       ncg     rms          rms(c)
DAV:   1    -0.872454882097E+01    0.23937E-01   -0.32281E+00    24   0.177E+01    0.434E-01
DAV:   2    -0.872460345669E+01   -0.54636E-04   -0.37948E-02    24   0.210E+00    0.226E-01
DAV:   3    -0.872472767716E+01   -0.12422E-03   -0.47824E-03    24   0.505E-01    0.791E-01
DAV:   4    -0.872106233668E+01    0.36653E-02   -0.34714E-03    22   0.206E-01    0.187E-01
DAV:   5    -0.872442477688E+01   -0.33624E-02   -0.39945E-04    20   0.211E-01    0.504E-02
DAV:   6    -0.872454149365E+01   -0.11672E-03   -0.36565E-05    20   0.547E-02    0.166E-02
DAV:   7    -0.872458235409E+01   -0.40860E-04   -0.51643E-06    22   0.216E-02
   2 F= -.87245824E+01 E0= -.87151792E+01  d E =0.239436E-01
       N       E                     dE             d eps       ncg     rms          rms(c)
DAV:   1    -0.874953615768E+01   -0.24995E-01   -0.22653E+00    24   0.149E+01    0.346E-01
DAV:   2    -0.874993884547E+01   -0.40269E-03   -0.29813E-02    20   0.183E+00    0.196E-01
DAV:   3    -0.874974443138E+01    0.19441E-03   -0.30930E-03    22   0.490E-01    0.209E-01
DAV:   4    -0.874965368645E+01    0.90745E-04   -0.25854E-03    22   0.986E-02    0.481E-01
DAV:   5    -0.874853160045E+01    0.11221E-02   -0.61265E-04    20   0.200E-01    0.651E-02
DAV:   6    -0.874979705278E+01   -0.12655E-02   -0.11406E-04    20   0.135E-01    0.499E-02
DAV:   7    -0.874979678923E+01    0.26355E-06   -0.10497E-06    22   0.945E-03
   3 F= -.87497968E+01 E0= -.87403936E+01  d E =-.252144E-01
