<?xml version="1.0" encoding="ISO-8859-1"?>
<modeling>
 <generator>
  <i name="program" type="string">vasp </i>
  <i name="version" type="string">5.2.12  </i>
  <i name="subversion" type="string">11Nov11 complex                                                      parallel </i>
  <i name="platform" type="string">LinuxIFC </i>
  <i name="date" type="string">2012 10 09 </i>
  <i name="time" type="string">20:13:05 </i>
 </generator>
 <incar>
  <i type="string" name="PREC">accurate</i>
  <i type="int" name="IBRION">     1</i>
  <i name="EDIFFG">     -0.05000000</i>
  <i type="int" name="NSW">    50</i>
  <i type="int" name="ISIF">     2</i>
  <i name="ENCUT">    500.00000000</i>
  <i type="logical" name="LREAL"> F  </i>
  <i type="int" name="ISMEAR">     1</i>
  <i name="SIGMA">      0.05000000</i>
 </incar>
 <kpoints>
  <generation param="Monkhorst-Pack">
   <v type="int" name="divisions">       1        1        1 </v>
   <v name="usershift">      0.00000000       0.00000000       0.00000000 </v>
   <v name="genvec1">      1.00000000       0.00000000       0.00000000 </v>
   <v name="genvec2">      0.00000000       1.00000000       0.00000000 </v>
   <v name="genvec3">      0.00000000       0.00000000       1.00000000 </v>
   <v name="shift">      0.00000000       0.00000000       0.00000000 </v>
  </generation>
  <varray name="kpointlist" >
   <v>       0.00000000       0.00000000       0.00000000 </v>
  </varray>
  <varray name="weights" >
   <v>       1.00000000 </v>
  </varray>
 </kpoints>
 <parameters>
  <separator name="general" >
   <i type="string" name="SYSTEM">unknown system</i>
   <i type="logical" name="LCOMPAT"> F  </i>
  </separator>
  <separator name="electronic" >
   <i type="string" name="PREC">accura</i>
   <i name="ENMAX">    500.00000000</i>
   <i name="ENAUG">    605.39200000</i>
   <i name="EDIFF">      0.00010000</i>
   <i type="int" name="IALGO">    38</i>
   <i type="int" name="IWAVPR">    11</i>
   <i type="int" name="NBANDS">    10</i>
   <i name="NELECT">     12.00000000</i>
   <i type="int" name="TURBO">     0</i>
   <i type="int" name="IRESTART">     0</i>
   <i type="int" name="NREBOOT">     0</i>
   <i type="int" name="NMIN">     0</i>
   <i name="EREF">      0.00000000</i>
   <separator name="electronic smearing" >
    <i type="int" name="ISMEAR">     1</i>
    <i name="SIGMA">      0.05000000</i>
    <i name="KSPACING">      0.50000000</i>
    <i type="logical" name="KGAMMA"> T  </i>
   </separator>
   <separator name="electronic projectors" >
    <i type="logical" name="LREAL"> F  </i>
    <v name="ROPT">      0.00000000</v>
    <i type="int" name="LMAXPAW">  -100</i>
    <i type="int" name="LMAXMIX">     2</i>
    <i type="logical" name="NLSPLINE"> F  </i>
   </separator>
   <separator name="electronic startup" >
    <i type="int" name="ISTART">     0</i>
    <i type="int" name="ICHARG">     2</i>
    <i type="int" name="INIWAV">     1</i>
   </separator>
   <separator name="electronic spin" >
    <i type="int" name="ISPIN">     1</i>
    <i type="logical" name="LNONCOLLINEAR"> F  </i>
    <v name="MAGMOM">      1.00000000      1.00000000</v>
    <i name="NUPDOWN">     -1.00000000</i>
    <i type="logical" name="LSORBIT"> F  </i>
    <v name="SAXIS">      0.00000000      0.00000000      1.00000000</v>
    <i type="logical" name="LSPIRAL"> F  </i>
    <v name="QSPIRAL">      0.00000000      0.00000000      0.00000000</v>
    <i type="logical" name="LZEROZ"> F  </i>
   </separator>
   <separator name="electronic exchange-correlation" >
    <i type="logical" name="LASPH"> F  </i>
    <i type="logical" name="LMETAGGA"> F  </i>
   </separator>
   <separator name="electronic convergence" >
    <i type="int" name="NELM">    60</i>
    <i type="int" name="NELMDL">    -5</i>
    <i type="int" name="NELMIN">     2</i>
    <i name="ENINI">    500.00000000</i>
    <separator name="electronic convergence detail" >
     <i type="logical" name="LDIAG"> T  </i>
     <i type="logical" name="LSUBROT"> T  </i>
     <i name="WEIMIN">      0.00100000</i>
     <i name="EBREAK">      0.00000250</i>
     <i name="DEPER">      0.30000000</i>
     <i type="int" name="NRMM">     4</i>
     <i name="TIME">      0.40000000</i>
    </separator>
   </separator>
   <separator name="electronic mixer" >
    <i name="AMIX">      0.40000000</i>
    <i name="BMIX">      1.00000000</i>
    <i name="AMIN">      0.10000000</i>
    <i name="AMIX_MAG">      1.60000000</i>
    <i name="BMIX_MAG">      1.00000000</i>
    <separator name="electronic mixer details" >
     <i type="int" name="IMIX">     4</i>
     <i type="int" name="MAXMIX">   -45</i>
     <i name="WC">    100.00000000</i>
     <i type="int" name="INIMIX">     1</i>
     <i type="int" name="MIXPRE">     1</i>
     <i type="int" name="MREMOVE">     5</i>
    </separator>
   </separator>
   <separator name="electronic dipolcorrection" >
    <i type="logical" name="LDIPOL"> F  </i>
    <i type="logical" name="LMONO"> F  </i>
    <i type="int" name="IDIPOL">     0</i>
    <i name="EPSILON">      1.00000000</i>
    <v name="DIPOL">   -100.00000000   -100.00000000   -100.00000000</v>
    <i name="EFIELD">      0.00000000</i>
   </separator>
  </separator>
  <separator name="grids" >
   <i type="int" name="NGX">    72</i>
   <i type="int" name="NGY">    72</i>
   <i type="int" name="NGZ">    80</i>
   <i type="int" name="NGXF">   144</i>
   <i type="int" name="NGYF">   144</i>
   <i type="int" name="NGZF">   160</i>
   <i type="logical" name="ADDGRID"> F  </i>
  </separator>
  <separator name="ionic" >
   <i type="int" name="NSW">    50</i>
   <i type="int" name="IBRION">     1</i>
   <i type="int" name="ISIF">     2</i>
   <i name="PSTRESS">      0.00000000</i>
   <i name="EDIFFG">     -0.05000000</i>
   <i type="int" name="NFREE">     0</i>
   <i name="POTIM">      0.50000000</i>
   <i name="SMASS">     -3.00000000</i>
   <i name="SCALEE">      1.00000000</i>
  </separator>
  <separator name="ionic md" >
   <i name="TEBEG">      0.00010000</i>
   <i name="TEEND">      0.00010000</i>
   <i type="int" name="NBLOCK">     1</i>
   <i type="int" name="KBLOCK">    50</i>
   <i type="int" name="NPACO">   256</i>
   <i name="APACO">     16.00000000</i>
  </separator>
  <separator name="symmetry" >
   <i type="int" name="ISYM">     2</i>
   <i name="SYMPREC">      0.00001000</i>
  </separator>
  <separator name="dos" >
   <i type="logical" name="LORBIT"> F  </i>
   <v name="RWIGS">     -1.00000000</v>
   <i type="int" name="NEDOS">   301</i>
   <i name="EMIN">     10.00000000</i>
   <i name="EMAX">    -10.00000000</i>
   <i name="EFERMI">      0.00000000</i>
  </separator>
  <separator name="writing" >
   <i type="int" name="NWRITE">     2</i>
   <i type="logical" name="LWAVE"> T  </i>
   <i type="logical" name="LCHARG"> T  </i>
   <i type="logical" name="LPARD"> F  </i>
   <i type="logical" name="LVTOT"> F  </i>
   <i type="logical" name="LVHAR"> F  </i>
   <i type="logical" name="LELF"> F  </i>
   <i type="logical" name="LOPTICS"> F  </i>
   <v name="STM">      0.00000000      0.00000000      0.00000000      0.00000000      0.00000000      0.00000000      0.00000000</v>
  </separator>
  <separator name="performance" >
   <i type="int" name="NPAR">     1</i>
   <i type="int" name="NSIM">     4</i>
   <i type="int" name="NBLK">    -1</i>
   <i type="logical" name="LPLANE"> T  </i>
   <i type="logical" name="LSCALAPACK"> F  </i>
   <i type="logical" name="LSCAAWARE"> F  </i>
   <i type="logical" name="LSCALU"> F  </i>
   <i type="logical" name="LASYNC"> F  </i>
   <i type="logical" name="LORBITALREAL"> F  </i>
  </separator>
  <separator name="miscellaneous" >
   <i type="int" name="IDIOT">     3</i>
   <i type="logical" name="LMUSIC"> F  </i>
   <v name="POMASS">     16.00000000</v>
   <v name="DARWINR">      0.00000000</v>
   <v name="DARWINV">      1.00000000</v>
   <i type="logical" name="LCORR"> T  </i>
  </separator>
  <i type="logical" name="GGA_COMPAT"> T  </i>
  <i type="logical" name="LBERRY"> F  </i>
  <i type="int" name="ICORELEVEL">     0</i>
  <i type="logical" name="LDAU"> F  </i>
  <i type="int" name="I_CONSTRAINED_M">     0</i>
  <separator name="electronic exchange-correlation" >
   <i type="string" name="GGA">--</i>
   <i type="int" name="VOSKOWN">     0</i>
   <i type="logical" name="LHFCALC"> F  </i>
   <i type="string" name="PRECFOCK"></i>
   <i type="logical" name="LHFONE"> F  </i>
   <i type="logical" name="LRHFCALC"> F  </i>
   <i type="logical" name="LTHOMAS"> F  </i>
   <i type="logical" name="LMODELHF"> F  </i>
   <i name="ENCUT4O">     -1.00000000</i>
   <i type="int" name="EXXOEP">     0</i>
   <i type="int" name="FOURORBIT">     0</i>
   <i name="AEXX">      0.00000000</i>
   <i name="HFALPHA">      0.00000000</i>
   <i name="ALDAX">      1.00000000</i>
   <i name="AGGAX">      1.00000000</i>
   <i name="ALDAC">      1.00000000</i>
   <i name="AGGAC">      1.00000000</i>
   <i type="int" name="NKREDX">     1</i>
   <i type="int" name="NKREDY">     1</i>
   <i type="int" name="NKREDZ">     1</i>
   <i type="logical" name="SHIFTRED"> F  </i>
   <i type="logical" name="ODDONLY"> F  </i>
   <i type="logical" name="EVENONLY"> F  </i>
   <i type="int" name="LMAXFOCK">     0</i>
   <i type="int" name="NMAXFOCKAE">     0</i>
   <i type="logical" name="LFOCKAEDFT"> F  </i>
   <i name="HFSCREEN">      0.00000000</i>
   <i name="HFSCREENC">      0.00000000</i>
  </separator>
  <separator name="vdW DFT" >
   <i type="logical" name="LUSE_VDW"> F  </i>
   <i name="Zab_VDW">     -0.84910000</i>
   <i name="PARAM1">      0.12340000</i>
   <i name="PARAM2">      1.00000000</i>
   <i name="PARAM3">      0.00000000</i>
  </separator>
  <separator name="model GW" >
   <i type="int" name="MODEL_GW">     0</i>
   <i name="MODEL_EPS0">    291.06000000</i>
   <i name="MODEL_ALPHA">      1.00000000</i>
  </separator>
  <separator name="linear response parameters" >
   <i type="logical" name="LEPSILON"> F  </i>
   <i type="logical" name="LRPA"> F  </i>
   <i type="logical" name="LNABLA"> F  </i>
   <i type="logical" name="LVEL"> F  </i>
   <i type="int" name="KINTER">     0</i>
   <i name="CSHIFT">      0.10000000</i>
   <i name="OMEGAMAX">     -1.00000000</i>
  </separator>
  <separator name="orbital magnetization" >
   <i type="logical" name="NUCIND"> F  </i>
   <v name="MAGPOS">      0.00000000      0.00000000      0.00000000</v>
   <i type="logical" name="LNICSALL"> T  </i>
   <i type="logical" name="ORBITALMAG"> F  </i>
   <i type="logical" name="LMAGBLOCH"> F  </i>
   <i type="logical" name="LCHIMAG"> F  </i>
   <i type="logical" name="LGAUGE"> T  </i>
   <i type="int" name="MAGATOM">     0</i>
   <v name="MAGDIPOL">      0.00000000      0.00000000      0.00000000</v>
   <v name="AVECCONST">      0.00000000      0.00000000      0.00000000</v>
  </separator>
  <separator name="response functions" >
   <i type="logical" name="LADDER"> F  </i>
   <i type="logical" name="LHARTREE"> T  </i>
   <i type="int" name="IBSE">     0</i>
   <i type="logical" name="LTCTE"> F  </i>
   <i type="logical" name="LTETE"> F  </i>
   <i type="logical" name="LFXCEPS"> F  </i>
   <i type="logical" name="L2ORDER"> F  </i>
   <i type="logical" name="LUSEW"> F  </i>
   <i name="ENCUTGW">     -2.00000000</i>
   <i name="ENCUTGWSOFT">     -2.00000000</i>
   <i name="ENCUTLF">     -1.00000000</i>
   <i type="int" name="LMAXMP2">    -1</i>
   <i name="SCISSOR">      0.00000000</i>
   <i type="int" name="NOMEGA">     0</i>
   <i type="int" name="NOMEGAR">     0</i>
   <i type="int" name="NBANDSGW">    -1</i>
   <i type="int" name="NBANDSO">    -1</i>
   <i type="int" name="NBANDSV">    -1</i>
   <i name="OPTEMAX">      0.00000000</i>
   <i type="int" name="NELM">     1</i>
   <i type="int" name="DIM">     3</i>
   <i type="int" name="ANTIRES">     0</i>
   <i name="OMEGAMAX">    -30.00000000</i>
   <i name="OMEGATL">   -200.00000000</i>
   <i type="int" name="OMEGAGRID">     0</i>
   <i name="CSHIFT">     -0.10000000</i>
   <i type="logical" name="SELFENERGY"> F  </i>
   <i type="logical" name="LSPECTRAL"> F  </i>
   <i type="logical" name="ODDONLYGW"> F  </i>
   <i type="logical" name="EVENONLYGW"> F  </i>
   <i type="int" name="NKREDLFX">     1</i>
   <i type="int" name="NKREDLFY">     1</i>
   <i type="int" name="NKREDLFZ">     1</i>
   <i type="int" name="MAXMEM">  1800</i>
   <i type="int" name="TELESCOPE">     0</i>
  </separator>
 </parameters>
 <atominfo>
  <atoms>       2 </atoms>
  <types>       1 </types>
  <array name="atoms" >
   <dimension dim="1">ion</dimension>
   <field type="string">element</field>
   <field type="int">atomtype</field>
   <set>
    <rc><c>O </c><c>   1</c></rc>
    <rc><c>O </c><c>   1</c></rc>
   </set>
  </array>
  <array name="atomtypes" >
   <dimension dim="1">type</dimension>
   <field type="int">atomspertype</field>
   <field type="string">element</field>
   <field>mass</field>
   <field>valence</field>
   <field type="string">pseudopotential</field>
   <set>
    <rc><c>   2</c><c>O </c><c>     16.00000000</c><c>      6.00000000</c><c> PAW_PBE O 08Apr2002                    </c></rc>
   </set>
  </array>
 </atominfo>
 <structure name="initialpos" >
  <crystal>
   <varray name="basis" >
    <v>       9.80000000       0.00000000       0.00000000 </v>
    <v>       0.00000000       9.90000000       0.00000000 </v>
    <v>       0.00000000       0.00000000      10.00000000 </v>
   </varray>
   <i name="volume">    970.20000000 </i>
   <varray name="rec_basis" >
    <v>       0.10204082       0.00000000       0.00000000 </v>
    <v>       0.00000000       0.10101010       0.00000000 </v>
    <v>       0.00000000       0.00000000       0.10000000 </v>
   </varray>
  </crystal>
  <varray name="positions" >
   <v>       0.00000000       0.00000000       0.00000000 </v>
   <v>       0.12551020       0.00000000       0.00000000 </v>
  </varray>
 </structure>
 <calculation>
  <scstep>
   <time name="dav">    2.98    2.98</time>
   <time name="total">    8.10    8.10</time>
   <energy>
    <i name="alphaZ">      0.57280012 </i>
    <i name="ewald">    126.15054829 </i>
    <i name="hartreedc">   -854.30024460 </i>
    <i name="XCdc">     54.46669104 </i>
    <i name="pawpsdc">    491.99680524 </i>
    <i name="pawaedc">   -495.69617649 </i>
    <i name="eentropy">      0.00289895 </i>
    <i name="bandstr">   -116.54787447 </i>
    <i name="atom">    864.71286919 </i>
    <i name="e_fr_energy">     71.35831727 </i>
    <i name="e_wo_entrp">     71.35541831 </i>
    <i name="e_0_energy">     71.35735095 </i>
   </energy>
  </scstep>
  <scstep>
   <time name="dav">    2.94    2.94</time>
   <time name="total">    2.94    3.02</time>
   <energy>
    <i name="e_fr_energy">     11.72506638 </i>
    <i name="e_wo_entrp">     11.72216742 </i>
    <i name="e_0_energy">     11.72410006 </i>
   </energy>
  </scstep>
  <scstep>
   <time name="dav">    2.63    2.63</time>
   <time name="total">    2.63    2.64</time>
   <energy>
    <i name="e_fr_energy">      0.62328751 </i>
    <i name="e_wo_entrp">      0.62038856 </i>
    <i name="e_0_energy">      0.62232119 </i>
   </energy>
  </scstep>
  <scstep>
   <time name="dav">    3.58    3.58</time>
   <time name="total">    3.58    3.59</time>
   <energy>
    <i name="e_fr_energy">     -8.77383138 </i>
    <i name="e_wo_entrp">     -8.77674503 </i>
    <i name="e_0_energy">     -8.77480260 </i>
   </energy>
  </scstep>
  <scstep>
   <time name="dav">    2.63    2.63</time>
   <time name="total">    3.59    3.62</time>
   <energy>
    <i name="e_fr_energy">     -9.03539252 </i>
    <i name="e_wo_entrp">     -9.00870975 </i>
    <i name="e_0_energy">     -9.02649826 </i>
   </energy>
  </scstep>
  <scstep>
   <time name="dav">    2.48    2.48</time>
   <time name="total">    8.51    8.53</time>
   <energy>
    <i name="e_fr_energy">     -8.80026539 </i>
    <i name="e_wo_entrp">     -8.77223266 </i>
    <i name="e_0_energy">     -8.79092115 </i>
   </energy>
  </scstep>
  <scstep>
   <time name="dav">    2.48    2.48</time>
   <time name="total">    8.49    8.53</time>
   <energy>
    <i name="e_fr_energy">     -8.77425339 </i>
    <i name="e_wo_entrp">     -8.76794824 </i>
    <i name="e_0_energy">     -8.77215167 </i>
   </energy>
  </scstep>
  <scstep>
   <time name="dav">    2.33    2.33</time>
   <time name="total">    8.31    8.33</time>
   <energy>
    <i name="e_fr_energy">     -8.67647021 </i>
    <i name="e_wo_entrp">     -8.64838485 </i>
    <i name="e_0_energy">     -8.66710842 </i>
   </energy>
  </scstep>
  <scstep>
   <time name="dav">    2.33    2.33</time>
   <time name="total">    8.30    8.31</time>
   <energy>
    <i name="e_fr_energy">     -8.74553365 </i>
    <i name="e_wo_entrp">     -8.71750655 </i>
    <i name="e_0_energy">     -8.73619128 </i>
   </energy>
  </scstep>
  <scstep>
   <time name="dav">    2.64    2.64</time>
   <time name="total">    8.62    8.65</time>
   <energy>
    <i name="e_fr_energy">     -8.74598136 </i>
    <i name="e_wo_entrp">     -8.71781537 </i>
    <i name="e_0_energy">     -8.73659270 </i>
   </energy>
  </scstep>
  <scstep>
   <time name="dav">    2.85    2.85</time>
   <time name="total">   10.01   10.03</time>
   <energy>
    <i name="e_fr_energy">     -8.74848588 </i>
    <i name="e_wo_entrp">     -8.72029342 </i>
    <i name="e_0_energy">     -8.73908839 </i>
   </energy>
  </scstep>
  <scstep>
   <time name="dav">    2.85    2.85</time>
   <time name="total">    8.75    8.77</time>
   <energy>
    <i name="alphaZ">      0.57280012 </i>
    <i name="ewald">    126.15054829 </i>
    <i name="hartreedc">   -860.18289135 </i>
    <i name="XCdc">     55.02039721 </i>
    <i name="pawpsdc">    564.00564904 </i>
    <i name="pawaedc">   -567.70115684 </i>
    <i name="eentropy">     -0.02820475 </i>
    <i name="bandstr">   -191.29853683 </i>
    <i name="atom">    864.71286919 </i>
    <i name="e_fr_energy">     -8.74852592 </i>
    <i name="e_wo_entrp">     -8.72032117 </i>
    <i name="e_0_energy">     -8.73912434 </i>
   </energy>
  </scstep>
  <parameters_embedded>
   <separator name="dft+d2" >
    <i type="logical" name="LVDW"> F  </i>
   </separator>
  </parameters_embedded>
  <structure>
   <crystal>
    <varray name="basis" >
     <v>       9.80000000       0.00000000       0.00000000 </v>
     <v>       0.00000000       9.90000000       0.00000000 </v>
     <v>       0.00000000       0.00000000      10.00000000 </v>
    </varray>
    <i name="volume">    970.20000000 </i>
    <varray name="rec_basis" >
     <v>       0.10204082       0.00000000       0.00000000 </v>
     <v>       0.00000000       0.10101010       0.00000000 </v>
     <v>       0.00000000       0.00000000       0.10000000 </v>
    </varray>
   </crystal>
   <varray name="positions" >
    <v>       0.00000000       0.00000000       0.00000000 </v>
    <v>       0.12551020       0.00000000       0.00000000 </v>
   </varray>
  </structure>
  <varray name="forces" >
   <v>      -0.33503067       0.00000000       0.00000000 </v>
   <v>       0.33503067       0.00000000       0.00000000 </v>
  </varray>
  <varray name="stress" >
   <v>       0.53525228       0.00000000       0.00000000 </v>
   <v>       0.00000000      -0.30760215       0.00000000 </v>
   <v>       0.00000000       0.00000000      -0.02123457 </v>
  </varray>
  <energy>
   <i name="e_fr_energy">     -8.74852592 </i>
   <i name="e_wo_entrp">     -8.73912434 </i>
   <i name="e_0_energy">     -0.02820475 </i>
  </energy>
  <time name="totalsc">   98.60   99.48</time>
 </calculation>
 <calculation>
  <scstep>
   <time name="dav">    2.99    2.99</time>
   <time name="total">    9.82    9.83</time>
   <energy>
    <i name="alphaZ">      0.57280012 </i>
    <i name="ewald">    115.45656009 </i>
    <i name="hartreedc">   -852.32700557 </i>
    <i name="XCdc">     54.88235197 </i>
    <i name="pawpsdc">    563.89160532 </i>
    <i name="pawaedc">   -567.58663268 </i>
    <i name="eentropy">     -0.02820937 </i>
    <i name="bandstr">   -188.29888790 </i>
    <i name="atom">    864.71286919 </i>
    <i name="e_fr_energy">     -8.72454882 </i>
    <i name="e_wo_entrp">     -8.69633945 </i>
    <i name="e_0_energy">     -8.71514570 </i>
   </energy>
  </scstep>
  <scstep>
   <time name="dav">    2.64    2.64</time>
   <time name="total">    8.61    8.62</time>
   <energy>
    <i name="e_fr_energy">     -8.72460346 </i>
    <i name="e_wo_entrp">     -8.69639803 </i>
    <i name="e_0_energy">     -8.71520165 </i>
   </energy>
  </scstep>
  <scstep>
   <time name="dav">    2.63    2.63</time>
   <time name="total">    8.50    8.52</time>
   <energy>
    <i name="e_fr_energy">     -8.72472768 </i>
    <i name="e_wo_entrp">     -8.69692284 </i>
    <i name="e_0_energy">     -8.71545940 </i>
   </energy>
  </scstep>
  <scstep>
   <time name="dav">    2.46    2.47</time>
   <time name="total">    8.31    8.32</time>
   <energy>
    <i name="e_fr_energy">     -8.72106234 </i>
    <i name="e_wo_entrp">     -8.69286896 </i>
    <i name="e_0_energy">     -8.71166454 </i>
   </energy>
  </scstep>
  <scstep>
   <time name="dav">    2.31    2.31</time>
   <time name="total">    8.21    8.23</time>
   <energy>
    <i name="e_fr_energy">     -8.72442478 </i>
    <i name="e_wo_entrp">     -8.69621631 </i>
    <i name="e_0_energy">     -8.71502195 </i>
   </energy>
  </scstep>
  <scstep>
   <time name="dav">    2.31    2.31</time>
   <time name="total">    8.29    8.33</time>
   <energy>
    <i name="e_fr_energy">     -8.72454149 </i>
    <i name="e_wo_entrp">     -8.69633217 </i>
    <i name="e_0_energy">     -8.71513839 </i>
   </energy>
  </scstep>
  <scstep>
   <time name="dav">    2.46    2.46</time>
   <time name="total">    7.50    7.52</time>
   <energy>
    <i name="alphaZ">      0.57280012 </i>
    <i name="ewald">    115.45656009 </i>
    <i name="hartreedc">   -850.94627417 </i>
    <i name="XCdc">     54.79035174 </i>
    <i name="pawpsdc">    554.22570194 </i>
    <i name="pawaedc">   -557.87724373 </i>
    <i name="eentropy">     -0.02820945 </i>
    <i name="bandstr">   -189.63113809 </i>
    <i name="atom">    864.71286919 </i>
    <i name="e_fr_energy">     -8.72458235 </i>
    <i name="e_wo_entrp">     -8.69637291 </i>
    <i name="e_0_energy">     -8.71517921 </i>
   </energy>
  </scstep>
  <structure>
   <crystal>
    <varray name="basis" >
     <v>       9.80000000       0.00000000       0.00000000 </v>
     <v>       0.00000000       9.90000000       0.00000000 </v>
     <v>       0.00000000       0.00000000      10.00000000 </v>
    </varray>
    <i name="volume">    970.20000000 </i>
    <varray name="rec_basis" >
     <v>       0.10204082       0.00000000       0.00000000 </v>
     <v>       0.00000000       0.10101010       0.00000000 </v>
     <v>       0.00000000       0.00000000       0.10000000 </v>
    </varray>
   </crystal>
   <varray name="positions" >
    <v>      -0.00164926       0.00000000       0.00000000 </v>
    <v>       0.12715947       0.00000000       0.00000000 </v>
   </varray>
  </structure>
  <varray name="forces" >
   <v>       1.76646809       0.00000000       0.00000000 </v>
   <v>      -1.76646809       0.00000000       0.00000000 </v>
  </varray>
  <varray name="stress" >
   <v>      -3.81387798       0.00000000       0.00000000 </v>
   <v>       0.00000000      -0.15364739       0.00000000 </v>
   <v>       0.00000000       0.00000000      -0.17091112 </v>
  </varray>
  <energy>
   <i name="e_fr_energy">     -8.72458235 </i>
   <i name="e_wo_entrp">     -8.71517921 </i>
   <i name="e_0_energy">     -0.02820945 </i>
  </energy>
  <time name="totalsc">   68.10   68.26</time>
 </calculation>
 <calculation>
  <scstep>
   <time name="dav">    2.61    2.61</time>
   <time name="total">    8.53    8.53</time>
   <energy>
    <i name="alphaZ">      0.57280012 </i>
    <i name="ewald">    124.40762546 </i>
    <i name="hartreedc">   -857.57782659 </i>
    <i name="XCdc">     54.90629446 </i>
    <i name="pawpsdc">    554.22048650 </i>
    <i name="pawaedc">   -557.87209387 </i>
    <i name="eentropy">     -0.02820947 </i>
    <i name="bandstr">   -192.09148196 </i>
    <i name="atom">    864.71286919 </i>
    <i name="e_fr_energy">     -8.74953616 </i>
    <i name="e_wo_entrp">     -8.72132669 </i>
    <i name="e_0_energy">     -8.74013300 </i>
   </energy>
  </scstep>
  <scstep>
   <time name="dav">    2.30    2.30</time>
   <time name="total">    8.35    8.35</time>
   <energy>
    <i name="e_fr_energy">     -8.74993885 </i>
    <i name="e_wo_entrp">     -8.72172961 </i>
    <i name="e_0_energy">     -8.74053577 </i>
   </energy>
  </scstep>
  <scstep>
   <time name="dav">    2.47    2.47</time>
   <time name="total">    8.51    8.52</time>
   <energy>
    <i name="e_fr_energy">     -8.74974443 </i>
    <i name="e_wo_entrp">     -8.72156154 </i>
    <i name="e_0_energy">     -8.74035013 </i>
   </energy>
  </scstep>
  <scstep>
   <time name="dav">    2.49    2.49</time>
   <time name="total">    8.55    8.57</time>
   <energy>
    <i name="e_fr_energy">     -8.74965369 </i>
    <i name="e_wo_entrp">     -8.72159284 </i>
    <i name="e_0_energy">     -8.74030007 </i>
   </energy>
  </scstep>
  <scstep>
   <time name="dav">    2.33    2.34</time>
   <time name="total">    8.36    8.38</time>
   <energy>
    <i name="e_fr_energy">     -8.74853160 </i>
    <i name="e_wo_entrp">     -8.72032305 </i>
    <i name="e_0_energy">     -8.73912875 </i>
   </energy>
  </scstep>
  <scstep>
   <time name="dav">    2.33    2.33</time>
   <time name="total">    8.29    8.31</time>
   <energy>
    <i name="e_fr_energy">     -8.74979705 </i>
    <i name="e_wo_entrp">     -8.72158921 </i>
    <i name="e_0_energy">     -8.74039444 </i>
   </energy>
  </scstep>
  <scstep>
   <time name="dav">    2.49    2.49</time>
   <time name="total">    7.48    7.49</time>
   <energy>
    <i name="alphaZ">      0.57280012 </i>
    <i name="ewald">    124.40762546 </i>
    <i name="hartreedc">   -858.76160732 </i>
    <i name="XCdc">     54.98347204 </i>
    <i name="pawpsdc">    562.30491412 </i>
    <i name="pawaedc">   -565.99260982 </i>
    <i name="eentropy">     -0.02820948 </i>
    <i name="bandstr">   -190.94905111 </i>
    <i name="atom">    864.71286919 </i>
    <i name="e_fr_energy">     -8.74979679 </i>
    <i name="e_wo_entrp">     -8.72158731 </i>
    <i name="e_0_energy">     -8.74039363 </i>
   </energy>
  </scstep>
  <structure>
   <crystal>
    <varray name="basis" >
     <v>       9.80000000       0.00000000       0.00000000 </v>
     <v>       0.00000000       9.90000000       0.00000000 </v>
     <v>       0.00000000       0.00000000      10.00000000 </v>
    </varray>
    <i name="volume">    970.20000000 </i>
    <varray name="rec_basis" >
     <v>       0.10204082       0.00000000       0.00000000 </v>
     <v>       0.00000000       0.10101010       0.00000000 </v>
     <v>       0.00000000       0.00000000       0.10000000 </v>
    </varray>
   </crystal>
   <varray name="positions" >
    <v>      -0.00026293       0.00000000       0.00000000 </v>
    <v>       0.12577314       0.00000000       0.00000000 </v>
   </varray>
  </structure>
  <varray name="forces" >
   <v>       0.03490103       0.00000000       0.00000000 </v>
   <v>      -0.03490103       0.00000000       0.00000000 </v>
  </varray>
  <varray name="stress" >
   <v>      -0.21921484       0.00000000       0.00000000 </v>
   <v>       0.00000000      -0.17516055       0.00000000 </v>
   <v>       0.00000000       0.00000000      -0.16720788 </v>
  </varray>
  <energy>
   <i name="e_fr_energy">     -8.74979679 </i>
   <i name="e_wo_entrp">     -8.74039363 </i>
   <i name="e_0_energy">     -0.02820948 </i>
  </energy>
  <time name="totalsc">   66.41   67.03</time>
  <eigenvalues>
   <array>
    <dimension dim="1">band</dimension>
    <dimension dim="2">kpoint</dimension>
    <dimension dim="3">spin</dimension>
    <field>eigene</field>
    <field>occ</field>
    <set>
     <set comment="spin 1">
      <set comment="kpoint 1">
       <r>  -31.9371    1.0000 </r>
       <r>  -19.8293    1.0000 </r>
       <r>  -12.9688    1.0000 </r>
       <r>  -12.4061    1.0000 </r>
       <r>  -12.4061    1.0000 </r>
       <r>   -5.9271    0.5000 </r>
       <r>   -5.9271    0.5000 </r>
       <r>   -0.3112    0.0000 </r>
       <r>    0.9493    0.0000 </r>
       <r>    1.1260    0.0000 </r>
      </set>
     </set>
    </set>
   </array>
  </eigenvalues>
  <separator name="orbital magnetization" >
   <v name="MAGDIPOLOUT">      0.00000000      0.00000000      0.00000000</v>
  </separator>
 </calculation>
 <structure name="finalpos" >
  <crystal>
   <varray name="basis" >
    <v>       9.80000000       0.00000000       0.00000000 </v>
    <v>       0.00000000       9.90000000       0.00000000 </v>
    <v>       0.00000000       0.00000000      10.00000000 </v>
   </varray>
   <i name="volume">    970.20000000 </i>
   <varray name="rec_basis" >
    <v>       0.10204082       0.00000000       0.00000000 </v>
    <v>       0.00000000       0.10101010       0.00000000 </v>
    <v>       0.00000000       0.00000000       0.10000000 </v>
   </varray>
  </crystal>
  <varray name="positions" >
   <v>      -0.00026293       0.00000000       0.00000000 </v>
   <v>       0.12577314       0.00000000       0.00000000 </v>
  </varray>
 </structure>
</modeling>
