    2    2   50    1
  0.5000000E+03  0.1000000E-08  0.1000000E-08  0.1000000E-08  0.5000000E-15
  1.000000000000000E-004
  CAR 
 unknown system                          
   10    1    9
 
  0.0000000E+00  0.0000000E+00  0.0000000E+00  0.1000000E+01
   1      -29.126178
   2      -13.911493
   3      -11.610538
   4      -11.610538
   5       -8.916164
   6       -2.021364
   7       -2.021364
   8       -0.257529
   9        1.085376
