       N       E                     dE             d eps       ncg     rms          rms(c)
DAV:   1     0.797294567744E+02    0.79729E+02   -0.21644E+03    18   0.574E+02
DAV:   2     0.289159870446E+01   -0.76838E+02   -0.76806E+02    35   0.121E+02
DAV:   3    -0.149937705667E+02   -0.17885E+02   -0.17882E+02    36   0.718E+01
DAV:   4    -0.152915033474E+02   -0.29773E+00   -0.29773E+00    28   0.962E+00
DAV:   5    -0.152916994498E+02   -0.19610E-03   -0.19610E-03    20   0.286E-01    0.590E+00
DAV:   6    -0.147722512551E+02    0.51945E+00   -0.46002E+00    19   0.143E+01    0.331E+00
DAV:   7    -0.146475482832E+02    0.12470E+00   -0.88299E-01    19   0.582E+00    0.167E+00
DAV:   8    -0.146116456303E+02    0.35903E-01   -0.12884E-01    18   0.286E+00    0.326E-01
DAV:   9    -0.146112986828E+02    0.34695E-03   -0.91314E-03    20   0.694E-01    0.148E-01
DAV:  10    -0.146120693073E+02   -0.77062E-03   -0.24323E-03    18   0.394E-01    0.348E-02
DAV:  11    -0.146133162703E+02   -0.12470E-02   -0.53240E-04    19   0.157E-01    0.255E-02
DAV:  12    -0.146141342842E+02   -0.81801E-03   -0.12944E-04    18   0.746E-02    0.115E-02
DAV:  13    -0.146150802745E+02   -0.94599E-03   -0.12009E-04    18   0.535E-02    0.464E-03
DAV:  14    -0.146153207388E+02   -0.24046E-03   -0.14319E-05    19   0.199E-02    0.347E-03
DAV:  15    -0.146155376627E+02   -0.21692E-03   -0.17531E-05    20   0.199E-02    0.190E-03
DAV:  16    -0.146155830470E+02   -0.45384E-04   -0.27048E-06    20   0.968E-03
   1 F= -.14615583E+02 E0= -.14616549E+02  d E =-.146156E+02
       N       E                     dE             d eps       ncg     rms          rms(c)
DAV:   1     0.228460693998E+02    0.37462E+02   -0.77107E+02    18   0.295E+02    0.117E+01
DAV:   2     0.245779418531E+02    0.17319E+01   -0.25225E+01    34   0.568E+01    0.827E+00
DAV:   3     0.262353423930E+02    0.16574E+01   -0.12054E+01    36   0.361E+01    0.240E+00
DAV:   4     0.263320251186E+02    0.96683E-01   -0.14642E+00    18   0.120E+01    0.126E+00
DAV:   5     0.263575124244E+02    0.25487E-01   -0.15002E-01    35   0.467E+00    0.187E-01
DAV:   6     0.263554385049E+02   -0.20739E-02   -0.45957E-03    20   0.586E-01    0.966E-02
DAV:   7     0.263533513197E+02   -0.20872E-02   -0.10055E-03    18   0.306E-01    0.405E-02
DAV:   8     0.263496658466E+02   -0.36855E-02   -0.16784E-03    20   0.236E-01    0.436E-02
DAV:   9     0.263477781554E+02   -0.18877E-02   -0.72680E-04    20   0.265E-01    0.332E-02
DAV:  10     0.263461934956E+02   -0.15847E-02   -0.38405E-04    20   0.149E-01    0.906E-03
DAV:  11     0.263458635857E+02   -0.32991E-03   -0.69474E-05    28   0.637E-02    0.127E-02
DAV:  12     0.263456358726E+02   -0.22771E-03   -0.30889E-05    18   0.382E-02    0.541E-03
DAV:  13     0.263455584075E+02   -0.77465E-04   -0.10620E-05    20   0.285E-02
   2 F= 0.26345558E+02 E0= 0.26344592E+02  d E =0.409611E+02
       N       E                     dE             d eps       ncg     rms          rms(c)
DAV:   1    -0.193734534544E+02   -0.45719E+02   -0.74933E+02    18   0.295E+02    0.138E+01
DAV:   2    -0.157295500266E+02    0.36439E+01   -0.21408E+01    34   0.434E+01    0.648E+00
DAV:   3    -0.147876406164E+02    0.94191E+00   -0.47918E+00    28   0.156E+01    0.285E+00
DAV:   4    -0.146519579833E+02    0.13568E+00   -0.66609E-01    28   0.819E+00    0.921E-01
DAV:   5    -0.146527351842E+02   -0.77720E-03   -0.46444E-02    19   0.223E+00    0.349E-01
DAV:   6    -0.146532723207E+02   -0.53714E-03   -0.15256E-02    19   0.892E-01    0.869E-02
DAV:   7    -0.146540808964E+02   -0.80858E-03   -0.61323E-04    19   0.210E-01    0.471E-02
DAV:   8    -0.146555898518E+02   -0.15090E-02   -0.11568E-03    19   0.246E-01    0.547E-02
DAV:   9    -0.146562872804E+02   -0.69743E-03   -0.49115E-04    19   0.156E-01    0.131E-02
DAV:  10    -0.146566970534E+02   -0.40977E-03   -0.54805E-05    20   0.576E-02    0.954E-03
DAV:  11    -0.146569001030E+02   -0.20305E-03   -0.19497E-05    20   0.267E-02    0.595E-03
DAV:  12    -0.146570209922E+02   -0.12089E-03   -0.55815E-06    18   0.170E-02    0.217E-03
DAV:  13    -0.146570686326E+02   -0.47640E-04   -0.23207E-06    18   0.858E-03
   3 F= -.14657069E+02 E0= -.14658035E+02  d E =-.410026E+02
       N       E                     dE             d eps       ncg     rms          rms(c)
DAV:   1    -0.146885719863E+02   -0.31551E-01   -0.13368E-01    20   0.384E+00    0.109E-01
DAV:   2    -0.146885412568E+02    0.30730E-04   -0.30446E-03    18   0.514E-01    0.641E-02
DAV:   3    -0.146884474933E+02    0.93763E-04   -0.28427E-04    19   0.158E-01
   4 F= -.14688447E+02 E0= -.14689414E+02  d E =-.313789E-01
       N       E                     dE             d eps       ncg     rms          rms(c)
DAV:   1    -0.147778831186E+02   -0.89342E-01   -0.64175E+00    18   0.268E+01    0.770E-01
DAV:   2    -0.147755380133E+02    0.23451E-02   -0.13865E-01    19   0.364E+00    0.473E-01
DAV:   3    -0.147699653861E+02    0.55726E-02   -0.19097E-02    20   0.129E+00    0.124E-01
DAV:   4    -0.147698893192E+02    0.76067E-04   -0.65777E-04    20   0.247E-01
   5 F= -.14769889E+02 E0= -.14770856E+02  d E =-.814418E-01
       N       E                     dE             d eps       ncg     rms          rms(c)
DAV:   1    -0.147747582162E+02   -0.47928E-02   -0.27201E-01    18   0.554E+00    0.161E-01
DAV:   2    -0.147747877382E+02   -0.29522E-04   -0.60115E-03    20   0.746E-01    0.915E-02
DAV:   3    -0.147747280665E+02    0.59672E-04   -0.74611E-04    20   0.255E-01
   6 F= -.14774728E+02 E0= -.14775694E+02  d E =-.483875E-02
       N       E                     dE             d eps       ncg     rms          rms(c)
DAV:   1    -0.147749170852E+02   -0.12935E-03   -0.46983E-03    20   0.726E-01    0.195E-02
DAV:   2    -0.147749567766E+02   -0.39691E-04   -0.10860E-04    20   0.101E-01
   7 F= -.14774957E+02 E0= -.14775923E+02  d E =-.228710E-03
