<?xml version="1.0" encoding="ISO-8859-1"?>
<modeling>
 <generator>
  <i name="program" type="string">vasp </i>
  <i name="version" type="string">5.2.12  </i>
  <i name="subversion" type="string">11Nov11 complex                                                      parallel </i>
  <i name="platform" type="string">LinuxIFC </i>
  <i name="date" type="string">2012 10 09 </i>
  <i name="time" type="string">20:13:03 </i>
 </generator>
 <incar>
  <i type="string" name="PREC">accurate</i>
  <i type="int" name="IBRION">     1</i>
  <i name="EDIFFG">     -0.05000000</i>
  <i type="int" name="NSW">    50</i>
  <i type="int" name="ISIF">     2</i>
  <i name="ENCUT">    450.00000000</i>
  <i type="logical" name="LREAL"> F  </i>
  <i type="int" name="ISMEAR">     1</i>
  <i name="SIGMA">      0.05000000</i>
 </incar>
 <kpoints>
  <generation param="Monkhorst-Pack">
   <v type="int" name="divisions">       1        1        1 </v>
   <v name="usershift">      0.00000000       0.00000000       0.00000000 </v>
   <v name="genvec1">      1.00000000       0.00000000       0.00000000 </v>
   <v name="genvec2">      0.00000000       1.00000000       0.00000000 </v>
   <v name="genvec3">      0.00000000       0.00000000       1.00000000 </v>
   <v name="shift">      0.00000000       0.00000000       0.00000000 </v>
  </generation>
  <varray name="kpointlist" >
   <v>       0.00000000       0.00000000       0.00000000 </v>
  </varray>
  <varray name="weights" >
   <v>       1.00000000 </v>
  </varray>
 </kpoints>
 <parameters>
  <separator name="general" >
   <i type="string" name="SYSTEM">unknown system</i>
   <i type="logical" name="LCOMPAT"> F  </i>
  </separator>
  <separator name="electronic" >
   <i type="string" name="PREC">accura</i>
   <i name="ENMAX">    450.00000000</i>
   <i name="ENAUG">    644.87300000</i>
   <i name="EDIFF">      0.00010000</i>
   <i type="int" name="IALGO">    38</i>
   <i type="int" name="IWAVPR">    11</i>
   <i type="int" name="NBANDS">     9</i>
   <i name="NELECT">     10.00000000</i>
   <i type="int" name="TURBO">     0</i>
   <i type="int" name="IRESTART">     0</i>
   <i type="int" name="NREBOOT">     0</i>
   <i type="int" name="NMIN">     0</i>
   <i name="EREF">      0.00000000</i>
   <separator name="electronic smearing" >
    <i type="int" name="ISMEAR">     1</i>
    <i name="SIGMA">      0.05000000</i>
    <i name="KSPACING">      0.50000000</i>
    <i type="logical" name="KGAMMA"> T  </i>
   </separator>
   <separator name="electronic projectors" >
    <i type="logical" name="LREAL"> F  </i>
    <v name="ROPT">      0.00000000      0.00000000</v>
    <i type="int" name="LMAXPAW">  -100</i>
    <i type="int" name="LMAXMIX">     2</i>
    <i type="logical" name="NLSPLINE"> F  </i>
   </separator>
   <separator name="electronic startup" >
    <i type="int" name="ISTART">     0</i>
    <i type="int" name="ICHARG">     2</i>
    <i type="int" name="INIWAV">     1</i>
   </separator>
   <separator name="electronic spin" >
    <i type="int" name="ISPIN">     1</i>
    <i type="logical" name="LNONCOLLINEAR"> F  </i>
    <v name="MAGMOM">      1.00000000      1.00000000</v>
    <i name="NUPDOWN">     -1.00000000</i>
    <i type="logical" name="LSORBIT"> F  </i>
    <v name="SAXIS">      0.00000000      0.00000000      1.00000000</v>
    <i type="logical" name="LSPIRAL"> F  </i>
    <v name="QSPIRAL">      0.00000000      0.00000000      0.00000000</v>
    <i type="logical" name="LZEROZ"> F  </i>
   </separator>
   <separator name="electronic exchange-correlation" >
    <i type="logical" name="LASPH"> F  </i>
    <i type="logical" name="LMETAGGA"> F  </i>
   </separator>
   <separator name="electronic convergence" >
    <i type="int" name="NELM">    60</i>
    <i type="int" name="NELMDL">    -5</i>
    <i type="int" name="NELMIN">     2</i>
    <i name="ENINI">    450.00000000</i>
    <separator name="electronic convergence detail" >
     <i type="logical" name="LDIAG"> T  </i>
     <i type="logical" name="LSUBROT"> T  </i>
     <i name="WEIMIN">      0.00100000</i>
     <i name="EBREAK">      0.00000278</i>
     <i name="DEPER">      0.30000000</i>
     <i type="int" name="NRMM">     4</i>
     <i name="TIME">      0.40000000</i>
    </separator>
   </separator>
   <separator name="electronic mixer" >
    <i name="AMIX">      0.40000000</i>
    <i name="BMIX">      1.00000000</i>
    <i name="AMIN">      0.10000000</i>
    <i name="AMIX_MAG">      1.60000000</i>
    <i name="BMIX_MAG">      1.00000000</i>
    <separator name="electronic mixer details" >
     <i type="int" name="IMIX">     4</i>
     <i type="int" name="MAXMIX">   -45</i>
     <i name="WC">    100.00000000</i>
     <i type="int" name="INIMIX">     1</i>
     <i type="int" name="MIXPRE">     1</i>
     <i type="int" name="MREMOVE">     5</i>
    </separator>
   </separator>
   <separator name="electronic dipolcorrection" >
    <i type="logical" name="LDIPOL"> F  </i>
    <i type="logical" name="LMONO"> F  </i>
    <i type="int" name="IDIPOL">     0</i>
    <i name="EPSILON">      1.00000000</i>
    <v name="DIPOL">   -100.00000000   -100.00000000   -100.00000000</v>
    <i name="EFIELD">      0.00000000</i>
   </separator>
  </separator>
  <separator name="grids" >
   <i type="int" name="NGX">    70</i>
   <i type="int" name="NGY">    70</i>
   <i type="int" name="NGZ">    70</i>
   <i type="int" name="NGXF">   140</i>
   <i type="int" name="NGYF">   140</i>
   <i type="int" name="NGZF">   140</i>
   <i type="logical" name="ADDGRID"> F  </i>
  </separator>
  <separator name="ionic" >
   <i type="int" name="NSW">    50</i>
   <i type="int" name="IBRION">     1</i>
   <i type="int" name="ISIF">     2</i>
   <i name="PSTRESS">      0.00000000</i>
   <i name="EDIFFG">     -0.05000000</i>
   <i type="int" name="NFREE">     0</i>
   <i name="POTIM">      0.50000000</i>
   <i name="SMASS">     -3.00000000</i>
   <i name="SCALEE">      1.00000000</i>
  </separator>
  <separator name="ionic md" >
   <i name="TEBEG">      0.00010000</i>
   <i name="TEEND">      0.00010000</i>
   <i type="int" name="NBLOCK">     1</i>
   <i type="int" name="KBLOCK">    50</i>
   <i type="int" name="NPACO">   256</i>
   <i name="APACO">     16.00000000</i>
  </separator>
  <separator name="symmetry" >
   <i type="int" name="ISYM">     2</i>
   <i name="SYMPREC">      0.00001000</i>
  </separator>
  <separator name="dos" >
   <i type="logical" name="LORBIT"> F  </i>
   <v name="RWIGS">     -1.00000000     -1.00000000</v>
   <i type="int" name="NEDOS">   301</i>
   <i name="EMIN">     10.00000000</i>
   <i name="EMAX">    -10.00000000</i>
   <i name="EFERMI">      0.00000000</i>
  </separator>
  <separator name="writing" >
   <i type="int" name="NWRITE">     2</i>
   <i type="logical" name="LWAVE"> T  </i>
   <i type="logical" name="LCHARG"> T  </i>
   <i type="logical" name="LPARD"> F  </i>
   <i type="logical" name="LVTOT"> F  </i>
   <i type="logical" name="LVHAR"> F  </i>
   <i type="logical" name="LELF"> F  </i>
   <i type="logical" name="LOPTICS"> F  </i>
   <v name="STM">      0.00000000      0.00000000      0.00000000      0.00000000      0.00000000      0.00000000      0.00000000</v>
  </separator>
  <separator name="performance" >
   <i type="int" name="NPAR">     1</i>
   <i type="int" name="NSIM">     4</i>
   <i type="int" name="NBLK">    -1</i>
   <i type="logical" name="LPLANE"> T  </i>
   <i type="logical" name="LSCALAPACK"> F  </i>
   <i type="logical" name="LSCAAWARE"> F  </i>
   <i type="logical" name="LSCALU"> F  </i>
   <i type="logical" name="LASYNC"> F  </i>
   <i type="logical" name="LORBITALREAL"> F  </i>
  </separator>
  <separator name="miscellaneous" >
   <i type="int" name="IDIOT">     3</i>
   <i type="logical" name="LMUSIC"> F  </i>
   <v name="POMASS">     12.01100000     16.00000000</v>
   <v name="DARWINR">      0.00000000      0.00000000</v>
   <v name="DARWINV">      1.00000000      1.00000000</v>
   <i type="logical" name="LCORR"> T  </i>
  </separator>
  <i type="logical" name="GGA_COMPAT"> T  </i>
  <i type="logical" name="LBERRY"> F  </i>
  <i type="int" name="ICORELEVEL">     0</i>
  <i type="logical" name="LDAU"> F  </i>
  <i type="int" name="I_CONSTRAINED_M">     0</i>
  <separator name="electronic exchange-correlation" >
   <i type="string" name="GGA">--</i>
   <i type="int" name="VOSKOWN">     0</i>
   <i type="logical" name="LHFCALC"> F  </i>
   <i type="string" name="PRECFOCK"></i>
   <i type="logical" name="LHFONE"> F  </i>
   <i type="logical" name="LRHFCALC"> F  </i>
   <i type="logical" name="LTHOMAS"> F  </i>
   <i type="logical" name="LMODELHF"> F  </i>
   <i name="ENCUT4O">     -1.00000000</i>
   <i type="int" name="EXXOEP">     0</i>
   <i type="int" name="FOURORBIT">     0</i>
   <i name="AEXX">      0.00000000</i>
   <i name="HFALPHA">      0.00000000</i>
   <i name="ALDAX">      1.00000000</i>
   <i name="AGGAX">      1.00000000</i>
   <i name="ALDAC">      1.00000000</i>
   <i name="AGGAC">      1.00000000</i>
   <i type="int" name="NKREDX">     1</i>
   <i type="int" name="NKREDY">     1</i>
   <i type="int" name="NKREDZ">     1</i>
   <i type="logical" name="SHIFTRED"> F  </i>
   <i type="logical" name="ODDONLY"> F  </i>
   <i type="logical" name="EVENONLY"> F  </i>
   <i type="int" name="LMAXFOCK">     0</i>
   <i type="int" name="NMAXFOCKAE">     0</i>
   <i type="logical" name="LFOCKAEDFT"> F  </i>
   <i name="HFSCREEN">      0.00000000</i>
   <i name="HFSCREENC">      0.00000000</i>
  </separator>
  <separator name="vdW DFT" >
   <i type="logical" name="LUSE_VDW"> F  </i>
   <i name="Zab_VDW">     -0.84910000</i>
   <i name="PARAM1">      0.12340000</i>
   <i name="PARAM2">      1.00000000</i>
   <i name="PARAM3">      0.00000000</i>
  </separator>
  <separator name="model GW" >
   <i type="int" name="MODEL_GW">     0</i>
   <i name="MODEL_EPS0">    300.00000000</i>
   <i name="MODEL_ALPHA">      1.00000000</i>
  </separator>
  <separator name="linear response parameters" >
   <i type="logical" name="LEPSILON"> F  </i>
   <i type="logical" name="LRPA"> F  </i>
   <i type="logical" name="LNABLA"> F  </i>
   <i type="logical" name="LVEL"> F  </i>
   <i type="int" name="KINTER">     0</i>
   <i name="CSHIFT">      0.10000000</i>
   <i name="OMEGAMAX">     -1.00000000</i>
  </separator>
  <separator name="orbital magnetization" >
   <i type="logical" name="NUCIND"> F  </i>
   <v name="MAGPOS">      0.00000000      0.00000000      0.00000000</v>
   <i type="logical" name="LNICSALL"> T  </i>
   <i type="logical" name="ORBITALMAG"> F  </i>
   <i type="logical" name="LMAGBLOCH"> F  </i>
   <i type="logical" name="LCHIMAG"> F  </i>
   <i type="logical" name="LGAUGE"> T  </i>
   <i type="int" name="MAGATOM">     0</i>
   <v name="MAGDIPOL">      0.00000000      0.00000000      0.00000000</v>
   <v name="AVECCONST">      0.00000000      0.00000000      0.00000000</v>
  </separator>
  <separator name="response functions" >
   <i type="logical" name="LADDER"> F  </i>
   <i type="logical" name="LHARTREE"> T  </i>
   <i type="int" name="IBSE">     0</i>
   <i type="logical" name="LTCTE"> F  </i>
   <i type="logical" name="LTETE"> F  </i>
   <i type="logical" name="LFXCEPS"> F  </i>
   <i type="logical" name="L2ORDER"> F  </i>
   <i type="logical" name="LUSEW"> F  </i>
   <i name="ENCUTGW">     -2.00000000</i>
   <i name="ENCUTGWSOFT">     -2.00000000</i>
   <i name="ENCUTLF">     -1.00000000</i>
   <i type="int" name="LMAXMP2">    -1</i>
   <i name="SCISSOR">      0.00000000</i>
   <i type="int" name="NOMEGA">     0</i>
   <i type="int" name="NOMEGAR">     0</i>
   <i type="int" name="NBANDSGW">    -1</i>
   <i type="int" name="NBANDSO">    -1</i>
   <i type="int" name="NBANDSV">    -1</i>
   <i name="OPTEMAX">      0.00000000</i>
   <i type="int" name="NELM">     1</i>
   <i type="int" name="DIM">     3</i>
   <i type="int" name="ANTIRES">     0</i>
   <i name="OMEGAMAX">    -30.00000000</i>
   <i name="OMEGATL">   -200.00000000</i>
   <i type="int" name="OMEGAGRID">     0</i>
   <i name="CSHIFT">     -0.10000000</i>
   <i type="logical" name="SELFENERGY"> F  </i>
   <i type="logical" name="LSPECTRAL"> F  </i>
   <i type="logical" name="ODDONLYGW"> F  </i>
   <i type="logical" name="EVENONLYGW"> F  </i>
   <i type="int" name="NKREDLFX">     1</i>
   <i type="int" name="NKREDLFY">     1</i>
   <i type="int" name="NKREDLFZ">     1</i>
   <i type="int" name="MAXMEM">  1800</i>
   <i type="int" name="TELESCOPE">     0</i>
  </separator>
 </parameters>
 <atominfo>
  <atoms>       2 </atoms>
  <types>       2 </types>
  <array name="atoms" >
   <dimension dim="1">ion</dimension>
   <field type="string">element</field>
   <field type="int">atomtype</field>
   <set>
    <rc><c>C </c><c>   1</c></rc>
    <rc><c>O </c><c>   2</c></rc>
   </set>
  </array>
  <array name="atomtypes" >
   <dimension dim="1">type</dimension>
   <field type="int">atomspertype</field>
   <field type="string">element</field>
   <field>mass</field>
   <field>valence</field>
   <field type="string">pseudopotential</field>
   <set>
    <rc><c>   1</c><c>C </c><c>     12.01100000</c><c>      4.00000000</c><c> PAW_PBE C 08Apr2002                    </c></rc>
    <rc><c>   1</c><c>O </c><c>     16.00000000</c><c>      6.00000000</c><c> PAW_PBE O 08Apr2002                    </c></rc>
   </set>
  </array>
 </atominfo>
 <structure name="initialpos" >
  <crystal>
   <varray name="basis" >
    <v>      10.00000000       0.00000000       0.00000000 </v>
    <v>       0.00000000      10.00000000       0.00000000 </v>
    <v>       0.00000000       0.00000000      10.00000000 </v>
   </varray>
   <i name="volume">   1000.00000000 </i>
   <varray name="rec_basis" >
    <v>       0.10000000       0.00000000       0.00000000 </v>
    <v>       0.00000000       0.10000000       0.00000000 </v>
    <v>       0.00000000       0.00000000       0.10000000 </v>
   </varray>
  </crystal>
  <varray name="positions" >
   <v>       0.00000000       0.00000000       0.00000000 </v>
   <v>       0.12000000       0.00000000       0.00000000 </v>
  </varray>
 </structure>
 <calculation>
  <scstep>
   <time name="dav">    3.17    5.04</time>
   <time name="total">   10.13   15.44</time>
   <energy>
    <i name="alphaZ">      0.43525486 </i>
    <i name="ewald">     84.77797003 </i>
    <i name="hartreedc">   -552.03476690 </i>
    <i name="XCdc">     39.59593917 </i>
    <i name="pawpsdc">    283.82984571 </i>
    <i name="pawaedc">   -286.83001101 </i>
    <i name="eentropy">      0.00289895 </i>
    <i name="bandstr">    -69.53191001 </i>
    <i name="atom">    579.48423596 </i>
    <i name="e_fr_energy">     79.72945677 </i>
    <i name="e_wo_entrp">     79.72655782 </i>
    <i name="e_0_energy">     79.72849046 </i>
   </energy>
  </scstep>
  <scstep>
   <time name="dav">    5.67    9.03</time>
   <time name="total">    5.68    9.04</time>
   <energy>
    <i name="e_fr_energy">      2.89159870 </i>
    <i name="e_wo_entrp">      2.88869975 </i>
    <i name="e_0_energy">      2.89063239 </i>
   </energy>
  </scstep>
  <scstep>
   <time name="dav">    5.58    8.17</time>
   <time name="total">    5.58    8.19</time>
   <energy>
    <i name="e_fr_energy">    -14.99377057 </i>
    <i name="e_wo_entrp">    -14.99666952 </i>
    <i name="e_0_energy">    -14.99473688 </i>
   </energy>
  </scstep>
  <scstep>
   <time name="dav">    4.28    5.32</time>
   <time name="total">    4.28    5.43</time>
   <energy>
    <i name="e_fr_energy">    -15.29150335 </i>
    <i name="e_wo_entrp">    -15.29440230 </i>
    <i name="e_0_energy">    -15.29246966 </i>
   </energy>
  </scstep>
  <scstep>
   <time name="dav">    3.14    4.30</time>
   <time name="total">    4.21    5.75</time>
   <energy>
    <i name="e_fr_energy">    -15.29169945 </i>
    <i name="e_wo_entrp">    -15.29459840 </i>
    <i name="e_0_energy">    -15.29266577 </i>
   </energy>
  </scstep>
  <scstep>
   <time name="dav">    2.54    2.54</time>
   <time name="total">    9.49   10.48</time>
   <energy>
    <i name="e_fr_energy">    -14.77225126 </i>
    <i name="e_wo_entrp">    -14.77515021 </i>
    <i name="e_0_energy">    -14.77321757 </i>
   </energy>
  </scstep>
  <scstep>
   <time name="dav">    2.73    2.73</time>
   <time name="total">    9.64    9.68</time>
   <energy>
    <i name="e_fr_energy">    -14.64754828 </i>
    <i name="e_wo_entrp">    -14.65044724 </i>
    <i name="e_0_energy">    -14.64851460 </i>
   </energy>
  </scstep>
  <scstep>
   <time name="dav">    2.62    2.62</time>
   <time name="total">    9.35    9.38</time>
   <energy>
    <i name="e_fr_energy">    -14.61164563 </i>
    <i name="e_wo_entrp">    -14.61454458 </i>
    <i name="e_0_energy">    -14.61261195 </i>
   </energy>
  </scstep>
  <scstep>
   <time name="dav">    2.88    3.01</time>
   <time name="total">    9.66   10.12</time>
   <energy>
    <i name="e_fr_energy">    -14.61129868 </i>
    <i name="e_wo_entrp">    -14.61419764 </i>
    <i name="e_0_energy">    -14.61226500 </i>
   </energy>
  </scstep>
  <scstep>
   <time name="dav">    2.80    3.77</time>
   <time name="total">   10.56   12.97</time>
   <energy>
    <i name="e_fr_energy">    -14.61206931 </i>
    <i name="e_wo_entrp">    -14.61496826 </i>
    <i name="e_0_energy">    -14.61303562 </i>
   </energy>
  </scstep>
  <scstep>
   <time name="dav">    3.28    4.52</time>
   <time name="total">   10.37   13.83</time>
   <energy>
    <i name="e_fr_energy">    -14.61331627 </i>
    <i name="e_wo_entrp">    -14.61621522 </i>
    <i name="e_0_energy">    -14.61428259 </i>
   </energy>
  </scstep>
  <scstep>
   <time name="dav">    3.48    4.65</time>
   <time name="total">   11.29   15.68</time>
   <energy>
    <i name="e_fr_energy">    -14.61413428 </i>
    <i name="e_wo_entrp">    -14.61703324 </i>
    <i name="e_0_energy">    -14.61510060 </i>
   </energy>
  </scstep>
  <scstep>
   <time name="dav">    3.49    5.47</time>
   <time name="total">   11.59   17.98</time>
   <energy>
    <i name="e_fr_energy">    -14.61508027 </i>
    <i name="e_wo_entrp">    -14.61797923 </i>
    <i name="e_0_energy">    -14.61604659 </i>
   </energy>
  </scstep>
  <scstep>
   <time name="dav">    3.71    6.50</time>
   <time name="total">   11.62   20.32</time>
   <energy>
    <i name="e_fr_energy">    -14.61532074 </i>
    <i name="e_wo_entrp">    -14.61821969 </i>
    <i name="e_0_energy">    -14.61628706 </i>
   </energy>
  </scstep>
  <scstep>
   <time name="dav">    3.93    6.18</time>
   <time name="total">   12.34   19.94</time>
   <energy>
    <i name="e_fr_energy">    -14.61553766 </i>
    <i name="e_wo_entrp">    -14.61843662 </i>
    <i name="e_0_energy">    -14.61650398 </i>
   </energy>
  </scstep>
  <scstep>
   <time name="dav">    3.67    5.16</time>
   <time name="total">   10.17   16.16</time>
   <energy>
    <i name="alphaZ">      0.43525486 </i>
    <i name="ewald">     84.77797003 </i>
    <i name="hartreedc">   -569.78165300 </i>
    <i name="XCdc">     40.64621577 </i>
    <i name="pawpsdc">    357.26813553 </i>
    <i name="pawaedc">   -360.32697246 </i>
    <i name="eentropy">      0.00289895 </i>
    <i name="bandstr">   -147.12166870 </i>
    <i name="atom">    579.48423596 </i>
    <i name="e_fr_energy">    -14.61558305 </i>
    <i name="e_wo_entrp">    -14.61848200 </i>
    <i name="e_0_energy">    -14.61654936 </i>
   </energy>
  </scstep>
  <parameters_embedded>
   <separator name="dft+d2" >
    <i type="logical" name="LVDW"> F  </i>
   </separator>
  </parameters_embedded>
  <structure>
   <crystal>
    <varray name="basis" >
     <v>      10.00000000       0.00000000       0.00000000 </v>
     <v>       0.00000000      10.00000000       0.00000000 </v>
     <v>       0.00000000       0.00000000      10.00000000 </v>
    </varray>
    <i name="volume">   1000.00000000 </i>
    <varray name="rec_basis" >
     <v>       0.10000000       0.00000000       0.00000000 </v>
     <v>       0.00000000       0.10000000       0.00000000 </v>
     <v>       0.00000000       0.00000000       0.10000000 </v>
    </varray>
   </crystal>
   <varray name="positions" >
    <v>       0.00000000       0.00000000       0.00000000 </v>
    <v>       0.12000000       0.00000000       0.00000000 </v>
   </varray>
  </structure>
  <varray name="forces" >
   <v>       5.26798257       0.00000000       0.00000000 </v>
   <v>      -5.26798257       0.00000000       0.00000000 </v>
  </varray>
  <varray name="stress" >
   <v>     -10.39877204       0.00000000       0.00000000 </v>
   <v>       0.00000000      -0.31806335       0.00000000 </v>
   <v>       0.00000000       0.00000000      -0.31806335 </v>
  </varray>
  <energy>
   <i name="e_fr_energy">    -14.61558305 </i>
   <i name="e_wo_entrp">    -14.61654936 </i>
   <i name="e_0_energy">      0.00289895 </i>
  </energy>
  <time name="totalsc">  163.57  228.57</time>
 </calculation>
 <calculation>
  <scstep>
   <time name="dav">    2.99    4.09</time>
   <time name="total">   10.04   14.34</time>
   <energy>
    <i name="alphaZ">      0.43525486 </i>
    <i name="ewald">    295.68523519 </i>
    <i name="hartreedc">   -651.83180629 </i>
    <i name="XCdc">     43.40393179 </i>
    <i name="pawpsdc">    357.25982234 </i>
    <i name="pawaedc">   -360.31855935 </i>
    <i name="eentropy">      0.00289895 </i>
    <i name="bandstr">   -241.27494405 </i>
    <i name="atom">    579.48423596 </i>
    <i name="e_fr_energy">     22.84606940 </i>
    <i name="e_wo_entrp">     22.84317045 </i>
    <i name="e_0_energy">     22.84510308 </i>
   </energy>
  </scstep>
  <scstep>
   <time name="dav">    4.64    5.63</time>
   <time name="total">   11.92   14.79</time>
   <energy>
    <i name="e_fr_energy">     24.57794185 </i>
    <i name="e_wo_entrp">     24.57504290 </i>
    <i name="e_0_energy">     24.57697554 </i>
   </energy>
  </scstep>
  <scstep>
   <time name="dav">    4.47    4.47</time>
   <time name="total">   11.56   11.77</time>
   <energy>
    <i name="e_fr_energy">     26.23534239 </i>
    <i name="e_wo_entrp">     26.23244344 </i>
    <i name="e_0_energy">     26.23437608 </i>
   </energy>
  </scstep>
  <scstep>
   <time name="dav">    2.64    2.81</time>
   <time name="total">    8.83    9.25</time>
   <energy>
    <i name="e_fr_energy">     26.33202512 </i>
    <i name="e_wo_entrp">     26.32912617 </i>
    <i name="e_0_energy">     26.33105880 </i>
   </energy>
  </scstep>
  <scstep>
   <time name="dav">    5.33    6.00</time>
   <time name="total">   11.85   13.42</time>
   <energy>
    <i name="e_fr_energy">     26.35751242 </i>
    <i name="e_wo_entrp">     26.35461347 </i>
    <i name="e_0_energy">     26.35654611 </i>
   </energy>
  </scstep>
  <scstep>
   <time name="dav">    3.30    4.14</time>
   <time name="total">   10.38   13.38</time>
   <energy>
    <i name="e_fr_energy">     26.35543850 </i>
    <i name="e_wo_entrp">     26.35253955 </i>
    <i name="e_0_energy">     26.35447219 </i>
   </energy>
  </scstep>
  <scstep>
   <time name="dav">    3.25    4.49</time>
   <time name="total">   10.55   13.83</time>
   <energy>
    <i name="e_fr_energy">     26.35335132 </i>
    <i name="e_wo_entrp">     26.35045237 </i>
    <i name="e_0_energy">     26.35238500 </i>
   </energy>
  </scstep>
  <scstep>
   <time name="dav">    3.70    5.47</time>
   <time name="total">   11.51   16.52</time>
   <energy>
    <i name="e_fr_energy">     26.34966585 </i>
    <i name="e_wo_entrp">     26.34676689 </i>
    <i name="e_0_energy">     26.34869953 </i>
   </energy>
  </scstep>
  <scstep>
   <time name="dav">    3.56    6.31</time>
   <time name="total">   11.54   19.27</time>
   <energy>
    <i name="e_fr_energy">     26.34777816 </i>
    <i name="e_wo_entrp">     26.34487920 </i>
    <i name="e_0_energy">     26.34681184 </i>
   </energy>
  </scstep>
  <scstep>
   <time name="dav">    3.82    6.11</time>
   <time name="total">   12.10   19.71</time>
   <energy>
    <i name="e_fr_energy">     26.34619350 </i>
    <i name="e_wo_entrp">     26.34329454 </i>
    <i name="e_0_energy">     26.34522718 </i>
   </energy>
  </scstep>
  <scstep>
   <time name="dav">    4.60    7.76</time>
   <time name="total">   12.43   20.89</time>
   <energy>
    <i name="e_fr_energy">     26.34586359 </i>
    <i name="e_wo_entrp">     26.34296463 </i>
    <i name="e_0_energy">     26.34489727 </i>
   </energy>
  </scstep>
  <scstep>
   <time name="dav">    3.44    5.59</time>
   <time name="total">   10.49   16.80</time>
   <energy>
    <i name="e_fr_energy">     26.34563587 </i>
    <i name="e_wo_entrp">     26.34273692 </i>
    <i name="e_0_energy">     26.34466956 </i>
   </energy>
  </scstep>
  <scstep>
   <time name="dav">    3.41    5.23</time>
   <time name="total">    9.75   14.55</time>
   <energy>
    <i name="alphaZ">      0.43525486 </i>
    <i name="ewald">    295.68523519 </i>
    <i name="hartreedc">   -711.06321355 </i>
    <i name="XCdc">     46.44004774 </i>
    <i name="pawpsdc">    627.27062912 </i>
    <i name="pawaedc">   -632.56882082 </i>
    <i name="eentropy">      0.00289895 </i>
    <i name="bandstr">   -179.34070905 </i>
    <i name="atom">    579.48423596 </i>
    <i name="e_fr_energy">     26.34555841 </i>
    <i name="e_wo_entrp">     26.34265945 </i>
    <i name="e_0_energy">     26.34459209 </i>
   </energy>
  </scstep>
  <structure>
   <crystal>
    <varray name="basis" >
     <v>      10.00000000       0.00000000       0.00000000 </v>
     <v>       0.00000000      10.00000000       0.00000000 </v>
     <v>       0.00000000       0.00000000      10.00000000 </v>
    </varray>
    <i name="volume">   1000.00000000 </i>
    <varray name="rec_basis" >
     <v>       0.10000000       0.00000000       0.00000000 </v>
     <v>       0.00000000       0.10000000       0.00000000 </v>
     <v>       0.00000000       0.00000000       0.10000000 </v>
    </varray>
   </crystal>
   <varray name="positions" >
    <v>       0.02541415       0.00000000       0.00000000 </v>
    <v>       0.09458585       0.00000000       0.00000000 </v>
   </varray>
  </structure>
  <varray name="forces" >
   <v>    -314.10172432       0.00000000       0.00000000 </v>
   <v>     314.10172432       0.00000000       0.00000000 </v>
  </varray>
  <varray name="stress" >
   <v>     347.77764774       0.00000000       0.00000000 </v>
   <v>       0.00000000      -0.61085138       0.00000000 </v>
   <v>       0.00000000       0.00000000      -0.61085138 </v>
  </varray>
  <energy>
   <i name="e_fr_energy">     26.34555841 </i>
   <i name="e_wo_entrp">     26.34459209 </i>
   <i name="e_0_energy">      0.00289895 </i>
  </energy>
  <time name="totalsc">  154.63  215.62</time>
 </calculation>
 <calculation>
  <scstep>
   <time name="dav">    3.01    3.52</time>
   <time name="total">   10.09   12.45</time>
   <energy>
    <i name="alphaZ">      0.43525486 </i>
    <i name="ewald">     86.78907585 </i>
    <i name="hartreedc">   -615.36360375 </i>
    <i name="XCdc">     43.16300858 </i>
    <i name="pawpsdc">    627.27067202 </i>
    <i name="pawaedc">   -632.56921440 </i>
    <i name="eentropy">      0.00289895 </i>
    <i name="bandstr">   -108.58578153 </i>
    <i name="atom">    579.48423596 </i>
    <i name="e_fr_energy">    -19.37345345 </i>
    <i name="e_wo_entrp">    -19.37635241 </i>
    <i name="e_0_energy">    -19.37441977 </i>
   </energy>
  </scstep>
  <scstep>
   <time name="dav">    4.63    4.90</time>
   <time name="total">   11.18   12.11</time>
   <energy>
    <i name="e_fr_energy">    -15.72955003 </i>
    <i name="e_wo_entrp">    -15.73244898 </i>
    <i name="e_0_energy">    -15.73051634 </i>
   </energy>
  </scstep>
  <scstep>
   <time name="dav">    3.91    4.05</time>
   <time name="total">   10.81   11.18</time>
   <energy>
    <i name="e_fr_energy">    -14.78764062 </i>
    <i name="e_wo_entrp">    -14.79053957 </i>
    <i name="e_0_energy">    -14.78860693 </i>
   </energy>
  </scstep>
  <scstep>
   <time name="dav">    4.17    5.72</time>
   <time name="total">   10.66   13.85</time>
   <energy>
    <i name="e_fr_energy">    -14.65195798 </i>
    <i name="e_wo_entrp">    -14.65485694 </i>
    <i name="e_0_energy">    -14.65292430 </i>
   </energy>
  </scstep>
  <scstep>
   <time name="dav">    3.04    4.15</time>
   <time name="total">    9.78   12.69</time>
   <energy>
    <i name="e_fr_energy">    -14.65273518 </i>
    <i name="e_wo_entrp">    -14.65563414 </i>
    <i name="e_0_energy">    -14.65370150 </i>
   </energy>
  </scstep>
  <scstep>
   <time name="dav">    3.29    4.61</time>
   <time name="total">   10.36   15.21</time>
   <energy>
    <i name="e_fr_energy">    -14.65327232 </i>
    <i name="e_wo_entrp">    -14.65617127 </i>
    <i name="e_0_energy">    -14.65423864 </i>
   </energy>
  </scstep>
  <scstep>
   <time name="dav">    3.49    4.79</time>
   <time name="total">   10.89   15.47</time>
   <energy>
    <i name="e_fr_energy">    -14.65408090 </i>
    <i name="e_wo_entrp">    -14.65697985 </i>
    <i name="e_0_energy">    -14.65504721 </i>
   </energy>
  </scstep>
  <scstep>
   <time name="dav">    3.49    6.28</time>
   <time name="total">   10.54   17.94</time>
   <energy>
    <i name="e_fr_energy">    -14.65558985 </i>
    <i name="e_wo_entrp">    -14.65848880 </i>
    <i name="e_0_energy">    -14.65655617 </i>
   </energy>
  </scstep>
  <scstep>
   <time name="dav">    3.86    6.34</time>
   <time name="total">   11.46   18.88</time>
   <energy>
    <i name="e_fr_energy">    -14.65628728 </i>
    <i name="e_wo_entrp">    -14.65918623 </i>
    <i name="e_0_energy">    -14.65725360 </i>
   </energy>
  </scstep>
  <scstep>
   <time name="dav">    3.65    5.71</time>
   <time name="total">   11.05   18.12</time>
   <energy>
    <i name="e_fr_energy">    -14.65669705 </i>
    <i name="e_wo_entrp">    -14.65959601 </i>
    <i name="e_0_energy">    -14.65766337 </i>
   </energy>
  </scstep>
  <scstep>
   <time name="dav">    3.54    5.81</time>
   <time name="total">   11.63   18.15</time>
   <energy>
    <i name="e_fr_energy">    -14.65690010 </i>
    <i name="e_wo_entrp">    -14.65979906 </i>
    <i name="e_0_energy">    -14.65786642 </i>
   </energy>
  </scstep>
  <scstep>
   <time name="dav">    3.30    4.84</time>
   <time name="total">   10.75   16.25</time>
   <energy>
    <i name="e_fr_energy">    -14.65702099 </i>
    <i name="e_wo_entrp">    -14.65991994 </i>
    <i name="e_0_energy">    -14.65798731 </i>
   </energy>
  </scstep>
  <scstep>
   <time name="dav">    3.21    5.07</time>
   <time name="total">    9.21   14.24</time>
   <energy>
    <i name="alphaZ">      0.43525486 </i>
    <i name="ewald">     86.78907585 </i>
    <i name="hartreedc">   -571.41971147 </i>
    <i name="XCdc">     40.70545511 </i>
    <i name="pawpsdc">    359.54926218 </i>
    <i name="pawaedc">   -362.61843930 </i>
    <i name="eentropy">      0.00289895 </i>
    <i name="bandstr">   -147.58510078 </i>
    <i name="atom">    579.48423596 </i>
    <i name="e_fr_energy">    -14.65706863 </i>
    <i name="e_wo_entrp">    -14.65996759 </i>
    <i name="e_0_energy">    -14.65803495 </i>
   </energy>
  </scstep>
  <structure>
   <crystal>
    <varray name="basis" >
     <v>      10.00000000       0.00000000       0.00000000 </v>
     <v>       0.00000000      10.00000000       0.00000000 </v>
     <v>       0.00000000       0.00000000      10.00000000 </v>
    </varray>
    <i name="volume">   1000.00000000 </i>
    <varray name="rec_basis" >
     <v>       0.10000000       0.00000000       0.00000000 </v>
     <v>       0.00000000       0.10000000       0.00000000 </v>
     <v>       0.00000000       0.00000000       0.10000000 </v>
    </varray>
   </crystal>
   <varray name="positions" >
    <v>       0.00041919       0.00000000       0.00000000 </v>
    <v>       0.11958081       0.00000000       0.00000000 </v>
   </varray>
  </structure>
  <varray name="forces" >
   <v>       4.62247268       0.00000000       0.00000000 </v>
   <v>      -4.62247268       0.00000000       0.00000000 </v>
  </varray>
  <varray name="stress" >
   <v>      -9.08831584       0.00000000       0.00000000 </v>
   <v>       0.00000000      -0.30826468       0.00000000 </v>
   <v>       0.00000000       0.00000000      -0.30826468 </v>
  </varray>
  <energy>
   <i name="e_fr_energy">    -14.65706863 </i>
   <i name="e_wo_entrp">    -14.65803495 </i>
   <i name="e_0_energy">      0.00289895 </i>
  </energy>
  <time name="totalsc">  150.20  211.86</time>
 </calculation>
 <calculation>
  <scstep>
   <time name="dav">    3.23    3.83</time>
   <time name="total">   10.65   12.57</time>
   <energy>
    <i name="alphaZ">      0.43525486 </i>
    <i name="ewald">     88.55144475 </i>
    <i name="hartreedc">   -572.50235666 </i>
    <i name="XCdc">     40.73605890 </i>
    <i name="pawpsdc">    359.55786047 </i>
    <i name="pawaedc">   -362.62709066 </i>
    <i name="eentropy">      0.00289895 </i>
    <i name="bandstr">   -148.32687856 </i>
    <i name="atom">    579.48423596 </i>
    <i name="e_fr_energy">    -14.68857199 </i>
    <i name="e_wo_entrp">    -14.69147094 </i>
    <i name="e_0_energy">    -14.68953830 </i>
   </energy>
  </scstep>
  <scstep>
   <time name="dav">    2.94    3.53</time>
   <time name="total">   10.03   11.86</time>
   <energy>
    <i name="e_fr_energy">    -14.68854126 </i>
    <i name="e_wo_entrp">    -14.69144021 </i>
    <i name="e_0_energy">    -14.68950757 </i>
   </energy>
  </scstep>
  <scstep>
   <time name="dav">    2.94    3.77</time>
   <time name="total">    8.99   11.21</time>
   <energy>
    <i name="alphaZ">      0.43525486 </i>
    <i name="ewald">     88.55144475 </i>
    <i name="hartreedc">   -572.82985374 </i>
    <i name="XCdc">     40.75603672 </i>
    <i name="pawpsdc">    361.14408292 </i>
    <i name="pawaedc">   -364.22114880 </i>
    <i name="eentropy">      0.00289895 </i>
    <i name="bandstr">   -148.01139912 </i>
    <i name="atom">    579.48423596 </i>
    <i name="e_fr_energy">    -14.68844749 </i>
    <i name="e_wo_entrp">    -14.69134645 </i>
    <i name="e_0_energy">    -14.68941381 </i>
   </energy>
  </scstep>
  <structure>
   <crystal>
    <varray name="basis" >
     <v>      10.00000000       0.00000000       0.00000000 </v>
     <v>       0.00000000      10.00000000       0.00000000 </v>
     <v>       0.00000000       0.00000000      10.00000000 </v>
    </varray>
    <i name="volume">   1000.00000000 </i>
    <varray name="rec_basis" >
     <v>       0.10000000       0.00000000       0.00000000 </v>
     <v>       0.00000000       0.10000000       0.00000000 </v>
     <v>       0.00000000       0.00000000       0.10000000 </v>
    </varray>
   </crystal>
   <varray name="positions" >
    <v>       0.00078169       0.00000000       0.00000000 </v>
    <v>       0.11921831       0.00000000       0.00000000 </v>
   </varray>
  </structure>
  <varray name="forces" >
   <v>       4.03474898       0.00000000       0.00000000 </v>
   <v>      -4.03474898       0.00000000       0.00000000 </v>
  </varray>
  <varray name="stress" >
   <v>      -7.92917761       0.00000000       0.00000000 </v>
   <v>       0.00000000      -0.27341119       0.00000000 </v>
   <v>       0.00000000       0.00000000      -0.27341119 </v>
  </varray>
  <energy>
   <i name="e_fr_energy">    -14.68844749 </i>
   <i name="e_wo_entrp">    -14.68941381 </i>
   <i name="e_0_energy">      0.00289895 </i>
  </energy>
  <time name="totalsc">   41.37   50.90</time>
 </calculation>
 <calculation>
  <scstep>
   <time name="dav">    3.12    4.17</time>
   <time name="total">   10.22   13.36</time>
   <energy>
    <i name="alphaZ">      0.43525486 </i>
    <i name="ewald">    101.26502951 </i>
    <i name="hartreedc">   -580.40917919 </i>
    <i name="XCdc">     40.97644531 </i>
    <i name="pawpsdc">    361.42588961 </i>
    <i name="pawaedc">   -364.50408458 </i>
    <i name="eentropy">      0.00289895 </i>
    <i name="bandstr">   -153.45437356 </i>
    <i name="atom">    579.48423596 </i>
    <i name="e_fr_energy">    -14.77788312 </i>
    <i name="e_wo_entrp">    -14.78078207 </i>
    <i name="e_0_energy">    -14.77884944 </i>
   </energy>
  </scstep>
  <scstep>
   <time name="dav">    2.98    5.00</time>
   <time name="total">   10.45   15.87</time>
   <energy>
    <i name="e_fr_energy">    -14.77553801 </i>
    <i name="e_wo_entrp">    -14.77843697 </i>
    <i name="e_0_energy">    -14.77650433 </i>
   </energy>
  </scstep>
  <scstep>
   <time name="dav">    3.36    5.08</time>
   <time name="total">   10.55   15.75</time>
   <energy>
    <i name="e_fr_energy">    -14.76996539 </i>
    <i name="e_wo_entrp">    -14.77286434 </i>
    <i name="e_0_energy">    -14.77093170 </i>
   </energy>
  </scstep>
  <scstep>
   <time name="dav">    3.66    5.78</time>
   <time name="total">    9.68   15.08</time>
   <energy>
    <i name="alphaZ">      0.43525486 </i>
    <i name="ewald">    101.26502951 </i>
    <i name="hartreedc">   -583.09658471 </i>
    <i name="XCdc">     41.13566587 </i>
    <i name="pawpsdc">    375.73114846 </i>
    <i name="pawaedc">   -378.88149457 </i>
    <i name="eentropy">      0.00289895 </i>
    <i name="bandstr">   -150.84604365 </i>
    <i name="atom">    579.48423596 </i>
    <i name="e_fr_energy">    -14.76988932 </i>
    <i name="e_wo_entrp">    -14.77278827 </i>
    <i name="e_0_energy">    -14.77085564 </i>
   </energy>
  </scstep>
  <structure>
   <crystal>
    <varray name="basis" >
     <v>      10.00000000       0.00000000       0.00000000 </v>
     <v>       0.00000000      10.00000000       0.00000000 </v>
     <v>       0.00000000       0.00000000      10.00000000 </v>
    </varray>
    <i name="volume">   1000.00000000 </i>
    <varray name="rec_basis" >
     <v>       0.10000000       0.00000000       0.00000000 </v>
     <v>       0.00000000       0.10000000       0.00000000 </v>
     <v>       0.00000000       0.00000000       0.10000000 </v>
    </varray>
   </crystal>
   <varray name="positions" >
    <v>       0.00327029       0.00000000       0.00000000 </v>
    <v>       0.11672971       0.00000000       0.00000000 </v>
   </varray>
  </structure>
  <varray name="forces" >
   <v>      -1.03327360       0.00000000       0.00000000 </v>
   <v>       1.03327360       0.00000000       0.00000000 </v>
  </varray>
  <varray name="stress" >
   <v>       1.54835157       0.00000000       0.00000000 </v>
   <v>       0.00000000      -0.29869012       0.00000000 </v>
   <v>       0.00000000       0.00000000      -0.29869012 </v>
  </varray>
  <energy>
   <i name="e_fr_energy">    -14.76988932 </i>
   <i name="e_wo_entrp">    -14.77085564 </i>
   <i name="e_0_energy">      0.00289895 </i>
  </energy>
  <time name="totalsc">   53.31   79.64</time>
 </calculation>
 <calculation>
  <scstep>
   <time name="dav">    3.13    4.23</time>
   <time name="total">   10.82   15.92</time>
   <energy>
    <i name="alphaZ">      0.43525486 </i>
    <i name="ewald">     98.58230930 </i>
    <i name="hartreedc">   -581.50773604 </i>
    <i name="XCdc">     41.08820333 </i>
    <i name="pawpsdc">    376.70786164 </i>
    <i name="pawaedc">   -379.85914427 </i>
    <i name="eentropy">      0.00289895 </i>
    <i name="bandstr">   -149.70864196 </i>
    <i name="atom">    579.48423596 </i>
    <i name="e_fr_energy">    -14.77475822 </i>
    <i name="e_wo_entrp">    -14.77765717 </i>
    <i name="e_0_energy">    -14.77572453 </i>
   </energy>
  </scstep>
  <scstep>
   <time name="dav">    3.63    5.57</time>
   <time name="total">   11.43   17.11</time>
   <energy>
    <i name="e_fr_energy">    -14.77478774 </i>
    <i name="e_wo_entrp">    -14.77768669 </i>
    <i name="e_0_energy">    -14.77575406 </i>
   </energy>
  </scstep>
  <scstep>
   <time name="dav">    3.26    4.62</time>
   <time name="total">    9.27   13.85</time>
   <energy>
    <i name="alphaZ">      0.43525486 </i>
    <i name="ewald">     98.58230930 </i>
    <i name="hartreedc">   -580.97438797 </i>
    <i name="XCdc">     41.05681446 </i>
    <i name="pawpsdc">    374.19119426 </i>
    <i name="pawaedc">   -377.32738776 </i>
    <i name="eentropy">      0.00289895 </i>
    <i name="bandstr">   -150.22566013 </i>
    <i name="atom">    579.48423596 </i>
    <i name="e_fr_energy">    -14.77472807 </i>
    <i name="e_wo_entrp">    -14.77762702 </i>
    <i name="e_0_energy">    -14.77569438 </i>
   </energy>
  </scstep>
  <structure>
   <crystal>
    <varray name="basis" >
     <v>      10.00000000       0.00000000       0.00000000 </v>
     <v>       0.00000000      10.00000000       0.00000000 </v>
     <v>       0.00000000       0.00000000      10.00000000 </v>
    </varray>
    <i name="volume">   1000.00000000 </i>
    <varray name="rec_basis" >
     <v>       0.10000000       0.00000000       0.00000000 </v>
     <v>       0.00000000       0.10000000       0.00000000 </v>
     <v>       0.00000000       0.00000000       0.10000000 </v>
    </varray>
   </crystal>
   <varray name="positions" >
    <v>       0.00276292       0.00000000       0.00000000 </v>
    <v>       0.11723708       0.00000000       0.00000000 </v>
   </varray>
  </structure>
  <varray name="forces" >
   <v>       0.15396853       0.00000000       0.00000000 </v>
   <v>      -0.15396853       0.00000000       0.00000000 </v>
  </varray>
  <varray name="stress" >
   <v>      -0.54468050       0.00000000       0.00000000 </v>
   <v>       0.00000000      -0.34391764       0.00000000 </v>
   <v>       0.00000000       0.00000000      -0.34391764 </v>
  </varray>
  <energy>
   <i name="e_fr_energy">    -14.77472807 </i>
   <i name="e_wo_entrp">    -14.77569438 </i>
   <i name="e_0_energy">      0.00289895 </i>
  </energy>
  <time name="totalsc">   43.27   64.89</time>
 </calculation>
 <calculation>
  <scstep>
   <time name="dav">    3.31    4.76</time>
   <time name="total">   10.62   14.16</time>
   <energy>
    <i name="alphaZ">      0.43525486 </i>
    <i name="ewald">     98.92750624 </i>
    <i name="hartreedc">   -581.16320362 </i>
    <i name="XCdc">     41.06196432 </i>
    <i name="pawpsdc">    373.88952496 </i>
    <i name="pawaedc">   -377.02434301 </i>
    <i name="eentropy">      0.00289895 </i>
    <i name="bandstr">   -150.38875574 </i>
    <i name="atom">    579.48423596 </i>
    <i name="e_fr_energy">    -14.77491709 </i>
    <i name="e_wo_entrp">    -14.77781604 </i>
    <i name="e_0_energy">    -14.77588340 </i>
   </energy>
  </scstep>
  <scstep>
   <time name="dav">    3.13    4.06</time>
   <time name="total">    9.33   12.27</time>
   <energy>
    <i name="alphaZ">      0.43525486 </i>
    <i name="ewald">     98.92750624 </i>
    <i name="hartreedc">   -581.20394457 </i>
    <i name="XCdc">     41.06437552 </i>
    <i name="pawpsdc">    373.98031587 </i>
    <i name="pawaedc">   -377.11577788 </i>
    <i name="eentropy">      0.00289895 </i>
    <i name="bandstr">   -150.34982172 </i>
    <i name="atom">    579.48423596 </i>
    <i name="e_fr_energy">    -14.77495678 </i>
    <i name="e_wo_entrp">    -14.77785573 </i>
    <i name="e_0_energy">    -14.77592309 </i>
   </energy>
  </scstep>
  <structure>
   <crystal>
    <varray name="basis" >
     <v>      10.00000000       0.00000000       0.00000000 </v>
     <v>       0.00000000      10.00000000       0.00000000 </v>
     <v>       0.00000000       0.00000000      10.00000000 </v>
    </varray>
    <i name="volume">   1000.00000000 </i>
    <varray name="rec_basis" >
     <v>       0.10000000       0.00000000       0.00000000 </v>
     <v>       0.00000000       0.10000000       0.00000000 </v>
     <v>       0.00000000       0.00000000       0.10000000 </v>
    </varray>
   </crystal>
   <varray name="positions" >
    <v>       0.00282872       0.00000000       0.00000000 </v>
    <v>       0.11717128       0.00000000       0.00000000 </v>
   </varray>
  </structure>
  <varray name="forces" >
   <v>       0.01463741       0.00000000       0.00000000 </v>
   <v>      -0.01463741       0.00000000       0.00000000 </v>
  </varray>
  <varray name="stress" >
   <v>      -0.27464683       0.00000000       0.00000000 </v>
   <v>       0.00000000      -0.25595470       0.00000000 </v>
   <v>       0.00000000       0.00000000      -0.25595470 </v>
  </varray>
  <energy>
   <i name="e_fr_energy">    -14.77495678 </i>
   <i name="e_wo_entrp">    -14.77592309 </i>
   <i name="e_0_energy">      0.00289895 </i>
  </energy>
  <time name="totalsc">   30.58   40.27</time>
  <eigenvalues>
   <array>
    <dimension dim="1">band</dimension>
    <dimension dim="2">kpoint</dimension>
    <dimension dim="3">spin</dimension>
    <field>eigene</field>
    <field>occ</field>
    <set>
     <set comment="spin 1">
      <set comment="kpoint 1">
       <r>  -29.1262    1.0000 </r>
       <r>  -13.9115    1.0000 </r>
       <r>  -11.6105    1.0000 </r>
       <r>  -11.6105    1.0000 </r>
       <r>   -8.9162    1.0000 </r>
       <r>   -2.0214    0.0000 </r>
       <r>   -2.0214    0.0000 </r>
       <r>   -0.2575    0.0000 </r>
       <r>    1.0854    0.0000 </r>
      </set>
     </set>
    </set>
   </array>
  </eigenvalues>
  <separator name="orbital magnetization" >
   <v name="MAGDIPOLOUT">      0.00000000      0.00000000      0.00000000</v>
  </separator>
 </calculation>
 <structure name="finalpos" >
  <crystal>
   <varray name="basis" >
    <v>      10.00000000       0.00000000       0.00000000 </v>
    <v>       0.00000000      10.00000000       0.00000000 </v>
    <v>       0.00000000       0.00000000      10.00000000 </v>
   </varray>
   <i name="volume">   1000.00000000 </i>
   <varray name="rec_basis" >
    <v>       0.10000000       0.00000000       0.00000000 </v>
    <v>       0.00000000       0.10000000       0.00000000 </v>
    <v>       0.00000000       0.00000000       0.10000000 </v>
   </varray>
  </crystal>
  <varray name="positions" >
   <v>       0.00282872       0.00000000       0.00000000 </v>
   <v>       0.11717128       0.00000000       0.00000000 </v>
  </varray>
 </structure>
</modeling>
