   4   4   1   0
  0.8797333E+01  0.2461200E-09  0.2461200E-09  0.6707900E-09  0.5000000E-15
  1.000000000000000E-004
  CAR 
 unknown system                          
     20.43381029    -16.67240958  301      4.70999183      1.00000000
    -16.672  0.0000E+00  0.0000E+00  0.0000E+00  0.0000E+00
    -16.549  0.0000E+00  0.0000E+00  0.0000E+00  0.0000E+00
    -16.425  0.0000E+00  0.0000E+00  0.0000E+00  0.0000E+00
    -16.301  0.0000E+00  0.0000E+00  0.0000E+00  0.0000E+00
    -16.178  0.0000E+00  0.0000E+00  0.0000E+00  0.0000E+00
    -16.054  0.0000E+00  0.0000E+00  0.0000E+00  0.0000E+00
    -15.930  0.0000E+00  0.0000E+00  0.0000E+00  0.0000E+00
    -15.807  0.0000E+00  0.0000E+00  0.0000E+00  0.0000E+00
    -15.683  0.0000E+00  0.0000E+00  0.0000E+00  0.0000E+00
    -15.559  0.0000E+00  0.0000E+00  0.0000E+00  0.0000E+00
    -15.436 -0.6859E-36 -0.9900E-41 -0.8483E-37 -0.1225E-41
    -15.312 -0.2355E-19 -0.6844E-23 -0.2913E-20 -0.8466E-24
    -15.188 -0.3351E-08 -0.2000E-10 -0.4145E-09 -0.2473E-11
    -15.064 -0.1611E-02 -0.2299E-03 -0.1992E-03 -0.2844E-04
    -14.941  0.1134E+00  0.5764E-01  0.1383E-01  0.7101E-02
    -14.817  0.1374E+00  0.1604E+00  0.3082E-01  0.2694E-01
    -14.693  0.1576E+00  0.1383E+00  0.5032E-01  0.4405E-01
    -14.570  0.4244E-01  0.9404E-01  0.5557E-01  0.5568E-01
    -14.446 -0.5233E-03 -0.1019E-02  0.5551E-01  0.5555E-01
    -14.322  0.1957E+00  0.5796E-02  0.7971E-01  0.5627E-01
    -14.199  0.1050E+01  0.1070E+01  0.2096E+00  0.1886E+00
    -14.075  0.8458E+00  0.7569E+00  0.3142E+00  0.2822E+00
    -13.951  0.6113E+00  0.8826E+00  0.3898E+00  0.3914E+00
    -13.828 -0.7402E-02 -0.2008E-01  0.3889E+00  0.3889E+00
    -13.704 -0.9879E-08 -0.7568E-06  0.3889E+00  0.3889E+00
    -13.580  0.0000E+00  0.0000E+00  0.3889E+00  0.3889E+00
    -13.457 -0.3743E-34 -0.8995E-39  0.3889E+00  0.3889E+00
    -13.333 -0.6979E-18 -0.3065E-21  0.3889E+00  0.3889E+00
    -13.209 -0.5467E-07 -0.4460E-09  0.3889E+00  0.3889E+00
    -13.085 -0.1360E-01 -0.2528E-02  0.3872E+00  0.3886E+00
    -12.962  0.7967E+00  0.4535E+00  0.4858E+00  0.4447E+00
    -12.838  0.8612E+00  0.1015E+01  0.5923E+00  0.5702E+00
    -12.714  0.1056E+01  0.1085E+01  0.7229E+00  0.7045E+00
    -12.591 -0.5336E-02  0.1439E+00  0.7222E+00  0.7223E+00
    -12.467 -0.2883E-02 -0.4871E-03  0.7219E+00  0.7222E+00
    -12.343  0.4819E+00  0.1528E+00  0.7815E+00  0.7411E+00
    -12.220  0.1034E+01  0.1163E+01  0.9094E+00  0.8849E+00
    -12.096  0.1125E+01  0.1071E+01  0.1048E+01  0.1017E+01
    -11.972  0.5716E-01  0.3098E+00  0.1056E+01  0.1056E+01
    -11.849 -0.6792E-04 -0.1027E-02  0.1056E+01  0.1056E+01
    -11.725 -0.2037E-12 -0.5818E-10  0.1056E+01  0.1056E+01
    -11.601  0.0000E+00  0.0000E+00  0.1056E+01  0.1056E+01
    -11.478  0.0000E+00  0.0000E+00  0.1056E+01  0.1056E+01
    -11.354  0.0000E+00  0.0000E+00  0.1056E+01  0.1056E+01
    -11.230  0.0000E+00  0.0000E+00  0.1056E+01  0.1056E+01
    -11.106  0.0000E+00  0.0000E+00  0.1056E+01  0.1056E+01
    -10.983 -0.3250E-41 -0.4049E-46  0.1056E+01  0.1056E+01
    -10.859 -0.5804E-23 -0.1195E-26  0.1056E+01  0.1056E+01
    -10.735 -0.4559E-10 -0.1553E-12  0.1056E+01  0.1056E+01
    -10.612 -0.1481E-02 -0.8813E-04  0.1055E+01  0.1056E+01
    -10.488  0.5684E+00  0.7134E-01  0.1126E+01  0.1064E+01
    -10.364  0.2498E+01  0.2548E+01  0.1435E+01  0.1379E+01
    -10.241  0.2348E+01  0.2503E+01  0.1725E+01  0.1689E+01
    -10.117 -0.2320E-01  0.2686E+00  0.1722E+01  0.1722E+01
     -9.993 -0.1662E-04 -0.4038E-03  0.1722E+01  0.1722E+01
     -9.870 -0.1323E-10 -0.3333E-11  0.1722E+01  0.1722E+01
     -9.746 -0.4727E-03 -0.3694E-04  0.1722E+01  0.1722E+01
     -9.622  0.1805E+00  0.2917E-01  0.1744E+01  0.1726E+01
     -9.499  0.1148E+01  0.1022E+01  0.1886E+01  0.1852E+01
     -9.375  0.1958E-01  0.2972E+00  0.1889E+01  0.1889E+01
     -9.251 -0.2784E-04 -0.1238E-02  0.1889E+01  0.1889E+01
     -9.127 -0.2269E-13 -0.1021E-09  0.1889E+01  0.1889E+01
     -9.004 -0.8249E-34 -0.9227E-36  0.1889E+01  0.1889E+01
     -8.880 -0.1368E-17 -0.5150E-19  0.1889E+01  0.1889E+01
     -8.756 -0.9418E-07 -0.1215E-07  0.1889E+01  0.1889E+01
     -8.633 -0.1743E-01 -0.8946E-02  0.1887E+01  0.1888E+01
     -8.509  0.9760E+00  0.7115E+00  0.2007E+01  0.1976E+01
     -8.385  0.3911E+00  0.6544E+00  0.2056E+01  0.2057E+01
     -8.262 -0.2229E-02 -0.9404E-02  0.2056E+01  0.2056E+01
     -8.138 -0.6256E-07 -0.2793E-05  0.2056E+01  0.2056E+01
     -8.014 -0.1164E-01 -0.4813E-02  0.2054E+01  0.2055E+01
     -7.891  0.1047E+01  0.4039E+00  0.2184E+01  0.2105E+01
     -7.767  0.6564E+00  0.1409E+01  0.2265E+01  0.2279E+01
     -7.643  0.1052E+00 -0.1157E-01  0.2278E+01  0.2278E+01
     -7.520 -0.2976E-03 -0.2336E-04  0.2278E+01  0.2278E+01
     -7.396 -0.1077E-10 -0.4342E-13  0.2278E+01  0.2278E+01
     -7.272 -0.6492E-45  0.0000E+00  0.2278E+01  0.2278E+01
     -7.148 -0.1018E-25 -0.6382E-29  0.2278E+01  0.2278E+01
     -7.025 -0.7254E-12 -0.4606E-14  0.2278E+01  0.2278E+01
     -6.901 -0.2210E-03 -0.1467E-04  0.2278E+01  0.2278E+01
     -6.777  0.1794E+00 -0.4210E-01  0.2300E+01  0.2273E+01
     -6.654  0.3484E+01  0.3041E+01  0.2731E+01  0.2649E+01
     -6.530  0.1747E+01  0.2443E+01  0.2947E+01  0.2951E+01
     -6.406 -0.1969E-01 -0.5175E-01  0.2944E+01  0.2944E+01
     -6.283 -0.1969E-07 -0.7408E-06  0.2944E+01  0.2944E+01
     -6.159 -0.2017E-16 -0.2144E-17  0.2944E+01  0.2944E+01
     -6.035 -0.6151E-06 -0.1626E-06  0.2944E+01  0.2944E+01
     -5.912 -0.3109E-01 -0.2576E-01  0.2941E+01  0.2941E+01
     -5.788  0.9607E+00  0.9461E+00  0.3059E+01  0.3058E+01
     -5.664 -0.3133E-01 -0.2204E-01  0.3056E+01  0.3056E+01
     -5.541 -0.1431E-05 -0.4836E-05  0.3056E+01  0.3056E+01
     -5.417 -0.9450E-34 -0.3930E-37  0.3056E+01  0.3056E+01
     -5.293 -0.1486E-17 -0.5282E-20  0.3056E+01  0.3056E+01
     -5.169 -0.1020E-06 -0.3154E-08  0.3056E+01  0.3056E+01
     -5.046 -0.2070E-01 -0.6801E-02  0.3053E+01  0.3055E+01
     -4.922  0.1177E+01  0.8081E+00  0.3199E+01  0.3155E+01
     -4.798  0.1566E+01  0.1845E+01  0.3392E+01  0.3383E+01
     -4.675 -0.2711E-01  0.4861E-01  0.3389E+01  0.3389E+01
     -4.551 -0.4668E-05 -0.6150E-04  0.3389E+01  0.3389E+01
     -4.427  0.0000E+00 -0.8896E-13  0.3389E+01  0.3389E+01
     -4.304 -0.9650E-35 -0.6820E-46  0.3389E+01  0.3389E+01
     -4.180 -0.1556E-18 -0.9451E-27  0.3389E+01  0.3389E+01
     -4.056 -0.9653E-08 -0.5486E-13  0.3389E+01  0.3389E+01
     -3.933 -0.1154E-02 -0.1132E-04  0.3389E+01  0.3389E+01
     -3.809  0.3708E-01  0.9423E-02  0.3393E+01  0.3390E+01
     -3.685  0.7894E-01  0.6243E-01  0.3403E+01  0.3398E+01
     -3.562 -0.2665E-02  0.4057E-01  0.3403E+01  0.3403E+01
     -3.438 -0.1374E-01 -0.2780E-01  0.3401E+01  0.3399E+01
     -3.314  0.3148E+01  0.2492E+01  0.3790E+01  0.3708E+01
     -3.190  0.2355E+01  0.3049E+01  0.4082E+01  0.4085E+01
     -3.067  0.3579E+00 -0.4230E-01  0.4126E+01  0.4080E+01
     -2.943  0.2933E+01  0.2952E+01  0.4489E+01  0.4445E+01
     -2.819  0.1282E+00  0.5025E+00  0.4505E+01  0.4507E+01
     -2.696 -0.1356E-01 -0.1804E-01  0.4503E+01  0.4505E+01
     -2.572  0.4758E+00  0.2357E+00  0.4562E+01  0.4534E+01
     -2.448  0.4738E-01  0.2124E+00  0.4568E+01  0.4560E+01
     -2.325  0.1377E-01  0.7896E-01  0.4569E+01  0.4570E+01
     -2.201  0.1803E+00 -0.1367E-01  0.4592E+01  0.4568E+01
     -2.077  0.2860E+00  0.4662E+00  0.4627E+01  0.4626E+01
     -1.954  0.5724E-01  0.6299E-01  0.4634E+01  0.4634E+01
     -1.830  0.3783E-01  0.1945E-01  0.4639E+01  0.4636E+01
     -1.706  0.8899E+00  0.2973E+00  0.4749E+01  0.4673E+01
     -1.583  0.3648E+01  0.4302E+01  0.5200E+01  0.5205E+01
     -1.459  0.1479E+00 -0.8009E-01  0.5218E+01  0.5195E+01
     -1.335  0.5331E+00  0.3295E+00  0.5284E+01  0.5236E+01
     -1.211  0.3914E+00  0.6929E+00  0.5333E+01  0.5321E+01
     -1.088  0.6380E+00  0.1216E+00  0.5412E+01  0.5336E+01
     -0.964  0.2796E+01  0.3415E+01  0.5757E+01  0.5759E+01
     -0.840 -0.6230E-01 -0.7059E-01  0.5750E+01  0.5750E+01
     -0.717  0.1918E+00 -0.5261E-02  0.5773E+01  0.5749E+01
     -0.593  0.2002E+01  0.1221E+01  0.6021E+01  0.5900E+01
     -0.469  0.1640E+01  0.2643E+01  0.6224E+01  0.6227E+01
     -0.346  0.3734E+00 -0.4881E-01  0.6270E+01  0.6221E+01
     -0.222  0.2945E+00  0.4575E+00  0.6307E+01  0.6278E+01
     -0.098  0.2161E+00  0.4582E+00  0.6333E+01  0.6334E+01
      0.025  0.1912E+00 -0.1960E-01  0.6357E+01  0.6332E+01
      0.149  0.5154E+00  0.4519E+00  0.6421E+01  0.6388E+01
      0.273  0.2477E+00  0.4640E+00  0.6451E+01  0.6445E+01
      0.396  0.1540E+00  0.1924E+00  0.6470E+01  0.6469E+01
      0.520  0.4188E+00  0.3705E-01  0.6522E+01  0.6474E+01
      0.644  0.2806E+01  0.3151E+01  0.6869E+01  0.6863E+01
      0.768 -0.5435E-01 -0.1946E-01  0.6863E+01  0.6861E+01
      0.891  0.4410E+00  0.2549E+00  0.6917E+01  0.6893E+01
      1.015  0.2270E+00  0.2783E+00  0.6945E+01  0.6927E+01
      1.139 -0.5938E-02  0.1419E+00  0.6944E+01  0.6945E+01
      1.262 -0.1242E-02 -0.5683E-03  0.6944E+01  0.6944E+01
      1.386  0.2658E+00 -0.1571E-01  0.6977E+01  0.6943E+01
      1.510  0.1109E+01  0.7001E+00  0.7114E+01  0.7029E+01
      1.633 -0.6910E-01  0.6576E+00  0.7106E+01  0.7110E+01
      1.757  0.1838E+01  0.1214E+01  0.7333E+01  0.7261E+01
      1.881 -0.5631E-03  0.5872E+00  0.7333E+01  0.7333E+01
      2.004  0.6907E+00  0.1337E+00  0.7418E+01  0.7350E+01
      2.128  0.6655E+00  0.1089E+01  0.7501E+01  0.7484E+01
      2.252  0.8852E-01  0.2455E+00  0.7512E+01  0.7515E+01
      2.375  0.1065E+01  0.2291E-01  0.7643E+01  0.7518E+01
      2.499  0.2905E+00  0.1117E+01  0.7679E+01  0.7656E+01
      2.623  0.1085E+01  0.1771E+00  0.7814E+01  0.7678E+01
      2.747  0.6213E+00  0.1278E+01  0.7890E+01  0.7836E+01
      2.870 -0.1196E-01  0.4418E+00  0.7889E+01  0.7890E+01
      2.994 -0.2153E-05 -0.1238E-01  0.7889E+01  0.7889E+01
      3.118  0.0000E+00 -0.6442E-07  0.7889E+01  0.7889E+01
      3.241  0.0000E+00  0.0000E+00  0.7889E+01  0.7889E+01
      3.365  0.0000E+00  0.0000E+00  0.7889E+01  0.7889E+01
      3.489  0.0000E+00  0.0000E+00  0.7889E+01  0.7889E+01
      3.612  0.0000E+00 -0.2798E-31  0.7889E+01  0.7889E+01
      3.736 -0.8020E-29 -0.5419E-16  0.7889E+01  0.7889E+01
      3.860 -0.2674E-14 -0.3865E-06  0.7889E+01  0.7889E+01
      3.983 -0.3341E-05 -0.1991E-02  0.7889E+01  0.7889E+01
      4.107  0.3798E-02  0.1372E+00  0.7889E+01  0.7906E+01
      4.231  0.1723E+00  0.8877E-01  0.7911E+01  0.7917E+01
      4.354  0.4610E-01  0.1224E+00  0.7916E+01  0.7932E+01
      4.478  0.1389E+00  0.2791E-01  0.7934E+01  0.7935E+01
      4.602  0.7617E+00 -0.4944E-02  0.8028E+01  0.7935E+01
      4.726  0.1506E+00  0.1585E+00  0.8046E+01  0.7954E+01
      4.849  0.1521E+00  0.3587E+00  0.8065E+01  0.7999E+01
      4.973 -0.3146E-02  0.5480E+00  0.8065E+01  0.8066E+01
      5.097  0.2823E-01  0.1394E+00  0.8068E+01  0.8084E+01
      5.220  0.1225E+00 -0.6925E-02  0.8083E+01  0.8083E+01
      5.344 -0.3087E-02  0.1633E+00  0.8083E+01  0.8103E+01
      5.468  0.1654E+00  0.6735E-01  0.8104E+01  0.8111E+01
      5.591  0.6201E-01 -0.1088E-02  0.8111E+01  0.8111E+01
      5.715 -0.6499E-03 -0.1020E-08  0.8111E+01  0.8111E+01
      5.839 -0.2284E-09 -0.3328E-27  0.8111E+01  0.8111E+01
      5.962 -0.8924E-12 -0.5363E-13  0.8111E+01  0.8111E+01
      6.086 -0.1479E-03 -0.3262E-04  0.8111E+01  0.8111E+01
      6.210  0.1208E+00  0.3189E-01  0.8126E+01  0.8115E+01
      6.333  0.5273E+00  0.5366E+00  0.8191E+01  0.8181E+01
      6.457  0.1358E+00  0.2129E+00  0.8208E+01  0.8208E+01
      6.581  0.2103E+00 -0.6342E-03  0.8234E+01  0.8208E+01
      6.705  0.9987E-02  0.2316E+00  0.8235E+01  0.8236E+01
      6.828  0.2411E+00 -0.1023E-01  0.8265E+01  0.8235E+01
      6.952  0.1363E+01  0.4533E+00  0.8434E+01  0.8291E+01
      7.076  0.1001E+01  0.1332E+01  0.8558E+01  0.8456E+01
      7.199  0.3549E+00  0.8044E+00  0.8601E+01  0.8555E+01
      7.323  0.5084E+00  0.8506E+00  0.8664E+01  0.8661E+01
      7.447  0.9218E+00  0.3137E-01  0.8778E+01  0.8664E+01
      7.570  0.5658E+00  0.9250E+00  0.8848E+01  0.8779E+01
      7.694  0.7903E+00  0.9475E+00  0.8946E+01  0.8896E+01
      7.818 -0.1298E-01  0.3945E+00  0.8944E+01  0.8945E+01
      7.941 -0.6651E-07 -0.3021E-02  0.8944E+01  0.8944E+01
      8.065  0.0000E+00 -0.6790E-09  0.8944E+01  0.8944E+01
      8.189  0.0000E+00  0.0000E+00  0.8944E+01  0.8944E+01
      8.312  0.0000E+00  0.0000E+00  0.8944E+01  0.8944E+01
      8.436  0.0000E+00  0.0000E+00  0.8944E+01  0.8944E+01
      8.560 -0.1607E-30 -0.1038E-35  0.8944E+01  0.8944E+01
      8.684 -0.1449E-15 -0.3137E-19  0.8944E+01  0.8944E+01
      8.807 -0.5000E-06 -0.3689E-08  0.8944E+01  0.8944E+01
      8.931 -0.9129E-04 -0.9484E-03  0.8944E+01  0.8944E+01
      9.055  0.3835E-01  0.3895E-01  0.8949E+01  0.8949E+01
      9.178 -0.1083E-01 -0.1240E-02  0.8948E+01  0.8949E+01
      9.302  0.7016E+00  0.1690E+00  0.9035E+01  0.8970E+01
      9.426  0.4786E+00  0.5794E+00  0.9094E+01  0.9042E+01
      9.549  0.1421E-01  0.4621E+00  0.9096E+01  0.9099E+01
      9.673  0.4751E+00  0.8972E-01  0.9154E+01  0.9110E+01
      9.797  0.1559E+00  0.4043E+00  0.9174E+01  0.9160E+01
      9.920  0.5160E+00  0.2499E+00  0.9237E+01  0.9191E+01
     10.044  0.2731E+00  0.3595E+00  0.9271E+01  0.9235E+01
     10.168  0.8613E+00  0.8290E+00  0.9378E+01  0.9338E+01
     10.291  0.5150E-01  0.3419E+00  0.9384E+01  0.9380E+01
     10.415  0.1028E-02  0.3427E-01  0.9384E+01  0.9384E+01
     10.539 -0.1524E-05 -0.1054E-03  0.9384E+01  0.9384E+01
     10.663 -0.4765E-07 -0.2798E-11  0.9384E+01  0.9384E+01
     10.786 -0.9704E-02 -0.7217E-05  0.9383E+01  0.9384E+01
     10.910  0.5907E+00 -0.7547E-02  0.9456E+01  0.9383E+01
     11.034  0.9401E+00  0.8630E+00  0.9572E+01  0.9490E+01
     11.157  0.5066E+00  0.7573E+00  0.9635E+01  0.9584E+01
     11.281  0.5912E+00  0.4691E+00  0.9708E+01  0.9642E+01
     11.405  0.6816E+00  0.7327E+00  0.9792E+01  0.9732E+01
     11.528  0.6694E-01  0.5587E+00  0.9801E+01  0.9801E+01
     11.652  0.6264E-01  0.1650E-01  0.9809E+01  0.9804E+01
     11.776  0.4763E+00  0.5023E+00  0.9867E+01  0.9866E+01
     11.899 -0.2168E-01 -0.6920E-03  0.9865E+01  0.9866E+01
     12.023  0.3525E+00  0.2073E+00  0.9908E+01  0.9891E+01
     12.147  0.5420E+00  0.5882E+00  0.9975E+01  0.9964E+01
     12.270  0.7913E+00  0.4288E+00  0.1007E+02  0.1002E+02
     12.394  0.1317E+01  0.1305E+01  0.1024E+02  0.1018E+02
     12.518  0.1499E+01  0.1448E+01  0.1042E+02  0.1036E+02
     12.642  0.4484E+00  0.9814E+00  0.1048E+02  0.1048E+02
     12.765  0.1147E+00  0.1974E-01  0.1049E+02  0.1048E+02
     12.889  0.5708E+00  0.5761E+00  0.1056E+02  0.1055E+02
     13.013  0.2192E+00  0.5799E-01  0.1059E+02  0.1056E+02
     13.136  0.1388E+01  0.1518E+01  0.1076E+02  0.1075E+02
     13.260  0.2077E+01  0.2116E+01  0.1102E+02  0.1101E+02
     13.384 -0.3982E-01  0.3705E-01  0.1101E+02  0.1101E+02
     13.507  0.4662E+00  0.2780E+00  0.1107E+02  0.1105E+02
     13.631  0.4575E-02  0.1621E+00  0.1107E+02  0.1107E+02
     13.755  0.4447E+00  0.4618E+00  0.1113E+02  0.1113E+02
     13.878  0.3093E+00  0.1510E+00  0.1116E+02  0.1114E+02
     14.002  0.8305E+00  0.4287E+00  0.1127E+02  0.1120E+02
     14.126  0.5841E+00  0.5317E+00  0.1134E+02  0.1126E+02
     14.249  0.4865E+00  0.7712E+00  0.1140E+02  0.1136E+02
     14.373  0.9236E+00  0.5944E+00  0.1151E+02  0.1143E+02
     14.497  0.4586E+00  0.1094E+01  0.1157E+02  0.1157E+02
     14.621  0.2176E+01  0.1132E+01  0.1184E+02  0.1171E+02
     14.744  0.3341E+01  0.3517E+01  0.1225E+02  0.1214E+02
     14.868  0.1086E+01  0.1841E+01  0.1239E+02  0.1237E+02
     14.992  0.1747E+01  0.1877E+01  0.1260E+02  0.1260E+02
     15.115  0.6759E+00  0.2568E+00  0.1269E+02  0.1263E+02
     15.239  0.1055E+01  0.1352E+01  0.1282E+02  0.1280E+02
     15.363  0.1387E+01  0.1096E+01  0.1299E+02  0.1294E+02
     15.486  0.4300E+00  0.7350E+00  0.1304E+02  0.1303E+02
     15.610  0.1435E+00  0.3049E+00  0.1306E+02  0.1307E+02
     15.734  0.2711E+00  0.2304E+00  0.1309E+02  0.1309E+02
     15.857  0.5230E+00 -0.2477E-01  0.1316E+02  0.1309E+02
     15.981  0.9827E+00  0.1523E+01  0.1328E+02  0.1328E+02
     16.105  0.1571E+00  0.1028E+00  0.1330E+02  0.1329E+02
     16.228  0.1866E+00  0.1113E+00  0.1332E+02  0.1331E+02
     16.352  0.1072E+01  0.8346E+00  0.1345E+02  0.1341E+02
     16.476  0.8306E+00  0.1154E+01  0.1356E+02  0.1355E+02
     16.600 -0.1171E-01  0.3495E-01  0.1356E+02  0.1356E+02
     16.723 -0.5019E-02 -0.9689E-04  0.1355E+02  0.1356E+02
     16.847  0.4623E+00  0.3155E-01  0.1361E+02  0.1356E+02
     16.971  0.9671E+00  0.1363E+01  0.1373E+02  0.1373E+02
     17.094  0.4344E+00  0.4619E+00  0.1379E+02  0.1379E+02
     17.218  0.5861E+00  0.3337E+00  0.1386E+02  0.1383E+02
     17.342  0.3317E+00  0.3771E+00  0.1390E+02  0.1387E+02
     17.465  0.1381E+00  0.1959E+00  0.1392E+02  0.1390E+02
     17.589  0.7976E-01  0.2388E+00  0.1393E+02  0.1393E+02
     17.713 -0.5080E-02  0.7670E-01  0.1393E+02  0.1394E+02
     17.836  0.3126E+00  0.1125E+00  0.1396E+02  0.1395E+02
     17.960 -0.8234E-02  0.1031E+00  0.1396E+02  0.1396E+02
     18.084 -0.7709E-07 -0.4962E-03  0.1396E+02  0.1396E+02
     18.207 -0.3810E-12 -0.7035E-09  0.1396E+02  0.1396E+02
     18.331 -0.5940E-04 -0.1487E-02  0.1396E+02  0.1396E+02
     18.455  0.4400E-01  0.1352E+00  0.1397E+02  0.1398E+02
     18.578  0.1043E+00  0.1606E-01  0.1398E+02  0.1398E+02
     18.702  0.1429E+00 -0.1706E-02  0.1400E+02  0.1398E+02
     18.826  0.8388E-02  0.1550E+00  0.1400E+02  0.1400E+02
     18.950 -0.6601E-05 -0.3632E-02  0.1400E+02  0.1400E+02
     19.073  0.0000E+00 -0.1230E-07  0.1400E+02  0.1400E+02
     19.197  0.0000E+00  0.0000E+00  0.1400E+02  0.1400E+02
     19.321  0.0000E+00  0.0000E+00  0.1400E+02  0.1400E+02
     19.444  0.0000E+00  0.0000E+00  0.1400E+02  0.1400E+02
     19.568  0.0000E+00  0.0000E+00  0.1400E+02  0.1400E+02
     19.692  0.0000E+00  0.0000E+00  0.1400E+02  0.1400E+02
     19.815  0.0000E+00  0.0000E+00  0.1400E+02  0.1400E+02
     19.939  0.0000E+00  0.0000E+00  0.1400E+02  0.1400E+02
     20.063  0.0000E+00  0.0000E+00  0.1400E+02  0.1400E+02
     20.186  0.0000E+00  0.0000E+00  0.1400E+02  0.1400E+02
     20.310  0.0000E+00  0.0000E+00  0.1400E+02  0.1400E+02
     20.434  0.0000E+00  0.0000E+00  0.1400E+02  0.1400E+02
     20.43381029    -16.67240958  301      4.70999183      1.00000000
    -16.672  0.0000E+00  0.0000E+00  0.0000E+00  0.0000E+00  0.0000E+00  0.0000E+00  0.0000E+00  0.0000E+00  0.0000E+00  0.0000E+00  0.0000E+00  0.0000E+00  0.0000E+00  0.0000E+00  0.0000E+00  0.0000E+00  0.0000E+00  0.0000E+00
    -16.549  0.0000E+00  0.0000E+00  0.0000E+00  0.0000E+00  0.0000E+00  0.0000E+00  0.0000E+00  0.0000E+00  0.0000E+00  0.0000E+00  0.0000E+00  0.0000E+00  0.0000E+00  0.0000E+00  0.0000E+00  0.0000E+00  0.0000E+00  0.0000E+00
    -16.425  0.0000E+00  0.0000E+00  0.0000E+00  0.0000E+00  0.0000E+00  0.0000E+00  0.0000E+00  0.0000E+00  0.0000E+00  0.0000E+00  0.0000E+00  0.0000E+00  0.0000E+00  0.0000E+00  0.0000E+00  0.0000E+00  0.0000E+00  0.0000E+00
    -16.301  0.0000E+00  0.0000E+00  0.0000E+00  0.0000E+00  0.0000E+00  0.0000E+00  0.0000E+00  0.0000E+00  0.0000E+00  0.0000E+00  0.0000E+00  0.0000E+00  0.0000E+00  0.0000E+00  0.0000E+00  0.0000E+00  0.0000E+00  0.0000E+00
    -16.178  0.0000E+00  0.0000E+00  0.0000E+00  0.0000E+00  0.0000E+00  0.0000E+00  0.0000E+00  0.0000E+00  0.0000E+00  0.0000E+00  0.0000E+00  0.0000E+00  0.0000E+00  0.0000E+00  0.0000E+00  0.0000E+00  0.0000E+00  0.0000E+00
    -16.054  0.0000E+00  0.0000E+00  0.0000E+00  0.0000E+00  0.0000E+00  0.0000E+00  0.0000E+00  0.0000E+00  0.0000E+00  0.0000E+00  0.0000E+00  0.0000E+00  0.0000E+00  0.0000E+00  0.0000E+00  0.0000E+00  0.0000E+00  0.0000E+00
    -15.930  0.0000E+00  0.0000E+00  0.0000E+00  0.0000E+00  0.0000E+00  0.0000E+00  0.0000E+00  0.0000E+00  0.0000E+00  0.0000E+00  0.0000E+00  0.0000E+00  0.0000E+00  0.0000E+00  0.0000E+00  0.0000E+00  0.0000E+00  0.0000E+00
    -15.807  0.0000E+00  0.0000E+00  0.0000E+00  0.0000E+00  0.0000E+00  0.0000E+00  0.0000E+00  0.0000E+00  0.0000E+00  0.0000E+00  0.0000E+00  0.0000E+00  0.0000E+00  0.0000E+00  0.0000E+00  0.0000E+00  0.0000E+00  0.0000E+00
    -15.683  0.0000E+00  0.0000E+00  0.0000E+00  0.0000E+00  0.0000E+00  0.0000E+00  0.0000E+00  0.0000E+00  0.0000E+00  0.0000E+00  0.0000E+00  0.0000E+00  0.0000E+00  0.0000E+00  0.0000E+00  0.0000E+00  0.0000E+00  0.0000E+00
    -15.559  0.0000E+00  0.0000E+00  0.0000E+00  0.0000E+00  0.0000E+00  0.0000E+00  0.0000E+00  0.0000E+00  0.0000E+00  0.0000E+00  0.0000E+00  0.0000E+00  0.0000E+00  0.0000E+00  0.0000E+00  0.0000E+00  0.0000E+00  0.0000E+00
    -15.436 -0.1096E-36 -0.1568E-41 -0.2352E-52 -0.6658E-58 -0.8767E-44 -0.7893E-49 -0.1114E-51 -0.2160E-57  0.0000E+00  0.0000E+00  0.0000E+00  0.0000E+00  0.0000E+00  0.0000E+00  0.0000E+00  0.0000E+00  0.0000E+00  0.0000E+00
    -15.312 -0.3762E-20 -0.1084E-23 -0.8242E-36 -0.4605E-40 -0.1965E-26 -0.3552E-30 -0.3802E-35 -0.1491E-39  0.0000E+00  0.0000E+00  0.0000E+00  0.0000E+00  0.0000E+00  0.0000E+00  0.0000E+00  0.0000E+00  0.0000E+00  0.0000E+00
    -15.188 -0.5354E-09 -0.3167E-11 -0.1319E-24 -0.1351E-27 -0.1764E-14 -0.6627E-17 -0.5186E-24 -0.4303E-27  0.0000E+00  0.0000E+00  0.0000E+00  0.0000E+00  0.0000E+00  0.0000E+00  0.0000E+00  0.0000E+00  0.0000E+00  0.0000E+00
    -15.064 -0.2575E-03 -0.3643E-04 -0.1106E-18 -0.1587E-20 -0.4594E-08 -0.4235E-09 -0.2072E-18 -0.4624E-20  0.0000E+00  0.0000E+00  0.0000E+00  0.0000E+00  0.0000E+00  0.0000E+00  0.0000E+00  0.0000E+00  0.0000E+00  0.0000E+00
    -14.941  0.1815E-01  0.9137E-02  0.2239E-16  0.4109E-18  0.5816E-06  0.1509E-06  0.2741E-16  0.1086E-17  0.0000E+00  0.0000E+00  0.0000E+00  0.0000E+00  0.0000E+00  0.0000E+00  0.0000E+00  0.0000E+00  0.0000E+00  0.0000E+00
    -14.817  0.2220E-01  0.2559E-01  0.1374E-15  0.1230E-17  0.3138E-05  0.2571E-05  0.1386E-15  0.2705E-17  0.0000E+00  0.0000E+00  0.0000E+00  0.0000E+00  0.0000E+00  0.0000E+00  0.0000E+00  0.0000E+00  0.0000E+00  0.0000E+00
    -14.693  0.2590E-01  0.2244E-01  0.6479E-16  0.1004E-17  0.2476E-05  0.2957E-05  0.9077E-16  0.1930E-17  0.0000E+00  0.0000E+00  0.0000E+00  0.0000E+00  0.0000E+00  0.0000E+00  0.0000E+00  0.0000E+00  0.0000E+00  0.0000E+00
    -14.570  0.7018E-02  0.1540E-01 -0.1309E-13 -0.2807E-16  0.1102E-06  0.4244E-06 -0.3931E-13 -0.8390E-16  0.0000E+00  0.0000E+00  0.0000E+00  0.0000E+00  0.0000E+00  0.0000E+00  0.0000E+00  0.0000E+00  0.0000E+00  0.0000E+00
    -14.446 -0.8230E-04 -0.1668E-03 -0.6814E-06 -0.3012E-07 -0.8076E-09 -0.2658E-08 -0.2044E-05 -0.9036E-07  0.0000E+00  0.0000E+00  0.0000E+00  0.0000E+00  0.0000E+00  0.0000E+00  0.0000E+00  0.0000E+00  0.0000E+00  0.0000E+00
    -14.322  0.3030E-01  0.8806E-03  0.3326E-03  0.9845E-05  0.2924E-06 -0.1197E-06  0.9977E-03  0.2953E-04  0.0000E+00  0.0000E+00  0.0000E+00  0.0000E+00  0.0000E+00  0.0000E+00  0.0000E+00  0.0000E+00  0.0000E+00  0.0000E+00
    -14.199  0.1634E+00  0.1646E+00  0.1795E-02  0.1843E-02  0.1330E-04  0.9347E-05  0.5386E-02  0.5529E-02  0.0000E+00  0.0000E+00  0.0000E+00  0.0000E+00  0.0000E+00  0.0000E+00  0.0000E+00  0.0000E+00  0.0000E+00  0.0000E+00
    -14.075  0.1338E+00  0.1181E+00  0.1474E-02  0.1327E-02  0.1753E-04  0.1726E-04  0.4423E-02  0.3980E-02  0.0000E+00  0.0000E+00  0.0000E+00  0.0000E+00  0.0000E+00  0.0000E+00  0.0000E+00  0.0000E+00  0.0000E+00  0.0000E+00
    -13.951  0.9765E-01  0.1394E+00  0.1078E-02  0.1569E-02  0.2844E-05  0.6379E-05  0.3233E-02  0.4708E-02  0.0000E+00  0.0000E+00  0.0000E+00  0.0000E+00  0.0000E+00  0.0000E+00  0.0000E+00  0.0000E+00  0.0000E+00  0.0000E+00
    -13.828 -0.1183E-02 -0.3176E-02 -0.1306E-04 -0.3575E-04 -0.1983E-07 -0.9096E-07 -0.3918E-04 -0.1072E-03  0.0000E+00  0.0000E+00  0.0000E+00  0.0000E+00  0.0000E+00  0.0000E+00  0.0000E+00  0.0000E+00  0.0000E+00  0.0000E+00
    -13.704 -0.1581E-08 -0.1199E-06 -0.1745E-10 -0.1350E-08 -0.4037E-14 -0.4770E-12 -0.5235E-10 -0.4050E-08  0.0000E+00  0.0000E+00  0.0000E+00  0.0000E+00  0.0000E+00  0.0000E+00  0.0000E+00  0.0000E+00  0.0000E+00  0.0000E+00
    -13.580  0.0000E+00  0.0000E+00  0.0000E+00  0.0000E+00  0.0000E+00  0.0000E+00  0.0000E+00  0.0000E+00  0.0000E+00  0.0000E+00  0.0000E+00  0.0000E+00  0.0000E+00  0.0000E+00  0.0000E+00  0.0000E+00  0.0000E+00  0.0000E+00
    -13.457 -0.5436E-35 -0.1290E-39 -0.5583E-36 -0.1358E-40 -0.8253E-42 -0.1304E-46 -0.1871E-36 -0.4553E-41  0.0000E+00  0.0000E+00  0.0000E+00  0.0000E+00  0.0000E+00  0.0000E+00  0.0000E+00  0.0000E+00  0.0000E+00  0.0000E+00
    -13.333 -0.1014E-18 -0.4396E-22 -0.1041E-19 -0.4628E-23 -0.8074E-25 -0.2335E-28 -0.3490E-20 -0.1551E-23  0.0000E+00  0.0000E+00  0.0000E+00  0.0000E+00  0.0000E+00  0.0000E+00  0.0000E+00  0.0000E+00  0.0000E+00  0.0000E+00
    -13.209 -0.7942E-08 -0.6398E-10 -0.8157E-09 -0.6735E-11 -0.3130E-13 -0.1717E-15 -0.2734E-09 -0.2258E-11  0.0000E+00  0.0000E+00  0.0000E+00  0.0000E+00  0.0000E+00  0.0000E+00  0.0000E+00  0.0000E+00  0.0000E+00  0.0000E+00
    -13.085 -0.1977E-02 -0.3628E-03 -0.2031E-03 -0.3820E-04 -0.3404E-07 -0.4204E-08 -0.6808E-04 -0.1281E-04  0.0000E+00  0.0000E+00  0.0000E+00  0.0000E+00  0.0000E+00  0.0000E+00  0.0000E+00  0.0000E+00  0.0000E+00  0.0000E+00
    -12.962  0.1159E+00  0.6510E-01  0.1191E-01  0.6855E-02  0.3752E-05  0.1168E-05  0.3992E-02  0.2298E-02  0.0000E+00  0.0000E+00  0.0000E+00  0.0000E+00  0.0000E+00  0.0000E+00  0.0000E+00  0.0000E+00  0.0000E+00  0.0000E+00
    -12.838  0.1266E+00  0.1467E+00  0.1302E-01  0.1547E-01  0.1526E-04  0.1379E-04  0.4364E-02  0.5185E-02  0.0000E+00  0.0000E+00  0.0000E+00  0.0000E+00  0.0000E+00  0.0000E+00  0.0000E+00  0.0000E+00  0.0000E+00  0.0000E+00
    -12.714  0.1576E+00  0.1596E+00  0.1624E-01  0.1686E-01  0.8299E-05  0.1105E-04  0.5441E-02  0.5651E-02  0.0000E+00  0.0000E+00  0.0000E+00  0.0000E+00  0.0000E+00  0.0000E+00  0.0000E+00  0.0000E+00  0.0000E+00  0.0000E+00
    -12.591 -0.7896E-03  0.2129E-01 -0.8141E-04  0.2249E-02 -0.1195E-06  0.1402E-06 -0.2728E-04  0.7538E-03  0.0000E+00  0.0000E+00  0.0000E+00  0.0000E+00  0.0000E+00  0.0000E+00  0.0000E+00  0.0000E+00  0.0000E+00  0.0000E+00
    -12.467 -0.4067E-03 -0.6980E-04 -0.1882E-04 -0.5355E-05 -0.4653E-08 -0.5736E-09 -0.5602E-04 -0.6181E-05  0.0000E+00  0.0000E+00  0.0000E+00  0.0000E+00  0.0000E+00  0.0000E+00  0.0000E+00  0.0000E+00  0.0000E+00  0.0000E+00
    -12.343  0.6800E-01  0.2122E-01  0.3131E-02  0.1007E-02  0.1239E-05  0.1093E-06  0.9393E-02  0.3020E-02  0.0000E+00  0.0000E+00  0.0000E+00  0.0000E+00  0.0000E+00  0.0000E+00  0.0000E+00  0.0000E+00  0.0000E+00  0.0000E+00
    -12.220  0.1470E+00  0.1624E+00  0.6767E-02  0.7703E-02  0.1332E-04  0.1040E-04  0.2030E-01  0.2311E-01  0.0000E+00  0.0000E+00  0.0000E+00  0.0000E+00  0.0000E+00  0.0000E+00  0.0000E+00  0.0000E+00  0.0000E+00  0.0000E+00
    -12.096  0.1627E+00  0.1522E+00  0.7486E-02  0.7216E-02  0.9427E-05  0.1191E-04  0.2246E-01  0.2165E-01  0.0000E+00  0.0000E+00  0.0000E+00  0.0000E+00  0.0000E+00  0.0000E+00  0.0000E+00  0.0000E+00  0.0000E+00  0.0000E+00
    -11.972  0.8319E-02  0.4434E-01  0.3824E-03  0.2102E-02 -0.4573E-07  0.5800E-06  0.1147E-02  0.6306E-02  0.0000E+00  0.0000E+00  0.0000E+00  0.0000E+00  0.0000E+00  0.0000E+00  0.0000E+00  0.0000E+00  0.0000E+00  0.0000E+00
    -11.849 -0.9873E-05 -0.1471E-03 -0.4539E-06 -0.6970E-05 -0.6928E-10 -0.1430E-08 -0.1362E-05 -0.2091E-04  0.0000E+00  0.0000E+00  0.0000E+00  0.0000E+00  0.0000E+00  0.0000E+00  0.0000E+00  0.0000E+00  0.0000E+00  0.0000E+00
    -11.725 -0.2963E-13 -0.8334E-11 -0.1362E-14 -0.3950E-12 -0.4443E-30 -0.1633E-16 -0.4086E-14 -0.1185E-11  0.0000E+00  0.0000E+00  0.0000E+00  0.0000E+00  0.0000E+00  0.0000E+00  0.0000E+00  0.0000E+00  0.0000E+00  0.0000E+00
    -11.601  0.0000E+00  0.0000E+00  0.0000E+00  0.0000E+00  0.0000E+00  0.0000E+00  0.0000E+00  0.0000E+00  0.0000E+00  0.0000E+00  0.0000E+00  0.0000E+00  0.0000E+00  0.0000E+00  0.0000E+00  0.0000E+00  0.0000E+00  0.0000E+00
    -11.478  0.0000E+00  0.0000E+00  0.0000E+00  0.0000E+00  0.0000E+00  0.0000E+00  0.0000E+00  0.0000E+00  0.0000E+00  0.0000E+00  0.0000E+00  0.0000E+00  0.0000E+00  0.0000E+00  0.0000E+00  0.0000E+00  0.0000E+00  0.0000E+00
    -11.354  0.0000E+00  0.0000E+00  0.0000E+00  0.0000E+00  0.0000E+00  0.0000E+00  0.0000E+00  0.0000E+00  0.0000E+00  0.0000E+00  0.0000E+00  0.0000E+00  0.0000E+00  0.0000E+00  0.0000E+00  0.0000E+00  0.0000E+00  0.0000E+00
    -11.230  0.0000E+00  0.0000E+00  0.0000E+00  0.0000E+00  0.0000E+00  0.0000E+00  0.0000E+00  0.0000E+00  0.0000E+00  0.0000E+00  0.0000E+00  0.0000E+00  0.0000E+00  0.0000E+00  0.0000E+00  0.0000E+00  0.0000E+00  0.0000E+00
    -11.106  0.0000E+00  0.0000E+00  0.0000E+00  0.0000E+00  0.0000E+00  0.0000E+00  0.0000E+00  0.0000E+00  0.0000E+00  0.0000E+00  0.0000E+00  0.0000E+00  0.0000E+00  0.0000E+00  0.0000E+00  0.0000E+00  0.0000E+00  0.0000E+00
    -10.983 -0.4243E-42 -0.5143E-47 -0.7913E-43 -0.1008E-47 -0.6953E-49 -0.6376E-61 -0.5883E-43 -0.7577E-48  0.0000E+00  0.0000E+00  0.0000E+00  0.0000E+00  0.0000E+00  0.0000E+00  0.0000E+00  0.0000E+00  0.0000E+00  0.0000E+00
    -10.859 -0.7578E-24 -0.1517E-27 -0.1413E-24 -0.2973E-28 -0.4829E-30 -0.6952E-34 -0.1051E-24 -0.2235E-28  0.0000E+00  0.0000E+00  0.0000E+00  0.0000E+00  0.0000E+00  0.0000E+00  0.0000E+00  0.0000E+00  0.0000E+00  0.0000E+00
    -10.735 -0.5954E-11 -0.1973E-13 -0.1110E-11 -0.3866E-14 -0.1397E-16 -0.3401E-19 -0.8255E-12 -0.2906E-14  0.0000E+00  0.0000E+00  0.0000E+00  0.0000E+00  0.0000E+00  0.0000E+00  0.0000E+00  0.0000E+00  0.0000E+00  0.0000E+00
    -10.612 -0.1935E-03 -0.1120E-04 -0.3607E-04 -0.2194E-05 -0.1454E-08 -0.6405E-10 -0.2681E-04 -0.1649E-05  0.0000E+00  0.0000E+00  0.0000E+00  0.0000E+00  0.0000E+00  0.0000E+00  0.0000E+00  0.0000E+00  0.0000E+00  0.0000E+00
    -10.488  0.7426E-01  0.9038E-02  0.1385E-01  0.1774E-02  0.6380E-06 -0.1315E-06  0.1029E-01  0.1335E-02  0.0000E+00  0.0000E+00  0.0000E+00  0.0000E+00  0.0000E+00  0.0000E+00  0.0000E+00  0.0000E+00  0.0000E+00  0.0000E+00