    4    4    1    2
  0.8797333E+01  0.2461200E-09  0.2461200E-09  0.6707900E-09  0.5000000E-15
  1.000000000000000E-004
  CAR 
 unknown system                          
   16   28   14
 
  0.0000000E+00  0.0000000E+00  0.0000000E+00  0.4629630E-02
   1      -14.985763    -14.955619
   2      -14.685479    -14.656117
   3       -3.861359     -3.793588
   4       -1.898480     -1.821891
   5        1.709356      1.721091
   6        1.709357      1.721092
   7        1.727570      1.739647
   8        1.727572      1.739648
   9        8.973547      9.008427
  10       13.108433     13.118435
  11       13.108434     13.118436
  12       13.158133     13.167681
  13       13.158134     13.167681
  14       15.690592     15.304557
 
  0.1666667E+00 -0.1387779E-16  0.0000000E+00  0.2777778E-01
   1      -14.322559    -14.292736
   2      -14.034334    -14.005242
   3       -3.058349     -2.989964
   4       -1.150414     -1.072511
   5       -0.616389     -0.599843
   6       -0.551534     -0.535003
   7        0.561334      0.572986
   8        0.600419      0.612040
   9        9.778013      9.812689
  10       13.036495     13.057974
  11       13.224702     13.241100
  12       13.916842     14.004537
  13       14.286732     14.401135
  14       15.686540     15.677668
 
  0.3333333E+00  0.0000000E+00  0.0000000E+00  0.2777778E-01
   1      -12.366831    -12.337917
   2      -12.113626    -12.085144
   3       -4.975757     -4.954119
   4       -4.841415     -4.820023
   5       -1.067207     -1.055725
   6       -1.017117     -1.005821
   7       -0.742124     -0.672552
   8        0.938548      1.022751
   9        9.221686      9.292289
  10       10.101756     10.207325
  11       12.077664     12.103295
  12       12.364247     12.412722
  13       12.760696     12.786365
  14       17.456576     17.529158
 
  0.5000000E+00 -0.2775558E-16  0.0000000E+00  0.1388889E-01
   1       -9.627337     -9.602222
   2       -9.523314     -9.483087
   3       -8.562753     -8.550597
   4       -8.485399     -8.459889
   5       -1.708595     -1.697184
   6       -1.653324     -1.642123
   7        1.922039      1.964091
   8        2.560266      2.695843
   9        6.234875      6.238505
  10        6.843202      6.983551
  11       11.959351     11.996173
  12       12.355976     12.392334
  13       16.019050     16.008534
  14       16.105762     16.187828
 
  0.1666667E+00  0.1666667E+00  0.0000000E+00  0.2777778E-01
   1      -13.012974    -12.983786
   2      -12.748224    -12.719607
   3       -3.060269     -3.039826
   4       -3.006678     -2.984362
   5       -1.699623     -1.688222
   6       -1.659972     -1.647441
   7       -1.489557     -1.420136
   8        0.288484      0.369796
   9       10.858834     10.945665
  10       11.332997     11.429380
  11       11.395039     11.432672
  12       14.687386     14.712257
  13       14.929947     14.938550
  14       16.275381     16.328339
 
  0.3333333E+00  0.1666667E+00  0.0000000E+00  0.5555556E-01
   1      -10.493521    -10.465358
   2      -10.277129    -10.248535
   3       -6.761423     -6.738168
   4       -6.614695     -6.591139
   5       -3.365970     -3.352267
   6       -3.275512     -3.261837
   7        1.376967      1.443260
   8        2.695923      2.795085
   9        6.887757      6.955042
  10        7.619102      7.714965
  11       14.435222     14.449251
  12       14.607599     14.667122
  13       15.122526     15.146363
  14       17.151738     17.226012
 
  0.3333333E+00  0.3333333E+00  0.0000000E+00  0.9259259E-02
   1       -7.949033     -7.977029
   2       -7.909397     -7.823242
   3       -7.909396     -7.823240
   4       -7.759732     -7.786708
   5       -5.844657     -5.835677
   6       -5.844656     -5.835676
   7        4.139827      4.033414
   8        4.562506      4.838873
   9        4.562507      4.838875
  10        5.492612      5.377763
  11       15.842407     15.890375
  12       15.842407     15.890375
  13       16.999391     16.951069
  14       17.245783     17.331019
 
  0.0000000E+00  0.0000000E+00  0.1666667E+00  0.9259259E-02
   1      -14.966847    -14.936746
   2      -14.706928    -14.677510
   3       -3.750804     -3.682712
   4       -2.058967     -1.983452
   5        1.711308      1.723077
   6        1.711309      1.723078
   7        1.728764      1.740840
   8        1.728766      1.740841
   9        9.312822      9.349218
  10       13.103618     13.113596
  11       13.103620     13.113596
  12       13.157196     13.166847
  13       13.157197     13.166847
  14       14.597630     14.651082
 
  0.1666667E+00 -0.1387779E-16  0.1666667E+00  0.5555556E-01
   1      -14.304351    -14.274571
   2      -14.054855    -14.025709
   3       -2.950426     -2.881704
   4       -1.305987     -1.229182
   5       -0.611914     -0.595348
   6       -0.555916     -0.539380
   7        0.563682      0.575335
   8        0.597399      0.609014
   9       10.105067     10.141515
  10       13.038854     13.061221
  11       13.210735     13.227429
  12       13.949717     14.033886
  13       14.256703     14.372540
  14       15.270891     15.335220
 
  0.3333333E+00  0.0000000E+00  0.1666667E+00  0.5555556E-01
   1      -12.350703    -12.321815
   2      -12.131494    -12.102983
   3       -4.966170     -4.944516
   4       -4.850586     -4.829186
   5       -1.064358     -1.052900
   6       -1.020421     -1.009112
   7       -0.645602     -0.575473
   8        0.804648      0.887288
   9        9.262289      9.335871
  10       10.032834     10.135407
  11       12.253819     12.276072
  12       12.424843     12.476336
  13       12.837050     12.864913
  14       16.989232     17.056205
 
  0.5000000E+00 -0.2775558E-16  0.1666667E+00  0.2777778E-01
   1       -9.619080     -9.593127
   2       -9.528764     -9.489708
   3       -8.560123     -8.546918
   4       -8.492879     -8.468071
   5       -1.704822     -1.693428
   6       -1.656868     -1.645644
   7        1.979256      2.025457
   8        2.539655      2.667536
   9        6.220727      6.234675
  10        6.756577      6.889047
  11       11.984434     12.021487
  12       12.328510     12.365191
  13       16.278219     16.266656
  14       16.289929     16.375150
 
  0.1666667E+00  0.1666667E+00  0.1666667E+00  0.5555556E-01
   1      -12.996159    -12.967001
   2      -12.766967    -12.738313
   3       -3.056306     -3.035749
   4       -3.009877     -2.987685
   5       -1.697316     -1.685826
   6       -1.663368     -1.650910
   7       -1.388618     -1.318741
   8        0.144832      0.224848
   9       10.888741     10.976726
  10       11.291880     11.396123
  11       11.703607     11.734042
  12       14.688068     14.712603
  13       14.928255     14.938464
  14       16.238798     16.327075
 
  0.3333333E+00  0.1666667E+00  0.1666667E+00  0.1111111E+00
   1      -10.479643    -10.451453
   2      -10.292342    -10.263786
   3       -6.751778     -6.728493
   4       -6.624922     -6.601376
   5       -3.360101     -3.346384
   6       -3.281516     -3.267829
   7        1.457962      1.525575
   8        2.601514      2.697222
   9        6.922766      6.992905
  10        7.561554      7.656623
  11       14.539452     14.556566
  12       14.670274     14.732350
  13       15.129418     15.151589
  14       16.862132     16.926764
 
  0.3333333E+00  0.3333333E+00  0.1666667E+00  0.1851852E-01
   1       -7.936682     -7.964613
   2       -7.908629     -7.822449
   3       -7.908627     -7.822448
   4       -7.772611     -7.799666
   5       -5.845469     -5.836487
   6       -5.845468     -5.836486
   7        4.220515      4.113722
   8        4.571526      4.848246
   9        4.571527      4.848247
  10        5.389812      5.275857
  11       15.486419     15.538722
  12       15.486419     15.538722
  13       17.204145     17.156418
  14       17.769084     17.847673
 
  0.0000000E+00  0.0000000E+00  0.3333333E+00  0.9259259E-02
   1      -14.914353    -14.884377
   2      -14.764430    -14.734855
   3       -3.436616     -3.367502
   4       -2.468463     -2.395267
   5        1.714624      1.726456
   6        1.714626      1.726457
   7        1.724718      1.736725
   8        1.724720      1.736726
   9       10.252162     10.292343
  10       13.112967     13.122865
  11       13.112968     13.122866
  12       13.147512     13.157253
  13       13.147514     13.157254
  14       13.169145     13.219242
 
  0.1666667E+00 -0.1387779E-16  0.3333333E+00  0.5555556E-01
   1      -14.253857    -14.224195
   2      -14.109906    -14.080611
   3       -2.643266     -2.573424
   4       -1.703645     -1.629337
   5       -0.599812     -0.583224
   6       -0.567411     -0.550874
   7        0.571119      0.582772
   8        0.590868      0.602495
   9       11.007111     11.048140
  10       13.022259     13.049964
  11       13.179462     13.196370
  12       13.864584     13.887871
  13       14.041515     14.179155
  14       14.284353     14.373888
 
  0.3333333E+00  0.0000000E+00  0.3333333E+00  0.5555556E-01
   1      -12.306071    -12.277256
   2      -12.179586    -12.150987
   3       -4.942417     -4.920812
   4       -4.875760     -4.854305
   5       -1.054969     -1.043549
   6       -1.028224     -1.016848
   7       -0.370203     -0.298231
   8        0.461789      0.540710
   9        9.393509      9.473882
  10        9.845013      9.941057
  11       12.385024     12.415360
  12       12.513798     12.551201
  13       13.461766     13.500343
  14       15.893563     15.949581
 
  0.5000000E+00 -0.2775558E-16  0.3333333E+00  0.2777778E-01
   1       -9.597505     -9.569139
   2       -9.544852     -9.508889
   3       -8.550878     -8.534882
   4       -8.511568     -8.488840
   5       -1.693299     -1.681915
   6       -1.665512     -1.654230
   7        2.126875      2.186003
   8        2.458492      2.565316
   9        6.232602      6.274547
  10        6.550083      6.660433
  11       12.054682     12.092114
  12       12.253069     12.290321
  13       16.771451     16.862531
  14       16.944633     16.937437
 
  0.1666667E+00  0.1666667E+00  0.3333333E+00  0.5555556E-01
   1      -12.949578    -12.920518
   2      -12.817322    -12.788544
   3       -3.046021     -3.025143
   4       -3.019435     -2.997615
   5       -1.691004     -1.679300
   6       -1.671865     -1.659601
   7       -1.099763     -1.028436
   8       -0.223111     -0.146088
   9       10.970390     11.061658
  10       11.204969     11.306345
  11       12.524103     12.559203
  12       14.594400     14.624315
  13       14.924684     14.939036
  14       15.256602     15.305698
 
  0.3333333E+00  0.1666667E+00  0.3333333E+00  0.1111111E+00
   1      -10.441235    -10.412977
   2      -10.333129    -10.304658
   3       -6.725576     -6.702221
   4       -6.652235     -6.628736
   5       -3.344708     -3.330993
   6       -3.299026     -3.285325
   7        1.686501      1.758207
   8        2.346301      2.433763
   9        7.028350      7.105643
  10        7.402679      7.494565
  11       14.637109     14.671409
  12       14.789043     14.838316
  13       15.351766     15.380977
  14       16.383945     16.440920
 
  0.3333333E+00  0.3333333E+00  0.3333333E+00  0.1851852E-01
   1       -7.907500     -7.930574
   2       -7.907498     -7.835597
   3       -7.902817     -7.821286
   4       -7.808341     -7.821285
   5       -5.847881     -5.838899
   6       -5.847880     -5.838898
   7        4.442072      4.334185
   8        4.585597      4.863071
   9        4.585598      4.863072
  10        5.116670      5.004725
  11       15.044155     15.097226
  12       15.044155     15.097226
  13       17.754614     17.708898
  14       18.669329     18.747164
 
  0.0000000E+00  0.0000000E+00  0.5000000E+00  0.4629630E-02
   1      -14.840628    -14.810842
   2      -14.840627    -14.810840
   3       -2.973984     -2.903134
   4       -2.973983     -2.903133
   5        1.719790      1.731716
   6        1.719791      1.731717
   7        1.719792      1.731717
   8        1.719793      1.731718
   9       11.612420     11.657511
  10       11.612420     11.657511
  11       13.128460     13.138289
  12       13.128461     13.138290
  13       13.128462     13.138290
  14       13.128463     13.138291
 
  0.1666667E+00 -0.1387779E-16  0.5000000E+00  0.2777778E-01
   1      -14.183017    -14.153530
   2      -14.183015    -14.153529
   3       -2.195075     -2.123314
   4       -2.195074     -2.123313
   5       -0.583928     -0.567389
   6       -0.583927     -0.567389
   7        0.580423      0.592052
   8        0.580424      0.592053
   9       12.278714     12.326025
  10       12.278714     12.326025
  11       13.187678     13.204290
  12       13.187679     13.204290
  13       14.135831     14.239286
  14       14.135834     14.239288
 
  0.3333333E+00  0.0000000E+00  0.5000000E+00  0.2777778E-01
   1      -12.243696    -12.214985
   2      -12.243695    -12.214984
   3       -4.909457     -4.887922
   4       -4.909457     -4.887922
   5       -1.042000     -1.030609
   6       -1.041999     -1.030608
   7        0.029672      0.104668
   8        0.029673      0.104668
   9        9.601915      9.690221
  10        9.601916      9.690221
  11       12.465879     12.499501
  12       12.465879     12.499502
  13       14.607183     14.653414
  14       14.607184     14.653414
 
  0.5000000E+00 -0.2775558E-16  0.5000000E+00  0.1388889E-01
   1       -9.569814     -9.537827
   2       -9.569813     -9.537826
   3       -8.534004     -8.514465
   4       -8.534004     -8.514465
   5       -1.679979     -1.668650
   6       -1.679978     -1.668649
   7        2.308488      2.389276
   8        2.308489      2.389276
   9        6.341208      6.419078
  10        6.341209      6.419078
  11       12.151650     12.189215
  12       12.151651     12.189216
  13       17.289119     17.360681
  14       17.289119     17.360682
 
  0.1666667E+00  0.1666667E+00  0.5000000E+00  0.2777778E-01
   1      -12.884388    -12.855463
   2      -12.884387    -12.855462
   3       -3.032497     -3.011154
   4       -3.032497     -3.011154
   5       -1.681227     -1.669225
   6       -1.681226     -1.669224
   7       -0.680057     -0.606253
   8       -0.680056     -0.606253
   9       11.091540     11.187721
  10       11.091541     11.187722
  11       13.668581     13.711079
  12       13.668581     13.711079
  13       14.928646     14.949431
  14       14.928646     14.949432
 
  0.3333333E+00  0.1666667E+00  0.5000000E+00  0.5555556E-01
   1      -10.387791    -10.359431
   2      -10.387790    -10.359430
   3       -6.689143     -6.665706
   4       -6.689143     -6.665706
   5       -3.321963     -3.308250
   6       -3.321962     -3.308249
   7        2.009070      2.087646
   8        2.009070      2.087647
   9        7.204446      7.289982
  10        7.204447      7.289983
  11       14.727534     14.768753
  12       14.727534     14.768753
  13       15.860595     15.905964
  14       15.860595     15.905964
 
  0.3333333E+00  0.3333333E+00  0.5000000E+00  0.9259259E-02
   1       -7.907040     -7.883657
   2       -7.907039     -7.883657
   3       -7.856137     -7.820802
   4       -7.856137     -7.820801
   5       -5.849359     -5.840383
   6       -5.849358     -5.840382
   7        4.592874      4.657042
   8        4.592875      4.657042
   9        4.766762      4.870812
  10        4.766763      4.870813
  11       14.876506     14.929216
  12       14.876506     14.929216
  13       18.467450     18.427659
  14       18.467454     18.427664
