       N       E                     dE             d eps       ncg     rms          rms(c)
DAV:   1     0.309042364556E+02    0.30904E+02   -0.70828E+03  1568   0.840E+02
DAV:   2    -0.348335348749E+02   -0.65738E+02   -0.59696E+02  2178   0.182E+02
DAV:   3    -0.376093844118E+02   -0.27758E+01   -0.27579E+01  2054   0.363E+01
DAV:   4    -0.376376389298E+02   -0.28255E-01   -0.28243E-01  1966   0.424E+00
DAV:   5    -0.376381823142E+02   -0.54338E-03   -0.54327E-03  2064   0.557E-01    0.119E+01
DAV:   6    -0.369387927606E+02    0.69939E+00   -0.20846E+00  1742   0.925E+00    0.474E+00
DAV:   7    -0.368207306533E+02    0.11806E+00   -0.11590E+00  1808   0.727E+00    0.186E+00
DAV:   8    -0.367703104354E+02    0.50420E-01   -0.22666E-01  1808   0.349E+00    0.645E-01
DAV:   9    -0.367817333372E+02   -0.11423E-01   -0.17817E-02  1820   0.116E+00    0.322E-01
DAV:  10    -0.367826936418E+02   -0.96030E-03   -0.15829E-03  1934   0.412E-01    0.122E-01
DAV:  11    -0.367830167822E+02   -0.32314E-03   -0.41426E-04  1790   0.177E-01    0.468E-02
DAV:  12    -0.367831239005E+02   -0.10712E-03   -0.12654E-04  1568   0.971E-02    0.169E-02
DAV:  13    -0.367831301837E+02   -0.62832E-05   -0.91029E-06  1054   0.273E-02
   1 F= -.36783130E+02 E0= -.36783173E+02  d E =0.127621E-03  mag=     0.0922
