PROCAR lm decomposed
# of k-points:   28         # of bands:  14         # of ions:   4

 k-point    1 :    0.00000000 0.00000000 0.00000000     weight = 0.00462963

band   1 # energy  -14.98576322 # occ.  1.00000000
 
ion      s     py     pz     px    dxy    dyz    dz2    dxz    dx2    tot
  1  0.160  0.000  0.000  0.000  0.000  0.000  0.000  0.000  0.000  0.160
  2  0.159  0.000  0.000  0.000  0.000  0.000  0.000  0.000  0.000  0.159
  3  0.159  0.000  0.000  0.000  0.000  0.000  0.000  0.000  0.000  0.159
  4  0.160  0.000  0.000  0.000  0.000  0.000  0.000  0.000  0.000  0.160
tot  0.637  0.000  0.000  0.000  0.000  0.000  0.000  0.000  0.000  0.637
 
band   2 # energy  -14.68547940 # occ.  1.00000000
 
ion      s     py     pz     px    dxy    dyz    dz2    dxz    dx2    tot
  1  0.165  0.000  0.000  0.000  0.000  0.000  0.000  0.000  0.000  0.165
  2  0.164  0.000  0.000  0.000  0.000  0.000  0.000  0.000  0.000  0.164
  3  0.164  0.000  0.000  0.000  0.000  0.000  0.000  0.000  0.000  0.164
  4  0.165  0.000  0.000  0.000  0.000  0.000  0.000  0.000  0.000  0.165
tot  0.659  0.000  0.000  0.000  0.000  0.000  0.000  0.000  0.000  0.659
 
band   3 # energy   -3.86135944 # occ.  1.00000000
 
ion      s     py     pz     px    dxy    dyz    dz2    dxz    dx2    tot
  1  0.000  0.000  0.097  0.000  0.000  0.000  0.000  0.000  0.000  0.097
  2  0.000  0.000  0.095  0.000  0.000  0.000  0.000  0.000  0.000  0.095
  3  0.000  0.000  0.095  0.000  0.000  0.000  0.000  0.000  0.000  0.095
  4  0.000  0.000  0.097  0.000  0.000  0.000  0.000  0.000  0.000  0.097
tot  0.000  0.000  0.385  0.000  0.000  0.000  0.000  0.000  0.000  0.385
 
band   4 # energy   -1.89847983 # occ.  1.00000000
 
ion      s     py     pz     px    dxy    dyz    dz2    dxz    dx2    tot
  1  0.000  0.000  0.128  0.000  0.000  0.000  0.000  0.000  0.000  0.128
  2  0.000  0.000  0.124  0.000  0.000  0.000  0.000  0.000  0.000  0.124
  3  0.000  0.000  0.124  0.000  0.000  0.000  0.000  0.000  0.000  0.124
  4  0.000  0.000  0.128  0.000  0.000  0.000  0.000  0.000  0.000  0.128
tot  0.000  0.000  0.505  0.000  0.000  0.000  0.000  0.000  0.000  0.505
 
band   5 # energy    1.70935596 # occ.  1.00000000
 
ion      s     py     pz     px    dxy    dyz    dz2    dxz    dx2    tot
  1  0.000  0.155  0.000  0.052  0.000  0.000  0.000  0.000  0.000  0.207
  2  0.000  0.155  0.000  0.052  0.000  0.000  0.000  0.000  0.000  0.207
  3  0.000  0.155  0.000  0.052  0.000  0.000  0.000  0.000  0.000  0.207
  4  0.000  0.155  0.000  0.052  0.000  0.000  0.000  0.000  0.000  0.207
tot  0.000  0.621  0.000  0.207  0.000  0.000  0.000  0.000  0.000  0.827
 
band   6 # energy    1.70935744 # occ.  1.00000000
 
ion      s     py     pz     px    dxy    dyz    dz2    dxz    dx2    tot
  1  0.000  0.052  0.000  0.155  0.000  0.000  0.000  0.000  0.000  0.207
  2  0.000  0.052  0.000  0.155  0.000  0.000  0.000  0.000  0.000  0.207
  3  0.000  0.052  0.000  0.155  0.000  0.000  0.000  0.000  0.000  0.207
  4  0.000  0.052  0.000  0.155  0.000  0.000  0.000  0.000  0.000  0.207
tot  0.000  0.207  0.000  0.621  0.000  0.000  0.000  0.000  0.000  0.827
 
band   7 # energy    1.72757032 # occ.  1.00000000
 
ion      s     py     pz     px    dxy    dyz    dz2    dxz    dx2    tot
  1  0.000  0.156  0.000  0.052  0.000  0.000  0.000  0.000  0.000  0.208
  2  0.000  0.155  0.000  0.052  0.000  0.000  0.000  0.000  0.000  0.206
  3  0.000  0.155  0.000  0.052  0.000  0.000  0.000  0.000  0.000  0.206
  4  0.000  0.156  0.000  0.052  0.000  0.000  0.000  0.000  0.000  0.208
tot  0.000  0.622  0.000  0.207  0.000  0.000  0.000  0.000  0.000  0.829
 
band   8 # energy    1.72757181 # occ.  1.00000000
 
ion      s     py     pz     px    dxy    dyz    dz2    dxz    dx2    tot
  1  0.000  0.052  0.000  0.156  0.000  0.000  0.000  0.000  0.000  0.208
  2  0.000  0.052  0.000  0.155  0.000  0.000  0.000  0.000  0.000  0.206
  3  0.000  0.052  0.000  0.155  0.000  0.000  0.000  0.000  0.000  0.206
  4  0.000  0.052  0.000  0.156  0.000  0.000  0.000  0.000  0.000  0.208
tot  0.000  0.207  0.000  0.622  0.000  0.000  0.000  0.000  0.000  0.829
 
band   9 # energy    8.97354658 # occ.  0.00000000
 
ion      s     py     pz     px    dxy    dyz    dz2    dxz    dx2    tot
  1  0.021  0.000  0.000  0.000  0.000  0.000  0.000  0.000  0.000  0.021
  2  0.021  0.000  0.000  0.000  0.000  0.000  0.000  0.000  0.000  0.021
  3  0.021  0.000  0.000  0.000  0.000  0.000  0.000  0.000  0.000  0.021
  4  0.021  0.000  0.000  0.000  0.000  0.000  0.000  0.000  0.000  0.021
tot  0.083  0.000  0.000  0.000  0.000  0.000  0.000  0.000  0.000  0.083
 
band  10 # energy   13.10843279 # occ.  0.00000000
 
ion      s     py     pz     px    dxy    dyz    dz2    dxz    dx2    tot
  1  0.000  0.097  0.000  0.032  0.000  0.000  0.000  0.000  0.000  0.129
  2  0.000  0.100  0.000  0.033  0.000  0.000  0.000  0.000  0.000  0.133
  3  0.000  0.100  0.000  0.033  0.000  0.000  0.000  0.000  0.000  0.133
  4  0.000  0.097  0.000  0.032  0.000  0.000  0.000  0.000  0.000  0.129
tot  0.000  0.394  0.000  0.131  0.000  0.000  0.000  0.000  0.000  0.525
 
band  11 # energy   13.10843409 # occ.  0.00000000
 
ion      s     py     pz     px    dxy    dyz    dz2    dxz    dx2    tot
  1  0.000  0.032  0.000  0.097  0.000  0.000  0.000  0.000  0.000  0.129
  2  0.000  0.033  0.000  0.100  0.000  0.000  0.000  0.000  0.000  0.133
  3  0.000  0.033  0.000  0.100  0.000  0.000  0.000  0.000  0.000  0.133
  4  0.000  0.032  0.000  0.097  0.000  0.000  0.000  0.000  0.000  0.129
tot  0.000  0.131  0.000  0.394  0.000  0.000  0.000  0.000  0.000  0.525
 
band  12 # energy   13.15813263 # occ.  0.00000000
 
ion      s     py     pz     px    dxy    dyz    dz2    dxz    dx2    tot
  1  0.000  0.100  0.000  0.033  0.000  0.000  0.000  0.000  0.000  0.133
  2  0.000  0.098  0.000  0.033  0.000  0.000  0.000  0.000  0.000  0.131
  3  0.000  0.098  0.000  0.033  0.000  0.000  0.000  0.000  0.000  0.131
  4  0.000  0.100  0.000  0.033  0.000  0.000  0.000  0.000  0.000  0.133
tot  0.000  0.396  0.000  0.132  0.000  0.000  0.000  0.000  0.000  0.528
 
band  13 # energy   13.15813414 # occ.  0.00000000
 
ion      s     py     pz     px    dxy    dyz    dz2    dxz    dx2    tot
  1  0.000  0.033  0.000  0.100  0.000  0.000  0.000  0.000  0.000  0.133
  2  0.000  0.033  0.000  0.098  0.000  0.000  0.000  0.000  0.000  0.131
  3  0.000  0.033  0.000  0.098  0.000  0.000  0.000  0.000  0.000  0.131
  4  0.000  0.033  0.000  0.100  0.000  0.000  0.000  0.000  0.000  0.133
tot  0.000  0.132  0.000  0.396  0.000  0.000  0.000  0.000  0.000  0.528
 
band  14 # energy   15.69059190 # occ.  0.00000000
 
ion      s     py     pz     px    dxy    dyz    dz2    dxz    dx2    tot
  1  0.000  0.000  0.219  0.000  0.000  0.000  0.000  0.000  0.000  0.219
  2  0.000  0.000  0.059  0.000  0.000  0.000  0.000  0.000  0.000  0.059
  3  0.000  0.000  0.065  0.000  0.000  0.000  0.000  0.000  0.000  0.065
  4  0.000  0.000  0.169  0.000  0.000  0.000  0.000  0.000  0.000  0.169
tot  0.001  0.000  0.512  0.000  0.000  0.000  0.000  0.000  0.000  0.512
 

 k-point    2 :    0.16666667 0.00000000 0.00000000     weight = 0.02777778

band   1 # energy  -14.32255891 # occ.  1.00000000
 
ion      s     py     pz     px    dxy    dyz    dz2    dxz    dx2    tot
  1  0.155  0.002  0.000  0.005  0.000  0.000  0.000  0.000  0.000  0.162
  2  0.153  0.002  0.000  0.005  0.000  0.000  0.000  0.000  0.000  0.160
  3  0.153  0.002  0.000  0.005  0.000  0.000  0.000  0.000  0.000  0.160
  4  0.155  0.002  0.000  0.005  0.000  0.000  0.000  0.000  0.000  0.162
tot  0.616  0.007  0.000  0.020  0.000  0.000  0.000  0.000  0.000  0.644
 
band   2 # energy  -14.03433426 # occ.  1.00000000
 
ion      s     py     pz     px    dxy    dyz    dz2    dxz    dx2    tot
  1  0.160  0.002  0.000  0.005  0.000  0.000  0.000  0.000  0.000  0.167
  2  0.159  0.002  0.000  0.005  0.000  0.000  0.000  0.000  0.000  0.166
  3  0.159  0.002  0.000  0.005  0.000  0.000  0.000  0.000  0.000  0.166
  4  0.160  0.002  0.000  0.005  0.000  0.000  0.000  0.000  0.000  0.167
tot  0.637  0.007  0.000  0.021  0.000  0.000  0.000  0.000  0.000  0.666
 
band   3 # energy   -3.05834933 # occ.  1.00000000
 
ion      s     py     pz     px    dxy    dyz    dz2    dxz    dx2    tot
  1  0.000  0.000  0.099  0.000  0.000  0.000  0.000  0.000  0.000  0.099
  2  0.000  0.000  0.097  0.000  0.000  0.000  0.000  0.000  0.000  0.097
  3  0.000  0.000  0.097  0.000  0.000  0.000  0.000  0.000  0.000  0.097
  4  0.000  0.000  0.099  0.000  0.000  0.000  0.000  0.000  0.000  0.099
tot  0.000  0.000  0.391  0.000  0.000  0.000  0.000  0.000  0.000  0.391
 
band   4 # energy   -1.15041352 # occ.  1.00000000
 
ion      s     py     pz     px    dxy    dyz    dz2    dxz    dx2    tot
  1  0.000  0.000  0.130  0.000  0.000  0.000  0.000  0.000  0.000  0.130
  2  0.000  0.000  0.125  0.000  0.000  0.000  0.000  0.000  0.000  0.125
  3  0.000  0.000  0.125  0.000  0.000  0.000  0.000  0.000  0.000  0.125
  4  0.000  0.000  0.130  0.000  0.000  0.000  0.000  0.000  0.000  0.130
tot  0.000  0.000  0.510  0.000  0.000  0.000  0.000  0.000  0.000  0.510
 
band   5 # energy   -0.61638938 # occ.  1.00000000
 
ion      s     py     pz     px    dxy    dyz    dz2    dxz    dx2    tot
  1  0.029  0.042  0.000  0.126  0.000  0.000  0.000  0.000  0.000  0.197
  2  0.029  0.042  0.000  0.126  0.000  0.000  0.000  0.000  0.000  0.197
  3  0.029  0.042  0.000  0.126  0.000  0.000  0.000  0.000  0.000  0.197
  4  0.029  0.042  0.000  0.126  0.000  0.000  0.000  0.000  0.000  0.197
tot  0.116  0.168  0.000  0.503  0.000  0.000  0.000  0.000  0.000  0.787
 
band   6 # energy   -0.55153361 # occ.  1.00000000
 
ion      s     py     pz     px    dxy    dyz    dz2    dxz    dx2    tot
  1  0.029  0.042  0.000  0.127  0.000  0.000  0.000  0.000  0.000  0.199
  2  0.029  0.042  0.000  0.126  0.000  0.000  0.000  0.000  0.000  0.197
  3  0.029  0.042  0.000  0.126  0.000  0.000  0.000  0.000  0.000  0.197
  4  0.029  0.042  0.000  0.127  0.000  0.000  0.000  0.000  0.000  0.199
tot  0.115  0.169  0.000  0.507  0.000  0.000  0.000  0.000  0.000  0.792
 
band   7 # energy    0.56133427 # occ.  1.00000000
 
ion      s     py     pz     px    dxy    dyz    dz2    dxz    dx2    tot
  1  0.000  0.151  0.000  0.050  0.000  0.000  0.000  0.000  0.000  0.201
  2  0.000  0.151  0.000  0.050  0.000  0.000  0.000  0.000  0.000  0.201
  3  0.000  0.151  0.000  0.050  0.000  0.000  0.000  0.000  0.000  0.201
  4  0.000  0.151  0.000  0.050  0.000  0.000  0.000  0.000  0.000  0.201
tot  0.000  0.603  0.000  0.201  0.000  0.000  0.000  0.000  0.000  0.804
 
band   8 # energy    0.60041941 # occ.  1.00000000
 
ion      s     py     pz     px    dxy    dyz    dz2    dxz    dx2    tot
  1  0.000  0.152  0.000  0.051  0.000  0.000  0.000  0.000  0.000  0.202
  2  0.000  0.151  0.000  0.050  0.000  0.000  0.000  0.000  0.000  0.202
  3  0.000  0.151  0.000  0.050  0.000  0.000  0.000  0.000  0.000  0.202
  4  0.000  0.152  0.000  0.051  0.000  0.000  0.000  0.000  0.000  0.202
tot  0.000  0.606  0.000  0.202  0.000  0.000  0.000  0.000  0.000  0.808
 
band   9 # energy    9.77801270 # occ.  0.00000000
 
ion      s     py     pz     px    dxy    dyz    dz2    dxz    dx2    tot
  1  0.017  0.001  0.000  0.003  0.000  0.000  0.000  0.000  0.000  0.022
  2  0.017  0.001  0.000  0.003  0.000  0.000  0.000  0.000  0.000  0.021
  3  0.017  0.001  0.000  0.003  0.000  0.000  0.000  0.000  0.000  0.021
  4  0.017  0.001  0.000  0.003  0.000  0.000  0.000  0.000  0.000  0.022
tot  0.069  0.004  0.000  0.013  0.000  0.000  0.000  0.000  0.000  0.086
 
band  10 # energy   13.03649518 # occ.  0.00000000
 
ion      s     py     pz     px    dxy    dyz    dz2    dxz    dx2    tot
  1  0.030  0.022  0.000  0.065  0.000  0.000  0.000  0.000  0.000  0.118
  2  0.032  0.023  0.000  0.069  0.000  0.000  0.000  0.000  0.000  0.125
  3  0.032  0.023  0.000  0.069  0.000  0.000  0.000  0.000  0.000  0.125
  4  0.030  0.022  0.000  0.065  0.000  0.000  0.000  0.000  0.000  0.118
tot  0.125  0.090  0.000  0.270  0.000  0.000  0.000  0.000  0.000  0.485
 
band  11 # energy   13.22470170 # occ.  0.00000000
 
ion      s     py     pz     px    dxy    dyz    dz2    dxz    dx2    tot
  1  0.034  0.023  0.000  0.069  0.000  0.000  0.000  0.000  0.000  0.126
  2  0.032  0.022  0.000  0.067  0.000  0.000  0.000  0.000  0.000  0.121
  3  0.032  0.022  0.000  0.067  0.000  0.000  0.000  0.000  0.000  0.121
  4  0.034  0.023  0.000  0.069  0.000  0.000  0.000  0.000  0.000  0.126
tot  0.131  0.091  0.000  0.272  0.000  0.000  0.000  0.000  0.000  0.494
 
band  12 # energy   13.91684209 # occ.  0.00000000
 
ion      s     py     pz     px    dxy    dyz    dz2    dxz    dx2    tot
  1  0.000  0.000  0.161  0.000  0.000  0.000  0.000  0.000  0.000  0.161
  2  0.000  0.000  0.174  0.000  0.000  0.000  0.000  0.000  0.000  0.174
  3  0.000  0.000  0.174  0.000  0.000  0.000  0.000  0.000  0.000  0.174
  4  0.000  0.000  0.161  0.000  0.000  0.000  0.000  0.000  0.000  0.161
tot  0.000  0.000  0.670  0.000  0.000  0.000  0.000  0.000  0.000  0.670
 
band  13 # energy   14.28673216 # occ.  0.00000000
 
ion      s     py     pz     px    dxy    dyz    dz2    dxz    dx2    tot
  1  0.000  0.000  0.182  0.000  0.000  0.000  0.000  0.000  0.000  0.182
  2  0.000  0.000  0.170  0.000  0.000  0.000  0.000  0.000  0.000  0.170
  3  0.000  0.000  0.170  0.000  0.000  0.000  0.000  0.000  0.000  0.170
  4  0.000  0.000  0.182  0.000  0.000  0.000  0.000  0.000  0.000  0.182
tot  0.000  0.000  0.704  0.000  0.000  0.000  0.000  0.000  0.000  0.704
 
band  14 # energy   15.68653980 # occ.  0.00000000
 
ion      s     py     pz     px    dxy    dyz    dz2    dxz    dx2    tot
  1  0.000  0.012  0.000  0.004  0.000  0.000  0.000  0.000  0.000  0.016
  2  0.000  0.013  0.000  0.004  0.000  0.000  0.000  0.000  0.000  0.018
  3  0.000  0.200  0.000  0.066  0.000  0.000  0.000  0.000  0.000  0.266
  4  0.000  0.198  0.000  0.066  0.000  0.000  0.000  0.000  0.000  0.264
tot  0.000  0.423  0.000  0.141  0.000  0.000  0.000  0.000  0.000  0.564
 

 k-point    3 :    0.33333333 0.00000000 0.00000000     weight = 0.02777778

band   1 # energy  -12.36683113 # occ.  1.00000000
 
ion      s     py     pz     px    dxy    dyz    dz2    dxz    dx2    tot
  1  0.141  0.006  0.000  0.019  0.000  0.000  0.000  0.000  0.000  0.167
  2  0.139  0.007  0.000  0.020  0.000  0.000  0.000  0.000  0.000  0.166
  3  0.139  0.007  0.000  0.020  0.000  0.000  0.000  0.000  0.000  0.166
  4  0.141  0.006  0.000  0.019  0.000  0.000  0.000  0.000  0.000  0.167
tot  0.561  0.026  0.000  0.078  0.000  0.000  0.000  0.000  0.000  0.665
 
band   2 # energy  -12.11362633 # occ.  1.00000000
 
ion      s     py     pz     px    dxy    dyz    dz2    dxz    dx2    tot
  1  0.145  0.007  0.000  0.020  0.000  0.000  0.000  0.000  0.000  0.172
  2  0.143  0.007  0.000  0.020  0.000  0.000  0.000  0.000  0.000  0.170
  3  0.143  0.007  0.000  0.020  0.000  0.000  0.000  0.000  0.000  0.170
  4  0.145  0.007  0.000  0.020  0.000  0.000  0.000  0.000  0.000  0.172
tot  0.577  0.027  0.000  0.081  0.000  0.000  0.000  0.000  0.000  0.685
 
band   3 # energy   -4.97575695 # occ.  1.00000000
 
ion      s     py     pz     px    dxy    dyz    dz2    dxz    dx2    tot
  1  0.068  0.029  0.000  0.086  0.000  0.000  0.000  0.000  0.000  0.182
  2  0.069  0.028  0.000  0.085  0.000  0.000  0.000  0.000  0.000  0.182
  3  0.069  0.028  0.000  0.085  0.000  0.000  0.000  0.000  0.000  0.182
  4  0.068  0.029  0.000  0.086  0.000  0.000  0.000  0.000  0.000  0.182
tot  0.273  0.114  0.000  0.342  0.000  0.000  0.000  0.000  0.000  0.729
 
band   4 # energy   -4.84141460 # occ.  1.00000000
 
ion      s     py     pz     px    dxy    dyz    dz2    dxz    dx2    tot
  1  0.069  0.029  0.000  0.087  0.000  0.000  0.000  0.000  0.000  0.186
  2  0.069  0.029  0.000  0.087  0.000  0.000  0.000  0.000  0.000  0.185
  3  0.069  0.029  0.000  0.087  0.000  0.000  0.000  0.000  0.000  0.185
  4  0.069  0.029  0.000  0.087  0.000  0.000  0.000  0.000  0.000  0.186
tot  0.277  0.116  0.000  0.348  0.000  0.000  0.000  0.000  0.000  0.741
 
band   5 # energy   -1.06720716 # occ.  1.00000000
 
ion      s     py     pz     px    dxy    dyz    dz2    dxz    dx2    tot
  1  0.000  0.148  0.000  0.049  0.000  0.000  0.000  0.000  0.000  0.198
  2  0.000  0.148  0.000  0.049  0.000  0.000  0.000  0.000  0.000  0.197
  3  0.000  0.148  0.000  0.049  0.000  0.000  0.000  0.000  0.000  0.197
  4  0.000  0.148  0.000  0.049  0.000  0.000  0.000  0.000  0.000  0.198
tot  0.000  0.592  0.000  0.197  0.000  0.000  0.000  0.000  0.000  0.789
 
band   6 # energy   -1.01711661 # occ.  1.00000000
 
ion      s     py     pz     px    dxy    dyz    dz2    dxz    dx2    tot
  1  0.000  0.149  0.000  0.050  0.000  0.000  0.000  0.000  0.000  0.199
  2  0.000  0.149  0.000  0.050  0.000  0.000  0.000  0.000  0.000  0.198
  3  0.000  0.149  0.000  0.050  0.000  0.000  0.000  0.000  0.000  0.198
  4  0.000  0.149  0.000  0.050  0.000  0.000  0.000  0.000  0.000  0.199
tot  0.000  0.595  0.000  0.198  0.000  0.000  0.000  0.000  0.000  0.793
 
band   7 # energy   -0.74212368 # occ.  1.00000000
 
ion      s     py     pz     px    dxy    dyz    dz2    dxz    dx2    tot
  1  0.000  0.000  0.105  0.000  0.000  0.000  0.000  0.000  0.000  0.105
  2  0.000  0.000  0.103  0.000  0.000  0.000  0.000  0.000  0.000  0.103
  3  0.000  0.000  0.103  0.000  0.000  0.000  0.000  0.000  0.000  0.103
  4  0.000  0.000  0.105  0.000  0.000  0.000  0.000  0.000  0.000  0.105
tot  0.000  0.000  0.414  0.000  0.000  0.000  0.000  0.000  0.000  0.414
 
band   8 # energy    0.93854758 # occ.  1.00000000
 
ion      s     py     pz     px    dxy    dyz    dz2    dxz    dx2    tot
  1  0.000  0.000  0.137  0.000  0.000  0.000  0.000  0.000  0.000  0.137
  2  0.000  0.000  0.127  0.000  0.000  0.000  0.000  0.000  0.000  0.127
  3  0.000  0.000  0.127  0.000  0.000  0.000  0.000  0.000  0.000  0.127
  4  0.000  0.000  0.137  0.000  0.000  0.000  0.000  0.000  0.000  0.137
tot  0.000  0.000  0.527  0.000  0.000  0.000  0.000  0.000  0.000  0.527
 
band   9 # energy    9.22168607 # occ.  0.00000000
 
ion      s     py     pz     px    dxy    dyz    dz2    dxz    dx2    tot
  1  0.000  0.000  0.114  0.000  0.000  0.000  0.000  0.000  0.000  0.114
  2  0.000  0.000  0.139  0.000  0.000  0.000  0.000  0.000  0.000  0.139
  3  0.000  0.000  0.139  0.000  0.000  0.000  0.000  0.000  0.000  0.139
  4  0.000  0.000  0.114  0.000  0.000  0.000  0.000  0.000  0.000  0.114
tot  0.000  0.000  0.506  0.000  0.000  0.000  0.000  0.000  0.000  0.506
 
band  10 # energy   10.10175610 # occ.  0.00000000
 
ion      s     py     pz     px    dxy    dyz    dz2    dxz    dx2    tot
  1  0.000  0.000  0.157  0.000  0.000  0.000  0.000  0.000  0.000  0.157
  2  0.000  0.000  0.140  0.000  0.000  0.000  0.000  0.000  0.000  0.140
  3  0.000  0.000  0.140  0.000  0.000  0.000  0.000  0.000  0.000  0.140
  4  0.000  0.000  0.157  0.000  0.000  0.000  0.000  0.000  0.000  0.157
tot  0.000  0.000  0.595  0.000  0.000  0.000  0.000  0.000  0.000  0.595
 
band  11 # energy   12.07766353 # occ.  0.00000000
 
ion      s     py     pz     px    dxy    dyz    dz2    dxz    dx2    tot
  1  0.027  0.008  0.000  0.023  0.000  0.000  0.000  0.000  0.000  0.058
  2  0.008  0.007  0.000  0.022  0.000  0.000  0.000  0.000  0.000  0.038
  3  0.008  0.007  0.000  0.022  0.000  0.000  0.000  0.000  0.000  0.038
  4  0.027  0.008  0.000  0.023  0.000  0.000  0.000  0.000  0.000  0.058
tot  0.070  0.030  0.000  0.091  0.000  0.000  0.000  0.000  0.000  0.191
 
band  12 # energy   12.36424727 # occ.  0.00000000
 
ion      s     py     pz     px    dxy    dyz    dz2    dxz    dx2    tot
  1  0.054  0.007  0.000  0.021  0.000  0.000  0.000  0.000  0.000  0.082
  2  0.090  0.008  0.000  0.024  0.000  0.000  0.000  0.000  0.000  0.122
  3  0.090  0.008  0.000  0.024  0.000  0.000  0.000  0.000  0.000  0.122
  4  0.054  0.007  0.000  0.021  0.000  0.000  0.000  0.000  0.000  0.082
tot  0.287  0.030  0.000  0.091  0.000  0.000  0.000  0.000  0.000  0.408
 
band  13 # energy   12.76069609 # occ.  0.00000000
 
ion      s     py     pz     px    dxy    dyz    dz2    dxz    dx2    tot
  1  0.091  0.005  0.000  0.015  0.000  0.000  0.000  0.000  0.000  0.111
  2  0.074  0.005  0.000  0.014  0.000  0.000  0.000  0.000  0.000  0.093
  3  0.074  0.005  0.000  0.014  0.000  0.000  0.000  0.000  0.000  0.093
  4  0.091  0.005  0.000  0.015  0.000  0.000  0.000  0.000  0.000  0.111
tot  0.329  0.020  0.000  0.059  0.000  0.000  0.000  0.000  0.000  0.408
 
band  14 # energy   17.45657606 # occ.  0.00000000
 
ion      s     py     pz     px    dxy    dyz    dz2    dxz    dx2    tot
  1  0.000  0.000  0.088  0.000  0.000  0.000  0.000  0.000  0.000  0.088
  2  0.000  0.000  0.070  0.000  0.000  0.000  0.000  0.000  0.000  0.070
  3  0.000  0.000  0.070  0.000  0.000  0.000  0.000  0.000  0.000  0.070
  4  0.000  0.000  0.088  0.000  0.000  0.000  0.000  0.000  0.000  0.088
tot  0.000  0.000  0.316  0.000  0.000  0.000  0.000  0.000  0.000  0.316
 

 k-point    4 :    0.50000000 0.00000000 0.00000000     weight = 0.01388889

band   1 # energy   -9.62733739 # occ.  1.00000000
 
ion      s     py     pz     px    dxy    dyz    dz2    dxz    dx2    tot
  1  0.139  0.009  0.000  0.028  0.000  0.000  0.000  0.000  0.000  0.176
  2  0.160  0.006  0.000  0.019  0.000  0.000  0.000  0.000  0.000  0.185
  3  0.160  0.006  0.000  0.019  0.000  0.000  0.000  0.000  0.000  0.185
  4  0.139  0.009  0.000  0.028  0.000  0.000  0.000  0.000  0.000  0.176
tot  0.597  0.032  0.000  0.095  0.000  0.000  0.000  0.000  0.000  0.724
 
band   2 # energy   -9.52331412 # occ.  1.00000000
 
ion      s     py     pz     px    dxy    dyz    dz2    dxz    dx2    tot
  1  0.173  0.005  0.000  0.016  0.000  0.000  0.000  0.000  0.000  0.194
  2  0.128  0.011  0.000  0.033  0.000  0.000  0.000  0.000  0.000  0.172
  3  0.128  0.011  0.000  0.033  0.000  0.000  0.000  0.000  0.000  0.172
  4  0.173  0.005  0.000  0.016  0.000  0.000  0.000  0.000  0.000  0.194
tot  0.601  0.033  0.000  0.098  0.000  0.000  0.000  0.000  0.000  0.732
 
band   3 # energy   -8.56275334 # occ.  1.00000000
 
ion      s     py     pz     px    dxy    dyz    dz2    dxz    dx2    tot
  1  0.046  0.028  0.000  0.083  0.000  0.000  0.000  0.000  0.000  0.157
  2  0.094  0.021  0.000  0.063  0.000  0.000  0.000  0.000  0.000  0.178
  3  0.094  0.021  0.000  0.063  0.000  0.000  0.000  0.000  0.000  0.178
  4  0.046  0.028  0.000  0.083  0.000  0.000  0.000  0.000  0.000  0.157
tot  0.280  0.097  0.000  0.292  0.000  0.000  0.000  0.000  0.000  0.669
 
band   4 # energy   -8.48539936 # occ.  1.00000000
 
ion      s     py     pz     px    dxy    dyz    dz2    dxz    dx2    tot
  1  0.083  0.023  0.000  0.069  0.000  0.000  0.000  0.000  0.000  0.175
  2  0.057  0.026  0.000  0.079  0.000  0.000  0.000  0.000  0.000  0.163
  3  0.057  0.026  0.000  0.079  0.000  0.000  0.000  0.000  0.000  0.163
  4  0.083  0.023  0.000  0.069  0.000  0.000  0.000  0.000  0.000  0.175
tot  0.280  0.099  0.000  0.297  0.000  0.000  0.000  0.000  0.000  0.676
 
band   5 # energy   -1.70859520 # occ.  1.00000000
 
ion      s     py     pz     px    dxy    dyz    dz2    dxz    dx2    tot
  1  0.000  0.148  0.000  0.049  0.000  0.000  0.000  0.000  0.000  0.197
  2  0.000  0.147  0.000  0.049  0.000  0.000  0.000  0.000  0.000  0.196
  3  0.000  0.147  0.000  0.049  0.000  0.000  0.000  0.000  0.000  0.196
  4  0.000  0.148  0.000  0.049  0.000  0.000  0.000  0.000  0.000  0.197
tot  0.000  0.589  0.000  0.196  0.000  0.000  0.000  0.000  0.000  0.786
 
band   6 # energy   -1.65332418 # occ.  1.00000000
 
ion      s     py     pz     px    dxy    dyz    dz2    dxz    dx2    tot
  1  0.000  0.148  0.000  0.049  0.000  0.000  0.000  0.000  0.000  0.198
  2  0.000  0.148  0.000  0.049  0.000  0.000  0.000  0.000  0.000  0.197
  3  0.000  0.148  0.000  0.049  0.000  0.000  0.000  0.000  0.000  0.197
  4  0.000  0.148  0.000  0.049  0.000  0.000  0.000  0.000  0.000  0.198
tot  0.000  0.593  0.000  0.198  0.000  0.000  0.000  0.000  0.000  0.791
 
band   7 # energy    1.92203855 # occ.  1.00000000
 
ion      s     py     pz     px    dxy    dyz    dz2    dxz    dx2    tot
  1  0.000  0.000  0.103  0.000  0.000  0.000  0.000  0.000  0.000  0.103
  2  0.000  0.000  0.138  0.000  0.000  0.000  0.000  0.000  0.000  0.138
  3  0.000  0.000  0.138  0.000  0.000  0.000  0.000  0.000  0.000  0.138
  4  0.000  0.000  0.103  0.000  0.000  0.000  0.000  0.000  0.000  0.103
tot  0.000  0.000  0.483  0.000  0.000  0.000  0.000  0.000  0.000  0.483
 
band   8 # energy    2.56026586 # occ.  1.00000000
 
ion      s     py     pz     px    dxy    dyz    dz2    dxz    dx2    tot
  1  0.000  0.000  0.168  0.000  0.000  0.000  0.000  0.000  0.000  0.168
  2  0.000  0.000  0.091  0.000  0.000  0.000  0.000  0.000  0.000  0.091
  3  0.000  0.000  0.091  0.000  0.000  0.000  0.000  0.000  0.000  0.091
  4  0.000  0.000  0.168  0.000  0.000  0.000  0.000  0.000  0.000  0.168
tot  0.000  0.000  0.518  0.000  0.000  0.000  0.000  0.000  0.000  0.518
 
band   9 # energy    6.23487534 # occ.  0.00000000
 
ion      s     py     pz     px    dxy    dyz    dz2    dxz    dx2    tot
  1  0.000  0.000  0.051  0.000  0.000  0.000  0.000  0.000  0.000  0.051
  2  0.000  0.000  0.174  0.000  0.000  0.000  0.000  0.000  0.000  0.174
  3  0.000  0.000  0.174  0.000  0.000  0.000  0.000  0.000  0.000  0.174
  4  0.000  0.000  0.051  0.000  0.000  0.000  0.000  0.000  0.000  0.051
tot  0.000  0.000  0.450  0.000  0.000  0.000  0.000  0.000  0.000  0.450
 
band  10 # energy    6.84320222 # occ.  0.00000000
 
ion      s     py     pz     px    dxy    dyz    dz2    dxz    dx2    tot
  1  0.000  0.000  0.169  0.000  0.000  0.000  0.000  0.000  0.000  0.169
  2  0.000  0.000  0.084  0.000  0.000  0.000  0.000  0.000  0.000  0.084
  3  0.000  0.000  0.084  0.000  0.000  0.000  0.000  0.000  0.000  0.084
  4  0.000  0.000  0.169  0.000  0.000  0.000  0.000  0.000  0.000  0.169
tot  0.000  0.000  0.507  0.000  0.000  0.000  0.000  0.000  0.000  0.507
 
band  11 # energy   11.95935112 # occ.  0.00000000
 
ion      s     py     pz     px    dxy    dyz    dz2    dxz    dx2    tot
  1  0.090  0.005  0.000  0.015  0.000  0.000  0.000  0.000  0.000  0.109
  2  0.090  0.005  0.000  0.015  0.000  0.000  0.000  0.000  0.000  0.110
  3  0.090  0.005  0.000  0.015  0.000  0.000  0.000  0.000  0.000  0.110
  4  0.090  0.005  0.000  0.015  0.000  0.000  0.000  0.000  0.000  0.109
tot  0.359  0.020  0.000  0.059  0.000  0.000  0.000  0.000  0.000  0.438
 
band  12 # energy   12.35597637 # occ.  0.00000000
 
ion      s     py     pz     px    dxy    dyz    dz2    dxz    dx2    tot
  1  0.095  0.005  0.000  0.015  0.000  0.000  0.000  0.000  0.000  0.115
  2  0.095  0.005  0.000  0.016  0.000  0.000  0.000  0.000  0.000  0.116
  3  0.095  0.005  0.000  0.016  0.000  0.000  0.000  0.000  0.000  0.116
  4  0.095  0.005  0.000  0.015  0.000  0.000  0.000  0.000  0.000  0.115
tot  0.380  0.020  0.000  0.061  0.000  0.000  0.000  0.000  0.000  0.461
 
band  13 # energy   16.01905018 # occ.  0.00000000
 
ion      s     py     pz     px    dxy    dyz    dz2    dxz    dx2    tot
  1  0.002  0.011  0.000  0.032  0.000  0.000  0.000  0.000  0.000  0.045
  2  0.009  0.001  0.000  0.002  0.000  0.000  0.000  0.000  0.000  0.012
  3  0.009  0.001  0.000  0.002  0.000  0.000  0.000  0.000  0.000  0.012
  4  0.002  0.011  0.000  0.032  0.000  0.000  0.000  0.000  0.000  0.045
tot  0.023  0.022  0.000  0.067  0.000  0.000  0.000  0.000  0.000  0.112
 
band  14 # energy   16.10576218 # occ.  0.00000000
 
ion      s     py     pz     px    dxy    dyz    dz2    dxz    dx2    tot
  1  0.007  0.001  0.000  0.003  0.000  0.000  0.000  0.000  0.000  0.011
  2  0.000  0.011  0.000  0.034  0.000  0.000  0.000  0.000  0.000  0.045
  3  0.000  0.011  0.000  0.034  0.000  0.000  0.000  0.000  0.000  0.045
  4  0.007  0.001  0.000  0.003  0.000  0.000  0.000  0.000  0.000  0.011
tot  0.015  0.025  0.000  0.074  0.000  0.000  0.000  0.000  0.000  0.113
 

 k-point    5 :    0.16666667 0.16666667 0.00000000     weight = 0.02777778

band   1 # energy  -13.01297423 # occ.  1.00000000
 
ion      s     py     pz     px    dxy    dyz    dz2    dxz    dx2    tot
  1  0.145  0.015  0.000  0.005  0.000  0.000  0.000  0.000  0.000  0.165
  2  0.144  0.015  0.000  0.005  0.000  0.000  0.000  0.000  0.000  0.164
  3  0.144  0.015  0.000  0.005  0.000  0.000  0.000  0.000  0.000  0.164
  4  0.145  0.015  0.000  0.005  0.000  0.000  0.000  0.000  0.000  0.165
tot  0.578  0.060  0.000  0.020  0.000  0.000  0.000  0.000  0.000  0.658
 
band   2 # energy  -12.74822445 # occ.  1.00000000
 
ion      s     py     pz     px    dxy    dyz    dz2    dxz    dx2    tot
  1  0.150  0.015  0.000  0.005  0.000  0.000  0.000  0.000  0.000  0.170
  2  0.148  0.016  0.000  0.005  0.000  0.000  0.000  0.000  0.000  0.169
  3  0.148  0.016  0.000  0.005  0.000  0.000  0.000  0.000  0.000  0.169
  4  0.150  0.015  0.000  0.005  0.000  0.000  0.000  0.000  0.000  0.170
tot  0.596  0.062  0.000  0.021  0.000  0.000  0.000  0.000  0.000  0.679
 
band   3 # energy   -3.06026896 # occ.  1.00000000
 
ion      s     py     pz     px    dxy    dyz    dz2    dxz    dx2    tot
  1  0.060  0.087  0.000  0.046  0.000  0.000  0.000  0.000  0.000  0.193
  2  0.062  0.089  0.000  0.043  0.000  0.000  0.000  0.000  0.000  0.195
  3  0.062  0.089  0.000  0.043  0.000  0.000  0.000  0.000  0.000  0.195
  4  0.060  0.087  0.000  0.046  0.000  0.000  0.000  0.000  0.000  0.193
tot  0.243  0.353  0.000  0.179  0.000  0.000  0.000  0.000  0.000  0.775
 
band   4 # energy   -3.00667837 # occ.  1.00000000
 