<?xml version="1.0" encoding="ISO-8859-1"?>
<modeling>
 <generator>
  <i name="program" type="string">vasp </i>
  <i name="version" type="string">5.2.12  </i>
  <i name="subversion" type="string">11Nov11 complex                                                      parallel </i>
  <i name="platform" type="string">LinuxIFC </i>
  <i name="date" type="string">2012 10 17 </i>
  <i name="time" type="string">09:53:37 </i>
 </generator>
 <incar>
  <i type="int" name="ISTART">     0</i>
  <i type="string" name="PREC">accurate</i>
  <i type="int" name="ISPIN">     2</i>
  <i name="ENCUT">    400.00000000</i>
  <i type="int" name="NBANDS">    14</i>
  <i type="logical" name="LREAL"> F  </i>
  <i type="int" name="ISMEAR">     1</i>
  <i name="SIGMA">      0.05000000</i>
  <i type="logical" name="LORBIT"> F  </i>
 </incar>
 <kpoints>
  <generation param="Gamma">
   <v type="int" name="divisions">       6        6        6 </v>
   <v name="usershift">      0.00000000       0.00000000       0.00000000 </v>
   <v name="genvec1">      0.16666667       0.00000000       0.00000000 </v>
   <v name="genvec2">      0.00000000       0.16666667       0.00000000 </v>
   <v name="genvec3">      0.00000000       0.00000000       0.16666667 </v>
   <v name="shift">      0.00000000       0.00000000       0.00000000 </v>
  </generation>
  <varray name="kpointlist" >
   <v>       0.00000000       0.00000000       0.00000000 </v>
   <v>       0.16666667       0.00000000       0.00000000 </v>
   <v>       0.33333333       0.00000000       0.00000000 </v>
   <v>       0.50000000       0.00000000       0.00000000 </v>
   <v>       0.16666667       0.16666667       0.00000000 </v>
   <v>       0.33333333       0.16666667       0.00000000 </v>
   <v>       0.33333333       0.33333333       0.00000000 </v>
   <v>       0.00000000       0.00000000       0.16666667 </v>
   <v>       0.16666667       0.00000000       0.16666667 </v>
   <v>       0.33333333       0.00000000       0.16666667 </v>
   <v>       0.50000000       0.00000000       0.16666667 </v>
   <v>       0.16666667       0.16666667       0.16666667 </v>
   <v>       0.33333333       0.16666667       0.16666667 </v>
   <v>       0.33333333       0.33333333       0.16666667 </v>
   <v>       0.00000000       0.00000000       0.33333333 </v>
   <v>       0.16666667       0.00000000       0.33333333 </v>
   <v>       0.33333333       0.00000000       0.33333333 </v>
   <v>       0.50000000       0.00000000       0.33333333 </v>
   <v>       0.16666667       0.16666667       0.33333333 </v>
   <v>       0.33333333       0.16666667       0.33333333 </v>
   <v>       0.33333333       0.33333333       0.33333333 </v>
   <v>       0.00000000       0.00000000       0.50000000 </v>
   <v>       0.16666667       0.00000000       0.50000000 </v>
   <v>       0.33333333       0.00000000       0.50000000 </v>
   <v>       0.50000000       0.00000000       0.50000000 </v>
   <v>       0.16666667       0.16666667       0.50000000 </v>
   <v>       0.33333333       0.16666667       0.50000000 </v>
   <v>       0.33333333       0.33333333       0.50000000 </v>
  </varray>
  <varray name="weights" >
   <v>       0.00462963 </v>
   <v>       0.02777778 </v>
   <v>       0.02777778 </v>
   <v>       0.01388889 </v>
   <v>       0.02777778 </v>
   <v>       0.05555556 </v>
   <v>       0.00925926 </v>
   <v>       0.00925926 </v>
   <v>       0.05555556 </v>
   <v>       0.05555556 </v>
   <v>       0.02777778 </v>
   <v>       0.05555556 </v>
   <v>       0.11111111 </v>
   <v>       0.01851852 </v>
   <v>       0.00925926 </v>
   <v>       0.05555556 </v>
   <v>       0.05555556 </v>
   <v>       0.02777778 </v>
   <v>       0.05555556 </v>
   <v>       0.11111111 </v>
   <v>       0.01851852 </v>
   <v>       0.00462963 </v>
   <v>       0.02777778 </v>
   <v>       0.02777778 </v>
   <v>       0.01388889 </v>
   <v>       0.02777778 </v>
   <v>       0.05555556 </v>
   <v>       0.00925926 </v>
  </varray>
 </kpoints>
 <parameters>
  <separator name="general" >
   <i type="string" name="SYSTEM">unknown system</i>
   <i type="logical" name="LCOMPAT"> F  </i>
  </separator>
  <separator name="electronic" >
   <i type="string" name="PREC">accura</i>
   <i name="ENMAX">    400.00000000</i>
   <i name="ENAUG">    644.87300000</i>
   <i name="EDIFF">      0.00010000</i>
   <i type="int" name="IALGO">    38</i>
   <i type="int" name="IWAVPR">    10</i>
   <i type="int" name="NBANDS">    14</i>
   <i name="NELECT">     16.00000000</i>
   <i type="int" name="TURBO">     0</i>
   <i type="int" name="IRESTART">     0</i>
   <i type="int" name="NREBOOT">     0</i>
   <i type="int" name="NMIN">     0</i>
   <i name="EREF">      0.00000000</i>
   <separator name="electronic smearing" >
    <i type="int" name="ISMEAR">     1</i>
    <i name="SIGMA">      0.05000000</i>
    <i name="KSPACING">      0.50000000</i>
    <i type="logical" name="KGAMMA"> T  </i>
   </separator>
   <separator name="electronic projectors" >
    <i type="logical" name="LREAL"> F  </i>
    <v name="ROPT">      0.00000000</v>
    <i type="int" name="LMAXPAW">  -100</i>
    <i type="int" name="LMAXMIX">     2</i>
    <i type="logical" name="NLSPLINE"> F  </i>
   </separator>
   <separator name="electronic startup" >
    <i type="int" name="ISTART">     0</i>
    <i type="int" name="ICHARG">     2</i>
    <i type="int" name="INIWAV">     1</i>
   </separator>
   <separator name="electronic spin" >
    <i type="int" name="ISPIN">     2</i>
    <i type="logical" name="LNONCOLLINEAR"> F  </i>
    <v name="MAGMOM">      1.00000000      1.00000000      1.00000000      1.00000000</v>
    <i name="NUPDOWN">     -1.00000000</i>
    <i type="logical" name="LSORBIT"> F  </i>
    <v name="SAXIS">      0.00000000      0.00000000      1.00000000</v>
    <i type="logical" name="LSPIRAL"> F  </i>
    <v name="QSPIRAL">      0.00000000      0.00000000      0.00000000</v>
    <i type="logical" name="LZEROZ"> F  </i>
   </separator>
   <separator name="electronic exchange-correlation" >
    <i type="logical" name="LASPH"> F  </i>
    <i type="logical" name="LMETAGGA"> F  </i>
   </separator>
   <separator name="electronic convergence" >
    <i type="int" name="NELM">    60</i>
    <i type="int" name="NELMDL">    -5</i>
    <i type="int" name="NELMIN">     2</i>
    <i name="ENINI">    400.00000000</i>
    <separator name="electronic convergence detail" >
     <i type="logical" name="LDIAG"> T  </i>
     <i type="logical" name="LSUBROT"> T  </i>
     <i name="WEIMIN">      0.00000000</i>
     <i name="EBREAK">      0.00000179</i>
     <i name="DEPER">      0.30000000</i>
     <i type="int" name="NRMM">     4</i>
     <i name="TIME">      0.40000000</i>
    </separator>
   </separator>
   <separator name="electronic mixer" >
    <i name="AMIX">      0.40000000</i>
    <i name="BMIX">      1.00000000</i>
    <i name="AMIN">      0.10000000</i>
    <i name="AMIX_MAG">      1.60000000</i>
    <i name="BMIX_MAG">      1.00000000</i>
    <separator name="electronic mixer details" >
     <i type="int" name="IMIX">     4</i>
     <i type="int" name="MAXMIX">   -45</i>
     <i name="WC">    100.00000000</i>
     <i type="int" name="INIMIX">     1</i>
     <i type="int" name="MIXPRE">     1</i>
     <i type="int" name="MREMOVE">     5</i>
    </separator>
   </separator>
   <separator name="electronic dipolcorrection" >
    <i type="logical" name="LDIPOL"> F  </i>
    <i type="logical" name="LMONO"> F  </i>
    <i type="int" name="IDIPOL">     0</i>
    <i name="EPSILON">      1.00000000</i>
    <v name="DIPOL">   -100.00000000   -100.00000000   -100.00000000</v>
    <i name="EFIELD">      0.00000000</i>
   </separator>
  </separator>
  <separator name="grids" >
   <i type="int" name="NGX">    16</i>
   <i type="int" name="NGY">    16</i>
   <i type="int" name="NGZ">    48</i>
   <i type="int" name="NGXF">    32</i>
   <i type="int" name="NGYF">    32</i>
   <i type="int" name="NGZF">    96</i>
   <i type="logical" name="ADDGRID"> F  </i>
  </separator>
  <separator name="ionic" >
   <i type="int" name="NSW">     0</i>
   <i type="int" name="IBRION">    -1</i>
   <i type="int" name="ISIF">     2</i>
   <i name="PSTRESS">      0.00000000</i>
   <i name="EDIFFG">      0.00100000</i>
   <i type="int" name="NFREE">     0</i>
   <i name="POTIM">      0.50000000</i>
   <i name="SMASS">     -3.00000000</i>
   <i name="SCALEE">      1.00000000</i>
  </separator>
  <separator name="ionic md" >
   <i name="TEBEG">      0.00010000</i>
   <i name="TEEND">      0.00010000</i>
   <i type="int" name="NBLOCK">     1</i>
   <i type="int" name="KBLOCK">     1</i>
   <i type="int" name="NPACO">   256</i>
   <i name="APACO">     16.00000000</i>
  </separator>
  <separator name="symmetry" >
   <i type="int" name="ISYM">     2</i>
   <i name="SYMPREC">      0.00001000</i>
  </separator>
  <separator name="dos" >
   <i type="logical" name="LORBIT"> F  </i>
   <v name="RWIGS">     -1.00000000</v>
   <i type="int" name="NEDOS">   301</i>
   <i name="EMIN">     10.00000000</i>
   <i name="EMAX">    -10.00000000</i>
   <i name="EFERMI">      0.00000000</i>
  </separator>
  <separator name="writing" >
   <i type="int" name="NWRITE">     2</i>
   <i type="logical" name="LWAVE"> T  </i>
   <i type="logical" name="LCHARG"> T  </i>
   <i type="logical" name="LPARD"> F  </i>
   <i type="logical" name="LVTOT"> F  </i>
   <i type="logical" name="LVHAR"> F  </i>
   <i type="logical" name="LELF"> F  </i>
   <i type="logical" name="LOPTICS"> F  </i>
   <v name="STM">      0.00000000      0.00000000      0.00000000      0.00000000      0.00000000      0.00000000      0.00000000</v>
  </separator>
  <separator name="performance" >
   <i type="int" name="NPAR">     1</i>
   <i type="int" name="NSIM">     4</i>
   <i type="int" name="NBLK">    -1</i>
   <i type="logical" name="LPLANE"> T  </i>
   <i type="logical" name="LSCALAPACK"> F  </i>
   <i type="logical" name="LSCAAWARE"> F  </i>
   <i type="logical" name="LSCALU"> F  </i>
   <i type="logical" name="LASYNC"> F  </i>
   <i type="logical" name="LORBITALREAL"> F  </i>
  </separator>
  <separator name="miscellaneous" >
   <i type="int" name="IDIOT">     3</i>
   <i type="logical" name="LMUSIC"> F  </i>
   <v name="POMASS">     12.01100000</v>
   <v name="DARWINR">      0.00000000</v>
   <v name="DARWINV">      1.00000000</v>
   <i type="logical" name="LCORR"> T  </i>
  </separator>
  <i type="logical" name="GGA_COMPAT"> T  </i>
  <i type="logical" name="LBERRY"> F  </i>
  <i type="int" name="ICORELEVEL">     0</i>
  <i type="logical" name="LDAU"> F  </i>
  <i type="int" name="I_CONSTRAINED_M">     0</i>
  <separator name="electronic exchange-correlation" >
   <i type="string" name="GGA">--</i>
   <i type="int" name="VOSKOWN">     0</i>
   <i type="logical" name="LHFCALC"> F  </i>
   <i type="string" name="PRECFOCK"></i>
   <i type="logical" name="LHFONE"> F  </i>
   <i type="logical" name="LRHFCALC"> F  </i>
   <i type="logical" name="LTHOMAS"> F  </i>
   <i type="logical" name="LMODELHF"> F  </i>
   <i name="ENCUT4O">     -1.00000000</i>
   <i type="int" name="EXXOEP">     0</i>
   <i type="int" name="FOURORBIT">     0</i>
   <i name="AEXX">      0.00000000</i>
   <i name="HFALPHA">      0.00000000</i>
   <i name="ALDAX">      1.00000000</i>
   <i name="AGGAX">      1.00000000</i>
   <i name="ALDAC">      1.00000000</i>
   <i name="AGGAC">      1.00000000</i>
   <i type="int" name="NKREDX">     1</i>
   <i type="int" name="NKREDY">     1</i>
   <i type="int" name="NKREDZ">     1</i>
   <i type="logical" name="SHIFTRED"> F  </i>
   <i type="logical" name="ODDONLY"> F  </i>
   <i type="logical" name="EVENONLY"> F  </i>
   <i type="int" name="LMAXFOCK">     0</i>
   <i type="int" name="NMAXFOCKAE">     0</i>
   <i type="logical" name="LFOCKAEDFT"> F  </i>
   <i name="HFSCREEN">      0.00000000</i>
   <i name="HFSCREENC">      0.00000000</i>
  </separator>
  <separator name="vdW DFT" >
   <i type="logical" name="LUSE_VDW"> F  </i>
   <i name="Zab_VDW">     -0.84910000</i>
   <i name="PARAM1">      0.12340000</i>
   <i name="PARAM2">      1.00000000</i>
   <i name="PARAM3">      0.00000000</i>
  </separator>
  <separator name="model GW" >
   <i type="int" name="MODEL_GW">     0</i>
   <i name="MODEL_EPS0">      5.27839982</i>
   <i name="MODEL_ALPHA">      1.00000000</i>
  </separator>
  <separator name="linear response parameters" >
   <i type="logical" name="LEPSILON"> F  </i>
   <i type="logical" name="LRPA"> F  </i>
   <i type="logical" name="LNABLA"> F  </i>
   <i type="logical" name="LVEL"> F  </i>
   <i type="int" name="KINTER">     0</i>
   <i name="CSHIFT">      0.10000000</i>
   <i name="OMEGAMAX">     -1.00000000</i>
  </separator>
  <separator name="orbital magnetization" >
   <i type="logical" name="NUCIND"> F  </i>
   <v name="MAGPOS">      0.00000000      0.00000000      0.00000000</v>
   <i type="logical" name="LNICSALL"> T  </i>
   <i type="logical" name="ORBITALMAG"> F  </i>
   <i type="logical" name="LMAGBLOCH"> F  </i>
   <i type="logical" name="LCHIMAG"> F  </i>
   <i type="logical" name="LGAUGE"> T  </i>
   <i type="int" name="MAGATOM">     0</i>
   <v name="MAGDIPOL">      0.00000000      0.00000000      0.00000000</v>
   <v name="AVECCONST">      0.00000000      0.00000000      0.00000000</v>
  </separator>
  <separator name="response functions" >
   <i type="logical" name="LADDER"> F  </i>
   <i type="logical" name="LHARTREE"> T  </i>
   <i type="int" name="IBSE">     0</i>
   <i type="logical" name="LTCTE"> F  </i>
   <i type="logical" name="LTETE"> F  </i>
   <i type="logical" name="LFXCEPS"> F  </i>
   <i type="logical" name="L2ORDER"> F  </i>
   <i type="logical" name="LUSEW"> F  </i>
   <i name="ENCUTGW">     -2.00000000</i>
   <i name="ENCUTGWSOFT">     -2.00000000</i>
   <i name="ENCUTLF">     -1.00000000</i>
   <i type="int" name="LMAXMP2">    -1</i>
   <i name="SCISSOR">      0.00000000</i>
   <i type="int" name="NOMEGA">     0</i>
   <i type="int" name="NOMEGAR">     0</i>
   <i type="int" name="NBANDSGW">    -1</i>
   <i type="int" name="NBANDSO">    -1</i>
   <i type="int" name="NBANDSV">    -1</i>
   <i name="OPTEMAX">      0.00000000</i>
   <i type="int" name="NELM">     1</i>
   <i type="int" name="DIM">     3</i>
   <i type="int" name="ANTIRES">     0</i>
   <i name="OMEGAMAX">    -30.00000000</i>
   <i name="OMEGATL">   -200.00000000</i>
   <i type="int" name="OMEGAGRID">     0</i>
   <i name="CSHIFT">     -0.10000000</i>
   <i type="logical" name="SELFENERGY"> F  </i>
   <i type="logical" name="LSPECTRAL"> F  </i>
   <i type="logical" name="ODDONLYGW"> F  </i>
   <i type="logical" name="EVENONLYGW"> F  </i>
   <i type="int" name="NKREDLFX">     1</i>
   <i type="int" name="NKREDLFY">     1</i>
   <i type="int" name="NKREDLFZ">     1</i>
   <i type="int" name="MAXMEM">  1800</i>
   <i type="int" name="TELESCOPE">     0</i>
  </separator>
 </parameters>
 <atominfo>
  <atoms>       4 </atoms>
  <types>       1 </types>
  <array name="atoms" >
   <dimension dim="1">ion</dimension>
   <field type="string">element</field>
   <field type="int">atomtype</field>
   <set>
    <rc><c>C </c><c>   1</c></rc>
    <rc><c>C </c><c>   1</c></rc>
    <rc><c>C </c><c>   1</c></rc>
    <rc><c>C </c><c>   1</c></rc>
   </set>
  </array>
  <array name="atomtypes" >
   <dimension dim="1">type</dimension>
   <field type="int">atomspertype</field>
   <field type="string">element</field>
   <field>mass</field>
   <field>valence</field>
   <field type="string">pseudopotential</field>
   <set>
    <rc><c>   4</c><c>C </c><c>     12.01100000</c><c>      4.00000000</c><c> PAW_PBE C 08Apr2002                    </c></rc>
   </set>
  </array>
 </atominfo>
 <structure name="initialpos" >
  <crystal>
   <varray name="basis" >
    <v>       2.46120000       0.00000000       0.00000000 </v>
    <v>      -1.23060000       2.13146172       0.00000000 </v>
    <v>       0.00000000       0.00000000       6.70790000 </v>
   </varray>
   <i name="volume">     35.18933212 </i>
   <varray name="rec_basis" >
    <v>       0.40630587       0.23458080       0.00000000 </v>
    <v>       0.00000000       0.46916160       0.00000000 </v>
    <v>       0.00000000       0.00000000       0.14907795 </v>
   </varray>
  </crystal>
  <varray name="positions" >
   <v>       0.00000000       0.00000000       0.00000000 </v>
   <v>       0.33333333       0.66666667       0.00000000 </v>
   <v>       0.33333333       0.66666667       0.50000000 </v>
   <v>       0.66666667       0.33333333       0.50000000 </v>
  </varray>
 </structure>
 <calculation>
  <scstep>
   <time name="dav">    3.97    3.97</time>
   <time name="total">    4.36    4.36</time>
   <energy>
    <i name="alphaZ">     37.04766603 </i>
    <i name="ewald">   -460.60042082 </i>
    <i name="hartreedc">   -148.78490797 </i>
    <i name="XCdc">     56.10990889 </i>
    <i name="pawpsdc">    150.95130483 </i>
    <i name="pawaedc">   -155.51722924 </i>
    <i name="eentropy">     -0.00052677 </i>
    <i name="bandstr">    -36.81045398 </i>
    <i name="atom">    588.50889549 </i>
    <i name="e_fr_energy">     30.90423646 </i>
    <i name="e_wo_entrp">     30.90476323 </i>
    <i name="e_0_energy">     30.90441205 </i>
   </energy>
  </scstep>
  <scstep>
   <time name="dav">    5.07    5.07</time>
   <time name="total">    5.07    5.08</time>
   <energy>
    <i name="e_fr_energy">    -34.83353487 </i>
    <i name="e_wo_entrp">    -34.83357412 </i>
    <i name="e_0_energy">    -34.83354796 </i>
   </energy>
  </scstep>
  <scstep>
   <time name="dav">    4.85    4.85</time>
   <time name="total">    4.85    4.87</time>
   <energy>
    <i name="e_fr_energy">    -37.60938441 </i>
    <i name="e_wo_entrp">    -37.60940309 </i>
    <i name="e_0_energy">    -37.60939064 </i>
   </energy>
  </scstep>
  <scstep>
   <time name="dav">    4.69    4.69</time>
   <time name="total">    4.69    5.00</time>
   <energy>
    <i name="e_fr_energy">    -37.63763893 </i>
    <i name="e_wo_entrp">    -37.63765761 </i>
    <i name="e_0_energy">    -37.63764516 </i>
   </energy>
  </scstep>
  <scstep>
   <time name="dav">    4.86    4.87</time>
   <time name="total">    5.24    5.27</time>
   <energy>
    <i name="e_fr_energy">    -37.63818231 </i>
    <i name="e_wo_entrp">    -37.63820099 </i>
    <i name="e_0_energy">    -37.63818854 </i>
   </energy>
  </scstep>
  <scstep>
   <time name="dav">    4.29    4.29</time>
   <time name="total">    5.04    5.05</time>
   <energy>
    <i name="e_fr_energy">    -36.93879276 </i>
    <i name="e_wo_entrp">    -36.93890504 </i>
    <i name="e_0_energy">    -36.93883019 </i>
   </energy>
  </scstep>
  <scstep>
   <time name="dav">    4.40    4.40</time>
   <time name="total">    5.15    5.18</time>
   <energy>
    <i name="e_fr_energy">    -36.82073065 </i>
    <i name="e_wo_entrp">    -36.82104789 </i>
    <i name="e_0_energy">    -36.82083640 </i>
   </energy>
  </scstep>
  <scstep>
   <time name="dav">    4.41    4.41</time>
   <time name="total">    5.15    5.16</time>
   <energy>
    <i name="e_fr_energy">    -36.77031044 </i>
    <i name="e_wo_entrp">    -36.77041441 </i>
    <i name="e_0_energy">    -36.77034509 </i>
   </energy>
  </scstep>
  <scstep>
   <time name="dav">    4.43    4.43</time>
   <time name="total">    5.17    5.19</time>
   <energy>
    <i name="e_fr_energy">    -36.78173334 </i>
    <i name="e_wo_entrp">    -36.78197207 </i>
    <i name="e_0_energy">    -36.78181291 </i>
   </energy>
  </scstep>
  <scstep>
   <time name="dav">    4.64    4.64</time>
   <time name="total">    5.38    5.39</time>
   <energy>
    <i name="e_fr_energy">    -36.78269364 </i>
    <i name="e_wo_entrp">    -36.78275855 </i>
    <i name="e_0_energy">    -36.78271528 </i>
   </energy>
  </scstep>
  <scstep>
   <time name="dav">    4.37    4.37</time>
   <time name="total">    5.12    5.13</time>
   <energy>
    <i name="e_fr_energy">    -36.78301678 </i>
    <i name="e_wo_entrp">    -36.78313797 </i>
    <i name="e_0_energy">    -36.78305718 </i>
   </energy>
  </scstep>
  <scstep>
   <time name="dav">    4.01    4.02</time>
   <time name="total">    4.76    4.77</time>
   <energy>
    <i name="e_fr_energy">    -36.78312390 </i>
    <i name="e_wo_entrp">    -36.78325344 </i>
    <i name="e_0_energy">    -36.78316708 </i>
   </energy>
  </scstep>
  <scstep>
   <time name="dav">    3.12    3.12</time>
   <time name="total">    3.49    3.51</time>
   <energy>
    <i name="alphaZ">     37.04766603 </i>
    <i name="ewald">   -460.60042082 </i>
    <i name="hartreedc">   -183.69535289 </i>
    <i name="XCdc">     57.70741652 </i>
    <i name="pawpsdc">    280.86509112 </i>
    <i name="pawaedc">   -286.01341312 </i>
    <i name="eentropy">      0.00012762 </i>
    <i name="bandstr">    -70.60314013 </i>
    <i name="atom">    588.50889549 </i>
    <i name="e_fr_energy">    -36.78313018 </i>
    <i name="e_wo_entrp">    -36.78325780 </i>
    <i name="e_0_energy">    -36.78317272 </i>
   </energy>
  </scstep>
  <parameters_embedded>
   <separator name="dft+d2" >
    <i type="logical" name="LVDW"> F  </i>
   </separator>
  </parameters_embedded>
  <structure>
   <crystal>
    <varray name="basis" >
     <v>       2.46120000       0.00000000       0.00000000 </v>
     <v>      -1.23060000       2.13146172       0.00000000 </v>
     <v>       0.00000000       0.00000000       6.70790000 </v>
    </varray>
    <i name="volume">     35.18933212 </i>
    <varray name="rec_basis" >
     <v>       0.40630587       0.23458080       0.00000000 </v>
     <v>       0.00000000       0.46916160       0.00000000 </v>
     <v>       0.00000000       0.00000000       0.14907795 </v>
    </varray>
   </crystal>
   <varray name="positions" >
    <v>       0.00000000       0.00000000       0.00000000 </v>
    <v>       0.33333333       0.66666667       0.00000000 </v>
    <v>       0.33333333       0.66666667       0.50000000 </v>
    <v>       0.66666667       0.33333333       0.50000000 </v>
   </varray>
  </structure>
  <varray name="forces" >
   <v>       0.00000000       0.00000000       0.00000000 </v>
   <v>       0.00000000       0.00000000       0.00000000 </v>
   <v>       0.00000000       0.00000000       0.00000000 </v>
   <v>       0.00000000       0.00000000       0.00000000 </v>
  </varray>
  <varray name="stress" >
   <v>      17.64102288       0.00000000       0.00000000 </v>
   <v>       0.00000000      17.64102288       0.00000000 </v>
   <v>       0.00000000       0.00000000       4.45163422 </v>
  </varray>
  <energy>
   <i name="e_fr_energy">    -36.78313018 </i>
   <i name="e_wo_entrp">    -36.78317272 </i>
   <i name="e_0_energy">      0.00012762 </i>
  </energy>
  <time name="totalsc">   65.62   66.19</time>
  <eigenvalues>
   <array>
    <dimension dim="1">band</dimension>
    <dimension dim="2">kpoint</dimension>
    <dimension dim="3">spin</dimension>
    <field>eigene</field>
    <field>occ</field>
    <set>
     <set comment="spin 1">
      <set comment="kpoint 1">
       <r>  -14.9858    1.0000 </r>
       <r>  -14.6855    1.0000 </r>
       <r>   -3.8614    1.0000 </r>
       <r>   -1.8985    1.0000 </r>
       <r>    1.7094    1.0000 </r>
       <r>    1.7094    1.0000 </r>
       <r>    1.7276    1.0000 </r>
       <r>    1.7276    1.0000 </r>
       <r>    8.9735    0.0000 </r>
       <r>   13.1084    0.0000 </r>
       <r>   13.1084    0.0000 </r>
       <r>   13.1581    0.0000 </r>
       <r>   13.1581    0.0000 </r>
       <r>   15.6906    0.0000 </r>
      </set>
      <set comment="kpoint 2">
       <r>  -14.3226    1.0000 </r>
       <r>  -14.0343    1.0000 </r>
       <r>   -3.0583    1.0000 </r>
       <r>   -1.1504    1.0000 </r>
       <r>   -0.6164    1.0000 </r>
       <r>   -0.5515    1.0000 </r>
       <r>    0.5613    1.0000 </r>
       <r>    0.6004    1.0000 </r>
       <r>    9.7780    0.0000 </r>
       <r>   13.0365    0.0000 </r>
       <r>   13.2247    0.0000 </r>
       <r>   13.9168    0.0000 </r>
       <r>   14.2867    0.0000 </r>
       <r>   15.6865    0.0000 </r>
      </set>
      <set comment="kpoint 3">
       <r>  -12.3668    1.0000 </r>
       <r>  -12.1136    1.0000 </r>
       <r>   -4.9758    1.0000 </r>
       <r>   -4.8414    1.0000 </r>
       <r>   -1.0672    1.0000 </r>
       <r>   -1.0171    1.0000 </r>
       <r>   -0.7421    1.0000 </r>
       <r>    0.9385    1.0000 </r>
       <r>    9.2217    0.0000 </r>
       <r>   10.1018    0.0000 </r>
       <r>   12.0777    0.0000 </r>
       <r>   12.3642    0.0000 </r>
       <r>   12.7607    0.0000 </r>
       <r>   17.4566    0.0000 </r>
      </set>
      <set comment="kpoint 4">
       <r>   -9.6273    1.0000 </r>
       <r>   -9.5233    1.0000 </r>
       <r>   -8.5628    1.0000 </r>
       <r>   -8.4854    1.0000 </r>
       <r>   -1.7086    1.0000 </r>
       <r>   -1.6533    1.0000 </r>
       <r>    1.9220    1.0000 </r>
       <r>    2.5603    1.0000 </r>
       <r>    6.2349    0.0000 </r>
       <r>    6.8432    0.0000 </r>
       <r>   11.9594    0.0000 </r>
       <r>   12.3560    0.0000 </r>
       <r>   16.0191    0.0000 </r>
       <r>   16.1058    0.0000 </r>
      </set>
      <set comment="kpoint 5">
       <r>  -13.0130    1.0000 </r>
       <r>  -12.7482    1.0000 </r>
       <r>   -3.0603    1.0000 </r>
       <r>   -3.0067    1.0000 </r>
       <r>   -1.6996    1.0000 </r>
       <r>   -1.6600    1.0000 </r>
       <r>   -1.4896    1.0000 </r>
       <r>    0.2885    1.0000 </r>
       <r>   10.8588    0.0000 </r>
       <r>   11.3330    0.0000 </r>
       <r>   11.3950    0.0000 </r>
       <r>   14.6874    0.0000 </r>
       <r>   14.9299    0.0000 </r>
       <r>   16.2754    0.0000 </r>
      </set>
      <set comment="kpoint 6">
       <r>  -10.4935    1.0000 </r>
       <r>  -10.2771    1.0000 </r>
       <r>   -6.7614    1.0000 </r>
       <r>   -6.6147    1.0000 </r>
       <r>   -3.3660    1.0000 </r>
       <r>   -3.2755    1.0000 </r>
       <r>    1.3770    1.0000 </r>
       <r>    2.6959    1.0000 </r>
       <r>    6.8878    0.0000 </r>
       <r>    7.6191    0.0000 </r>
       <r>   14.4352    0.0000 </r>
       <r>   14.6076    0.0000 </r>
       <r>   15.1225    0.0000 </r>
       <r>   17.1517    0.0000 </r>
      </set>
      <set comment="kpoint 7">
       <r>   -7.9490    1.0000 </r>
       <r>   -7.9094    1.0000 </r>
       <r>   -7.9094    1.0000 </r>
       <r>   -7.7597    1.0000 </r>
       <r>   -5.8447    1.0000 </r>
       <r>   -5.8447    1.0000 </r>
       <r>    4.1398    1.0000 </r>
       <r>    4.5625    1.0001 </r>
       <r>    4.5625    1.0001 </r>
       <r>    5.4926    0.0000 </r>
       <r>   15.8424    0.0000 </r>
       <r>   15.8424    0.0000 </r>
       <r>   16.9994    0.0000 </r>
       <r>   17.2458    0.0000 </r>
      </set>
      <set comment="kpoint 8">
       <r>  -14.9668    1.0000 </r>
       <r>  -14.7069    1.0000 </r>
       <r>   -3.7508    1.0000 </r>
       <r>   -2.0590    1.0000 </r>
       <r>    1.7113    1.0000 </r>
       <r>    1.7113    1.0000 </r>
       <r>    1.7288    1.0000 </r>
       <r>    1.7288    1.0000 </r>
       <r>    9.3128    0.0000 </r>
       <r>   13.1036    0.0000 </r>
       <r>   13.1036    0.0000 </r>
       <r>   13.1572    0.0000 </r>
       <r>   13.1572    0.0000 </r>
       <r>   14.5976    0.0000 </r>
      </set>
      <set comment="kpoint 9">
       <r>  -14.3044    1.0000 </r>
       <r>  -14.0549    1.0000 </r>
       <r>   -2.9504    1.0000 </r>
       <r>   -1.3060    1.0000 </r>
       <r>   -0.6119    1.0000 </r>
       <r>   -0.5559    1.0000 </r>
       <r>    0.5637    1.0000 </r>
       <r>    0.5974    1.0000 </r>
       <r>   10.1051    0.0000 </r>
       <r>   13.0389    0.0000 </r>
       <r>   13.2107    0.0000 </r>
       <r>   13.9497    0.0000 </r>
       <r>   14.2567    0.0000 </r>
       <r>   15.2709    0.0000 </r>
      </set>
      <set comment="kpoint 10">
       <r>  -12.3507    1.0000 </r>
       <r>  -12.1315    1.0000 </r>
       <r>   -4.9662    1.0000 </r>
       <r>   -4.8506    1.0000 </r>
       <r>   -1.0644    1.0000 </r>
       <r>   -1.0204    1.0000 </r>
       <r>   -0.6456    1.0000 </r>
       <r>    0.8046    1.0000 </r>
       <r>    9.2623    0.0000 </r>
       <r>   10.0328    0.0000 </r>
       <r>   12.2538    0.0000 </r>
       <r>   12.4248    0.0000 </r>
       <r>   12.8371    0.0000 </r>
       <r>   16.9892    0.0000 </r>
      </set>
      <set comment="kpoint 11">
       <r>   -9.6191    1.0000 </r>
       <r>   -9.5288    1.0000 </r>
       <r>   -8.5601    1.0000 </r>
       <r>   -8.4929    1.0000 </r>
       <r>   -1.7048    1.0000 </r>
       <r>   -1.6569    1.0000 </r>
       <r>    1.9793    1.0000 </r>
       <r>    2.5397    1.0000 </r>
       <r>    6.2207    0.0000 </r>
       <r>    6.7566    0.0000 </r>
       <r>   11.9844    0.0000 </r>
       <r>   12.3285    0.0000 </r>
       <r>   16.2782    0.0000 </r>
       <r>   16.2899    0.0000 </r>
      </set>
      <set comment="kpoint 12">
       <r>  -12.9962    1.0000 </r>
       <r>  -12.7670    1.0000 </r>
       <r>   -3.0563    1.0000 </r>
       <r>   -3.0099    1.0000 </r>
       <r>   -1.6973    1.0000 </r>
       <r>   -1.6634    1.0000 </r>
       <r>   -1.3886    1.0000 </r>
       <r>    0.1448    1.0000 </r>
       <r>   10.8887    0.0000 </r>
       <r>   11.2919    0.0000 </r>
       <r>   11.7036    0.0000 </r>
       <r>   14.6881    0.0000 </r>
       <r>   14.9283    0.0000 </r>
       <r>   16.2388    0.0000 </r>
      </set>
      <set comment="kpoint 13">
       <r>  -10.4796    1.0000 </r>
       <r>  -10.2923    1.0000 </r>
       <r>   -6.7518    1.0000 </r>
       <r>   -6.6249    1.0000 </r>
       <r>   -3.3601    1.0000 </r>
       <r>   -3.2815    1.0000 </r>
       <r>    1.4580    1.0000 </r>
       <r>    2.6015    1.0000 </r>
       <r>    6.9228    0.0000 </r>
       <r>    7.5616    0.0000 </r>
       <r>   14.5395    0.0000 </r>
       <r>   14.6703    0.0000 </r>
       <r>   15.1294    0.0000 </r>
       <r>   16.8621    0.0000 </r>
      </set>
      <set comment="kpoint 14">
       <r>   -7.9367    1.0000 </r>
       <r>   -7.9086    1.0000 </r>
       <r>   -7.9086    1.0000 </r>
       <r>   -7.7726    1.0000 </r>
       <r>   -5.8455    1.0000 </r>
       <r>   -5.8455    1.0000 </r>
       <r>    4.2205    1.0000 </r>
       <r>    4.5715    1.0003 </r>
       <r>    4.5715    1.0003 </r>
       <r>    5.3898    0.0000 </r>
       <r>   15.4864    0.0000 </r>
       <r>   15.4864    0.0000 </r>
       <r>   17.2041    0.0000 </r>
       <r>   17.7691    0.0000 </r>
      </set>
      <set comment="kpoint 15">
       <r>  -14.9144    1.0000 </r>
       <r>  -14.7644    1.0000 </r>
       <r>   -3.4366    1.0000 </r>
       <r>   -2.4685    1.0000 </r>
       <r>    1.7146    1.0000 </r>
       <r>    1.7146    1.0000 </r>
       <r>    1.7247    1.0000 </r>
       <r>    1.7247    1.0000 </r>
       <r>   10.2522    0.0000 </r>
       <r>   13.1130    0.0000 </r>
       <r>   13.1130    0.0000 </r>
       <r>   13.1475    0.0000 </r>
       <r>   13.1475    0.0000 </r>
       <r>   13.1691    0.0000 </r>
      </set>
      <set comment="kpoint 16">
       <r>  -14.2539    1.0000 </r>
       <r>  -14.1099    1.0000 </r>
       <r>   -2.6433    1.0000 </r>
       <r>   -1.7036    1.0000 </r>
       <r>   -0.5998    1.0000 </r>
       <r>   -0.5674    1.0000 </r>
       <r>    0.5711    1.0000 </r>
       <r>    0.5909    1.0000 </r>
       <r>   11.0071    0.0000 </r>
       <r>   13.0223    0.0000 </r>
       <r>   13.1795    0.0000 </r>
       <r>   13.8646    0.0000 </r>
       <r>   14.0415    0.0000 </r>
       <r>   14.2844    0.0000 </r>
      </set>
      <set comment="kpoint 17">
       <r>  -12.3061    1.0000 </r>
       <r>  -12.1796    1.0000 </r>
       <r>   -4.9424    1.0000 </r>
       <r>   -4.8758    1.0000 </r>
       <r>   -1.0550    1.0000 </r>
       <r>   -1.0282    1.0000 </r>
       <r>   -0.3702    1.0000 </r>
       <r>    0.4618    1.0000 </r>
       <r>    9.3935    0.0000 </r>
       <r>    9.8450    0.0000 </r>
       <r>   12.3850    0.0000 </r>
       <r>   12.5138    0.0000 </r>
       <r>   13.4618    0.0000 </r>
       <r>   15.8936    0.0000 </r>
      </set>
      <set comment="kpoint 18">
       <r>   -9.5975    1.0000 </r>
       <r>   -9.5449    1.0000 </r>
       <r>   -8.5509    1.0000 </r>
       <r>   -8.5116    1.0000 </r>
       <r>   -1.6933    1.0000 </r>
       <r>   -1.6655    1.0000 </r>
       <r>    2.1269    1.0000 </r>
       <r>    2.4585    1.0000 </r>
       <r>    6.2326    0.0000 </r>
       <r>    6.5501    0.0000 </r>
       <r>   12.0547    0.0000 </r>
       <r>   12.2531    0.0000 </r>
       <r>   16.7715    0.0000 </r>
       <r>   16.9446    0.0000 </r>
      </set>
      <set comment="kpoint 19">
       <r>  -12.9496    1.0000 </r>
       <r>  -12.8173    1.0000 </r>
       <r>   -3.0460    1.0000 </r>
       <r>   -3.0194    1.0000 </r>
       <r>   -1.6910    1.0000 </r>
       <r>   -1.6719    1.0000 </r>
       <r>   -1.0998    1.0000 </r>
       <r>   -0.2231    1.0000 </r>
       <r>   10.9704    0.0000 </r>
       <r>   11.2050    0.0000 </r>
       <r>   12.5241    0.0000 </r>
       <r>   14.5944    0.0000 </r>
       <r>   14.9247    0.0000 </r>
       <r>   15.2566    0.0000 </r>
      </set>
      <set comment="kpoint 20">
       <r>  -10.4412    1.0000 </r>
       <r>  -10.3331    1.0000 </r>
       <r>   -6.7256    1.0000 </r>
       <r>   -6.6522    1.0000 </r>
       <r>   -3.3447    1.0000 </r>
       <r>   -3.2990    1.0000 </r>
       <r>    1.6865    1.0000 </r>
       <r>    2.3463    1.0000 </r>
       <r>    7.0283    0.0000 </r>
       <r>    7.4027    0.0000 </r>
       <r>   14.6371    0.0000 </r>
       <r>   14.7890    0.0000 </r>
       <r>   15.3518    0.0000 </r>
       <r>   16.3839    0.0000 </r>
      </set>
      <set comment="kpoint 21">
       <r>   -7.9075    1.0000 </r>
       <r>   -7.9075    1.0000 </r>
       <r>   -7.9028    1.0000 </r>
       <r>   -7.8083    1.0000 </r>
       <r>   -5.8479    1.0000 </r>
       <r>   -5.8479    1.0000 </r>
       <r>    4.4421    1.0000 </r>
       <r>    4.5856    1.0012 </r>
       <r>    4.5856    1.0012 </r>
       <r>    5.1167    0.0000 </r>
       <r>   15.0442    0.0000 </r>
       <r>   15.0442    0.0000 </r>
       <r>   17.7546    0.0000 </r>
       <r>   18.6693    0.0000 </r>
      </set>
      <set comment="kpoint 22">
       <r>  -14.8406    1.0000 </r>
       <r>  -14.8406    1.0000 </r>
       <r>   -2.9740    1.0000 </r>
       <r>   -2.9740    1.0000 </r>
       <r>    1.7198    1.0000 </r>
       <r>    1.7198    1.0000 </r>
       <r>    1.7198    1.0000 </r>
       <r>    1.7198    1.0000 </r>
       <r>   11.6124    0.0000 </r>
       <r>   11.6124    0.0000 </r>
       <r>   13.1285    0.0000 </r>
       <r>   13.1285    0.0000 </r>
       <r>   13.1285    0.0000 </r>
       <r>   13.1285    0.0000 </r>
      </set>
      <set comment="kpoint 23">
       <r>  -14.1830    1.0000 </r>
       <r>  -14.1830    1.0000 </r>
       <r>   -2.1951    1.0000 </r>
       <r>   -2.1951    1.0000 </r>
       <r>   -0.5839    1.0000 </r>
       <r>   -0.5839    1.0000 </r>
       <r>    0.5804    1.0000 </r>
       <r>    0.5804    1.0000 </r>
       <r>   12.2787    0.0000 </r>
       <r>   12.2787    0.0000 </r>
       <r>   13.1877    0.0000 </r>
       <r>   13.1877    0.0000 </r>
       <r>   14.1358    0.0000 </r>
       <r>   14.1358    0.0000 </r>
      </set>
      <set comment="kpoint 24">
       <r>  -12.2437    1.0000 </r>
       <r>  -12.2437    1.0000 </r>
       <r>   -4.9095    1.0000 </r>
       <r>   -4.9095    1.0000 </r>
       <r>   -1.0420    1.0000 </r>
       <r>   -1.0420    1.0000 </r>
       <r>    0.0297    1.0000 </r>
       <r>    0.0297    1.0000 </r>
       <r>    9.6019    0.0000 </r>
       <r>    9.6019    0.0000 </r>
       <r>   12.4659    0.0000 </r>
       <r>   12.4659    0.0000 </r>
       <r>   14.6072    0.0000 </r>
       <r>   14.6072    0.0000 </r>
      </set>
      <set comment="kpoint 25">
       <r>   -9.5698    1.0000 </r>
       <r>   -9.5698    1.0000 </r>
       <r>   -8.5340    1.0000 </r>
       <r>   -8.5340    1.0000 </r>
       <r>   -1.6800    1.0000 </r>
       <r>   -1.6800    1.0000 </r>
       <r>    2.3085    1.0000 </r>
       <r>    2.3085    1.0000 </r>
       <r>    6.3412    0.0000 </r>
       <r>    6.3412    0.0000 </r>
       <r>   12.1516    0.0000 </r>
       <r>   12.1517    0.0000 </r>
       <r>   17.2891    0.0000 </r>
       <r>   17.2891    0.0000 </r>
      </set>
      <set comment="kpoint 26">
       <r>  -12.8844    1.0000 </r>
       <r>  -12.8844    1.0000 </r>
       <r>   -3.0325    1.0000 </r>
       <r>   -3.0325    1.0000 </r>
       <r>   -1.6812    1.0000 </r>
       <r>   -1.6812    1.0000 </r>
       <r>   -0.6801    1.0000 </r>
       <r>   -0.6801    1.0000 </r>
       <r>   11.0915    0.0000 </r>
       <r>   11.0915    0.0000 </r>
       <r>   13.6686    0.0000 </r>
       <r>   13.6686    0.0000 </r>
       <r>   14.9286    0.0000 </r>
       <r>   14.9286    0.0000 </r>
      </set>
      <set comment="kpoint 27">
       <r>  -10.3878    1.0000 </r>
       <r>  -10.3878    1.0000 </r>
       <r>   -6.6891    1.0000 </r>
       <r>   -6.6891    1.0000 </r>
       <r>   -3.3220    1.0000 </r>
       <r>   -3.3220    1.0000 </r>
       <r>    2.0091    1.0000 </r>
       <r>    2.0091    1.0000 </r>
       <r>    7.2044    0.0000 </r>
       <r>    7.2044    0.0000 </r>
       <r>   14.7275    0.0000 </r>
       <r>   14.7275    0.0000 </r>
       <r>   15.8606    0.0000 </r>
       <r>   15.8606    0.0000 </r>
      </set>
      <set comment="kpoint 28">
       <r>   -7.9070    1.0000 </r>
       <r>   -7.9070    1.0000 </r>
       <r>   -7.8561    1.0000 </r>
       <r>   -7.8561    1.0000 </r>
       <r>   -5.8494    1.0000 </r>
       <r>   -5.8494    1.0000 </r>
       <r>    4.5929    1.0023 </r>
       <r>    4.5929    1.0023 </r>
       <r>    4.7668   -0.0341 </r>
       <r>    4.7668   -0.0341 </r>
       <r>   14.8765    0.0000 </r>
       <r>   14.8765    0.0000 </r>
       <r>   18.4674    0.0000 </r>
       <r>   18.4675    0.0000 </r>
      </set>
     </set>
     <set comment="spin 2">
      <set comment="kpoint 1">
       <r>  -14.9556    1.0000 </r>
       <r>  -14.6561    1.0000 </r>
       <r>   -3.7936    1.0000 </r>
       <r>   -1.8219    1.0000 </r>
       <r>    1.7211    1.0000 </r>
       <r>    1.7211    1.0000 </r>
       <r>    1.7396    1.0000 </r>
       <r>    1.7396    1.0000 </r>
       <r>    9.0084    0.0000 </r>
       <r>   13.1184    0.0000 </r>
       <r>   13.1184    0.0000 </r>
       <r>   13.1677    0.0000 </r>
       <r>   13.1677    0.0000 </r>
       <r>   15.3046    0.0000 </r>
      </set>
      <set comment="kpoint 2">
       <r>  -14.2927    1.0000 </r>
       <r>  -14.0052    1.0000 </r>
       <r>   -2.9900    1.0000 </r>
       <r>   -1.0725    1.0000 </r>
       <r>   -0.5998    1.0000 </r>
       <r>   -0.5350    1.0000 </r>
       <r>    0.5730    1.0000 </r>
       <r>    0.6120    1.0000 </r>
       <r>    9.8127    0.0000 </r>
       <r>   13.0580    0.0000 </r>
       <r>   13.2411    0.0000 </r>
       <r>   14.0045    0.0000 </r>
       <r>   14.4011    0.0000 </r>
       <r>   15.6777    0.0000 </r>
      </set>
      <set comment="kpoint 3">
       <r>  -12.3379    1.0000 </r>
       <r>  -12.0851    1.0000 </r>
       <r>   -4.9541    1.0000 </r>
       <r>   -4.8200    1.0000 </r>
       <r>   -1.0557    1.0000 </r>
       <r>   -1.0058    1.0000 </r>
       <r>   -0.6726    1.0000 </r>
       <r>    1.0228    1.0000 </r>
       <r>    9.2923    0.0000 </r>
       <r>   10.2073    0.0000 </r>
       <r>   12.1033    0.0000 </r>
       <r>   12.4127    0.0000 </r>
       <r>   12.7864    0.0000 </r>
       <r>   17.5292    0.0000 </r>
      </set>
      <set comment="kpoint 4">
       <r>   -9.6022    1.0000 </r>
       <r>   -9.4831    1.0000 </r>
       <r>   -8.5506    1.0000 </r>
       <r>   -8.4599    1.0000 </r>
       <r>   -1.6972    1.0000 </r>
       <r>   -1.6421    1.0000 </r>
       <r>    1.9641    1.0000 </r>
       <r>    2.6958    1.0000 </r>
       <r>    6.2385    0.0000 </r>
       <r>    6.9836    0.0000 </r>
       <r>   11.9962    0.0000 </r>
       <r>   12.3923    0.0000 </r>
       <r>   16.0085    0.0000 </r>
       <r>   16.1878    0.0000 </r>
      </set>
      <set comment="kpoint 5">
       <r>  -12.9838    1.0000 </r>
       <r>  -12.7196    1.0000 </r>
       <r>   -3.0398    1.0000 </r>
       <r>   -2.9844    1.0000 </r>
       <r>   -1.6882    1.0000 </r>
       <r>   -1.6474    1.0000 </r>
       <r>   -1.4201    1.0000 </r>
       <r>    0.3698    1.0000 </r>
       <r>   10.9457    0.0000 </r>
       <r>   11.4294    0.0000 </r>
       <r>   11.4327    0.0000 </r>
       <r>   14.7123    0.0000 </r>
       <r>   14.9385    0.0000 </r>
       <r>   16.3283    0.0000 </r>
      </set>
      <set comment="kpoint 6">
       <r>  -10.4654    1.0000 </r>
       <r>  -10.2485    1.0000 </r>
       <r>   -6.7382    1.0000 </r>
       <r>   -6.5911    1.0000 </r>
       <r>   -3.3523    1.0000 </r>
       <r>   -3.2618    1.0000 </r>
       <r>    1.4433    1.0000 </r>
       <r>    2.7951    1.0000 </r>
       <r>    6.9550    0.0000 </r>
       <r>    7.7150    0.0000 </r>
       <r>   14.4493    0.0000 </r>
       <r>   14.6671    0.0000 </r>
       <r>   15.1464    0.0000 </r>
       <r>   17.2260    0.0000 </r>
      </set>
      <set comment="kpoint 7">
       <r>   -7.9770    1.0000 </r>
       <r>   -7.8232    1.0000 </r>
       <r>   -7.8232    1.0000 </r>
       <r>   -7.7867    1.0000 </r>
       <r>   -5.8357    1.0000 </r>
       <r>   -5.8357    1.0000 </r>
       <r>    4.0334    1.0000 </r>
       <r>    4.8389   -0.0008 </r>
       <r>    4.8389   -0.0008 </r>
       <r>    5.3778    0.0000 </r>
       <r>   15.8904    0.0000 </r>
       <r>   15.8904    0.0000 </r>
       <r>   16.9511    0.0000 </r>
       <r>   17.3310    0.0000 </r>
      </set>
      <set comment="kpoint 8">
       <r>  -14.9367    1.0000 </r>
       <r>  -14.6775    1.0000 </r>
       <r>   -3.6827    1.0000 </r>
       <r>   -1.9835    1.0000 </r>
       <r>    1.7231    1.0000 </r>
       <r>    1.7231    1.0000 </r>
       <r>    1.7408    1.0000 </r>
       <r>    1.7408    1.0000 </r>
       <r>    9.3492    0.0000 </r>
       <r>   13.1136    0.0000 </r>
       <r>   13.1136    0.0000 </r>
       <r>   13.1668    0.0000 </r>
       <r>   13.1668    0.0000 </r>
       <r>   14.6511    0.0000 </r>
      </set>
      <set comment="kpoint 9">
       <r>  -14.2746    1.0000 </r>
       <r>  -14.0257    1.0000 </r>
       <r>   -2.8817    1.0000 </r>
       <r>   -1.2292    1.0000 </r>
       <r>   -0.5953    1.0000 </r>
       <r>   -0.5394    1.0000 </r>
       <r>    0.5753    1.0000 </r>
       <r>    0.6090    1.0000 </r>
       <r>   10.1415    0.0000 </r>
       <r>   13.0612    0.0000 </r>
       <r>   13.2274    0.0000 </r>
       <r>   14.0339    0.0000 </r>
       <r>   14.3725    0.0000 </r>
       <r>   15.3352    0.0000 </r>
      </set>
      <set comment="kpoint 10">
       <r>  -12.3218    1.0000 </r>
       <r>  -12.1030    1.0000 </r>
       <r>   -4.9445    1.0000 </r>
       <r>   -4.8292    1.0000 </r>
       <r>   -1.0529    1.0000 </r>
       <r>   -1.0091    1.0000 </r>
       <r>   -0.5755    1.0000 </r>
       <r>    0.8873    1.0000 </r>
       <r>    9.3359    0.0000 </r>
       <r>   10.1354    0.0000 </r>
       <r>   12.2761    0.0000 </r>
       <r>   12.4763    0.0000 </r>
       <r>   12.8649    0.0000 </r>
       <r>   17.0562    0.0000 </r>
      </set>
      <set comment="kpoint 11">
       <r>   -9.5931    1.0000 </r>
       <r>   -9.4897    1.0000 </r>
       <r>   -8.5469    1.0000 </r>
       <r>   -8.4681    1.0000 </r>
       <r>   -1.6934    1.0000 </r>
       <r>   -1.6456    1.0000 </r>
       <r>    2.0255    1.0000 </r>
       <r>    2.6675    1.0000 </r>
       <r>    6.2347    0.0000 </r>
       <r>    6.8890    0.0000 </r>
       <r>   12.0215    0.0000 </r>
       <r>   12.3652    0.0000 </r>
       <r>   16.2667    0.0000 </r>
       <r>   16.3751    0.0000 </r>
      </set>
      <set comment="kpoint 12">
       <r>  -12.9670    1.0000 </r>
       <r>  -12.7383    1.0000 </r>
       <r>   -3.0357    1.0000 </r>
       <r>   -2.9877    1.0000 </r>
       <r>   -1.6858    1.0000 </r>
       <r>   -1.6509    1.0000 </r>
       <r>   -1.3187    1.0000 </r>
       <r>    0.2248    1.0000 </r>
       <r>   10.9767    0.0000 </r>
       <r>   11.3961    0.0000 </r>
       <r>   11.7340    0.0000 </r>
       <r>   14.7126    0.0000 </r>
       <r>   14.9385    0.0000 </r>
       <r>   16.3271    0.0000 </r>
      </set>
      <set comment="kpoint 13">
       <r>  -10.4515    1.0000 </r>
       <r>  -10.2638    1.0000 </r>
       <r>   -6.7285    1.0000 </r>
       <r>   -6.6014    1.0000 </r>
       <r>   -3.3464    1.0000 </r>
       <r>   -3.2678    1.0000 </r>
       <r>    1.5256    1.0000 </r>
       <r>    2.6972    1.0000 </r>
       <r>    6.9929    0.0000 </r>
       <r>    7.6566    0.0000 </r>
       <r>   14.5566    0.0000 </r>
       <r>   14.7324    0.0000 </r>
       <r>   15.1516    0.0000 </r>
       <r>   16.9268    0.0000 </r>
      </set>
      <set comment="kpoint 14">
       <r>   -7.9646    1.0000 </r>
       <r>   -7.8224    1.0000 </r>
       <r>   -7.8224    1.0000 </r>
       <r>   -7.7997    1.0000 </r>
       <r>   -5.8365    1.0000 </r>
       <r>   -5.8365    1.0000 </r>
       <r>    4.1137    1.0000 </r>
       <r>    4.8482   -0.0003 </r>
       <r>    4.8482   -0.0003 </r>
       <r>    5.2759    0.0000 </r>
       <r>   15.5387    0.0000 </r>
       <r>   15.5387    0.0000 </r>
       <r>   17.1564    0.0000 </r>
       <r>   17.8477    0.0000 </r>
      </set>
      <set comment="kpoint 15">
       <r>  -14.8844    1.0000 </r>
       <r>  -14.7349    1.0000 </r>
       <r>   -3.3675    1.0000 </r>
       <r>   -2.3953    1.0000 </r>
       <r>    1.7265    1.0000 </r>
       <r>    1.7265    1.0000 </r>
       <r>    1.7367    1.0000 </r>
       <r>    1.7367    1.0000 </r>
       <r>   10.2923    0.0000 </r>
       <r>   13.1229    0.0000 </r>
       <r>   13.1229    0.0000 </r>
       <r>   13.1573    0.0000 </r>
       <r>   13.1573    0.0000 </r>
       <r>   13.2192    0.0000 </r>
      </set>
      <set comment="kpoint 16">
       <r>  -14.2242    1.0000 </r>
       <r>  -14.0806    1.0000 </r>
       <r>   -2.5734    1.0000 </r>
       <r>   -1.6293    1.0000 </r>
       <r>   -0.5832    1.0000 </r>
       <r>   -0.5509    1.0000 </r>
       <r>    0.5828    1.0000 </r>
       <r>    0.6025    1.0000 </r>
       <r>   11.0481    0.0000 </r>
       <r>   13.0500    0.0000 </r>
       <r>   13.1964    0.0000 </r>
       <r>   13.8879    0.0000 </r>
       <r>   14.1792    0.0000 </r>
       <r>   14.3739    0.0000 </r>
      </set>
      <set comment="kpoint 17">
       <r>  -12.2773    1.0000 </r>
       <r>  -12.1510    1.0000 </r>
       <r>   -4.9208    1.0000 </r>
       <r>   -4.8543    1.0000 </r>
       <r>   -1.0435    1.0000 </r>
       <r>   -1.0168    1.0000 </r>
       <r>   -0.2982    1.0000 </r>
       <r>    0.5407    1.0000 </r>
       <r>    9.4739    0.0000 </r>
       <r>    9.9411    0.0000 </r>
       <r>   12.4154    0.0000 </r>
       <r>   12.5512    0.0000 </r>
       <r>   13.5003    0.0000 </r>
       <r>   15.9496    0.0000 </r>
      </set>
      <set comment="kpoint 18">
       <r>   -9.5691    1.0000 </r>
       <r>   -9.5089    1.0000 </r>
       <r>   -8.5349    1.0000 </r>
       <r>   -8.4888    1.0000 </r>
       <r>   -1.6819    1.0000 </r>
       <r>   -1.6542    1.0000 </r>
       <r>    2.1860    1.0000 </r>
       <r>    2.5653    1.0000 </r>
       <r>    6.2745    0.0000 </r>
       <r>    6.6604    0.0000 </r>
       <r>   12.0921    0.0000 </r>
       <r>   12.2903    0.0000 </r>
       <r>   16.8625    0.0000 </r>
       <r>   16.9374    0.0000 </r>
      </set>
      <set comment="kpoint 19">
       <r>  -12.9205    1.0000 </r>
       <r>  -12.7885    1.0000 </r>
       <r>   -3.0251    1.0000 </r>
       <r>   -2.9976    1.0000 </r>
       <r>   -1.6793    1.0000 </r>
       <r>   -1.6596    1.0000 </r>
       <r>   -1.0284    1.0000 </r>
       <r>   -0.1461    1.0000 </r>
       <r>   11.0617    0.0000 </r>
       <r>   11.3063    0.0000 </r>
       <r>   12.5592    0.0000 </r>
       <r>   14.6243    0.0000 </r>
       <r>   14.9390    0.0000 </r>
       <r>   15.3057    0.0000 </r>
      </set>
      <set comment="kpoint 20">
       <r>  -10.4130    1.0000 </r>
       <r>  -10.3047    1.0000 </r>
       <r>   -6.7022    1.0000 </r>
       <r>   -6.6287    1.0000 </r>
       <r>   -3.3310    1.0000 </r>
       <r>   -3.2853    1.0000 </r>
       <r>    1.7582    1.0000 </r>
       <r>    2.4338    1.0000 </r>
       <r>    7.1056    0.0000 </r>
       <r>    7.4946    0.0000 </r>
       <r>   14.6714    0.0000 </r>
       <r>   14.8383    0.0000 </r>
       <r>   15.3810    0.0000 </r>
       <r>   16.4409    0.0000 </r>
      </set>
      <set comment="kpoint 21">
       <r>   -7.9306    1.0000 </r>
       <r>   -7.8356    1.0000 </r>
       <r>   -7.8213    1.0000 </r>
       <r>   -7.8213    1.0000 </r>
       <r>   -5.8389    1.0000 </r>
       <r>   -5.8389    1.0000 </r>
       <r>    4.3342    1.0000 </r>
       <r>    4.8631   -0.0001 </r>
       <r>    4.8631   -0.0001 </r>
       <r>    5.0047    0.0000 </r>
       <r>   15.0972    0.0000 </r>
       <r>   15.0972    0.0000 </r>
       <r>   17.7089    0.0000 </r>
       <r>   18.7472    0.0000 </r>
      </set>
      <set comment="kpoint 22">
       <r>  -14.8108    1.0000 </r>
       <r>  -14.8108    1.0000 </r>
       <r>   -2.9031    1.0000 </r>
       <r>   -2.9031    1.0000 </r>
       <r>    1.7317    1.0000 </r>
       <r>    1.7317    1.0000 </r>
       <r>    1.7317    1.0000 </r>
       <r>    1.7317    1.0000 </r>
       <r>   11.6575    0.0000 </r>
       <r>   11.6575    0.0000 </r>
       <r>   13.1383    0.0000 </r>
       <r>   13.1383    0.0000 </r>
       <r>   13.1383    0.0000 </r>
       <r>   13.1383    0.0000 </r>
      </set>
      <set comment="kpoint 23">
       <r>  -14.1535    1.0000 </r>
       <r>  -14.1535    1.0000 </r>
       <r>   -2.1233    1.0000 </r>
       <r>   -2.1233    1.0000 </r>
       <r>   -0.5674    1.0000 </r>
       <r>   -0.5674    1.0000 </r>
       <r>    0.5921    1.0000 </r>
       <r>    0.5921    1.0000 </r>
       <r>   12.3260    0.0000 </r>
       <r>   12.3260    0.0000 </r>
       <r>   13.2043    0.0000 </r>
       <r>   13.2043    0.0000 </r>
       <r>   14.2393    0.0000 </r>
       <r>   14.2393    0.0000 </r>
      </set>
      <set comment="kpoint 24">
       <r>  -12.2150    1.0000 </r>
       <r>  -12.2150    1.0000 </r>
       <r>   -4.8879    1.0000 </r>
       <r>   -4.8879    1.0000 </r>
       <r>   -1.0306    1.0000 </r>
       <r>   -1.0306    1.0000 </r>
       <r>    0.1047    1.0000 </r>
       <r>    0.1047    1.0000 </r>
       <r>    9.6902    0.0000 </r>
       <r>    9.6902    0.0000 </r>
       <r>   12.4995    0.0000 </r>
       <r>   12.4995    0.0000 </r>
       <r>   14.6534    0.0000 </r>
       <r>   14.6534    0.0000 </r>
      </set>
      <set comment="kpoint 25">
       <r>   -9.5378    1.0000 </r>
       <r>   -9.5378    1.0000 </r>
       <r>   -8.5145    1.0000 </r>
       <r>   -8.5145    1.0000 </r>
       <r>   -1.6687    1.0000 </r>
       <r>   -1.6686    1.0000 </r>
       <r>    2.3893    1.0000 </r>
       <r>    2.3893    1.0000 </r>
       <r>    6.4191    0.0000 </r>
       <r>    6.4191    0.0000 </r>
       <r>   12.1892    0.0000 </r>
       <r>   12.1892    0.0000 </r>
       <r>   17.3607    0.0000 </r>
       <r>   17.3607    0.0000 </r>
      </set>
      <set comment="kpoint 26">
       <r>  -12.8555    1.0000 </r>
       <r>  -12.8555    1.0000 </r>
       <r>   -3.0112    1.0000 </r>
       <r>   -3.0112    1.0000 </r>
       <r>   -1.6692    1.0000 </r>
       <r>   -1.6692    1.0000 </r>
       <r>   -0.6063    1.0000 </r>
       <r>   -0.6063    1.0000 </r>
       <r>   11.1877    0.0000 </r>
       <r>   11.1877    0.0000 </r>
       <r>   13.7111    0.0000 </r>
       <r>   13.7111    0.0000 </r>
       <r>   14.9494    0.0000 </r>
       <r>   14.9494    0.0000 </r>
      </set>
      <set comment="kpoint 27">
       <r>  -10.3594    1.0000 </r>
       <r>  -10.3594    1.0000 </r>
       <r>   -6.6657    1.0000 </r>
       <r>   -6.6657    1.0000 </r>
       <r>   -3.3082    1.0000 </r>
       <r>   -3.3082    1.0000 </r>
       <r>    2.0876    1.0000 </r>
       <r>    2.0876    1.0000 </r>
       <r>    7.2900    0.0000 </r>
       <r>    7.2900    0.0000 </r>
       <r>   14.7688    0.0000 </r>
       <r>   14.7688    0.0000 </r>
       <r>   15.9060    0.0000 </r>
       <r>   15.9060    0.0000 </r>
      </set>
      <set comment="kpoint 28">
       <r>   -7.8837    1.0000 </r>
       <r>   -7.8837    1.0000 </r>
       <r>   -7.8208    1.0000 </r>
       <r>   -7.8208    1.0000 </r>
       <r>   -5.8404    1.0000 </r>
       <r>   -5.8404    1.0000 </r>
       <r>    4.6570    1.0302 </r>
       <r>    4.6570    1.0302 </r>
       <r>    4.8708    0.0000 </r>
       <r>    4.8708    0.0000 </r>
       <r>   14.9292    0.0000 </r>
       <r>   14.9292    0.0000 </r>
       <r>   18.4277    0.0000 </r>
       <r>   18.4277    0.0000 </r>
      </set>
     </set>
    </set>
   </array>
  </eigenvalues>
  <separator name="orbital magnetization" >
   <v name="MAGDIPOLOUT">      0.00000000      0.00000000      0.00000000</v>
  </separator>
  <dos>
   <i name="efermi">      4.70999183 </i>
   <total>
    <array>
     <dimension dim="1">gridpoints</dimension>
     <dimension dim="2">spin</dimension>
     <field>energy</field>
     <field>total</field>
     <field>integrated</field>
     <set>
      <set comment="spin 1">
       <r>   -16.6724     0.0000     0.0000 </r>
       <r>   -16.5487     0.0000     0.0000 </r>
       <r>   -16.4250     0.0000     0.0000 </r>
       <r>   -16.3013     0.0000     0.0000 </r>
       <r>   -16.1777     0.0000     0.0000 </r>
       <r>   -16.0540     0.0000     0.0000 </r>
       <r>   -15.9303     0.0000     0.0000 </r>
       <r>   -15.8066     0.0000     0.0000 </r>
       <r>   -15.6829     0.0000     0.0000 </r>
       <r>   -15.5592     0.0000     0.0000 </r>
       <r>   -15.4355     0.0000     0.0000 </r>
       <r>   -15.3118     0.0000     0.0000 </r>
       <r>   -15.1882     0.0000     0.0000 </r>
       <r>   -15.0645    -0.0016    -0.0002 </r>
       <r>   -14.9408     0.1134     0.0138 </r>
       <r>   -14.8171     0.1374     0.0308 </r>
       <r>   -14.6934     0.1576     0.0503 </r>
       <r>   -14.5697     0.0424     0.0556 </r>
       <r>   -14.4460    -0.0005     0.0555 </r>
       <r>   -14.3223     0.1957     0.0797 </r>
       <r>   -14.1987     1.0499     0.2096 </r>
       <r>   -14.0750     0.8458     0.3142 </r>
       <r>   -13.9513     0.6113     0.3898 </r>
       <r>   -13.8276    -0.0074     0.3889 </r>
       <r>   -13.7039     0.0000     0.3889 </r>
       <r>   -13.5802     0.0000     0.3889 </r>
       <r>   -13.4565     0.0000     0.3889 </r>
       <r>   -13.3328     0.0000     0.3889 </r>
       <r>   -13.2092     0.0000     0.3889 </r>
       <r>   -13.0855    -0.0136     0.3872 </r>
       <r>   -12.9618     0.7967     0.4858 </r>
       <r>   -12.8381     0.8612     0.5923 </r>
       <r>   -12.7144     1.0560     0.7229 </r>
       <r>   -12.5907    -0.0053     0.7222 </r>
       <r>   -12.4670    -0.0029     0.7219 </r>
       <r>   -12.3434     0.4819     0.7815 </r>
       <r>   -12.2197     1.0339     0.9094 </r>
       <r>   -12.0960     1.1249     1.0485 </r>
       <r>   -11.9723     0.0572     1.0556 </r>
       <r>   -11.8486    -0.0001     1.0556 </r>
       <r>   -11.7249     0.0000     1.0556 </r>
       <r>   -11.6012     0.0000     1.0556 </r>
       <r>   -11.4775     0.0000     1.0556 </r>
       <r>   -11.3539     0.0000     1.0556 </r>
       <r>   -11.2302     0.0000     1.0556 </r>
       <r>   -11.1065     0.0000     1.0556 </r>
       <r>   -10.9828     0.0000     1.0556 </r>
       <r>   -10.8591     0.0000     1.0556 </r>
       <r>   -10.7354     0.0000     1.0556 </r>
       <r>   -10.6117    -0.0015     1.0554 </r>
       <r>   -10.4880     0.5684     1.1257 </r>
       <r>   -10.3644     2.4983     1.4347 </r>
       <r>   -10.2407     2.3479     1.7251 </r>
       <r>   -10.1170    -0.0232     1.7222 </r>
       <r>    -9.9933     0.0000     1.7222 </r>
       <r>    -9.8696     0.0000     1.7222 </r>
       <r>    -9.7459    -0.0005     1.7222 </r>
       <r>    -9.6222     0.1805     1.7445 </r>
       <r>    -9.4985     1.1479     1.8865 </r>
       <r>    -9.3749     0.0196     1.8889 </r>
       <r>    -9.2512     0.0000     1.8889 </r>
       <r>    -9.1275     0.0000     1.8889 </r>
       <r>    -9.0038     0.0000     1.8889 </r>
       <r>    -8.8801     0.0000     1.8889 </r>
       <r>    -8.7564     0.0000     1.8889 </r>
       <r>    -8.6327    -0.0174     1.8867 </r>
       <r>    -8.5090     0.9760     2.0075 </r>
       <r>    -8.3854     0.3911     2.0558 </r>
       <r>    -8.2617    -0.0022     2.0556 </r>
       <r>    -8.1380     0.0000     2.0556 </r>
       <r>    -8.0143    -0.0116     2.0541 </r>
       <r>    -7.8906     1.0470     2.1836 </r>
       <r>    -7.7669     0.6564     2.2648 </r>
       <r>    -7.6432     0.1052     2.2778 </r>
       <r>    -7.5195    -0.0003     2.2778 </r>
       <r>    -7.3959     0.0000     2.2778 </r>
       <r>    -7.2722     0.0000     2.2778 </r>
       <r>    -7.1485     0.0000     2.2778 </r>
       <r>    -7.0248     0.0000     2.2778 </r>
       <r>    -6.9011    -0.0002     2.2778 </r>
       <r>    -6.7774     0.1794     2.2999 </r>
       <r>    -6.6537     3.4839     2.7309 </r>
       <r>    -6.5300     1.7466     2.9469 </r>
       <r>    -6.4064    -0.0197     2.9444 </r>
       <r>    -6.2827     0.0000     2.9444 </r>
       <r>    -6.1590     0.0000     2.9444 </r>
       <r>    -6.0353     0.0000     2.9444 </r>
       <r>    -5.9116    -0.0311     2.9406 </r>
       <r>    -5.7879     0.9607     3.0594 </r>
       <r>    -5.6642    -0.0313     3.0556 </r>
       <r>    -5.5405     0.0000     3.0556 </r>
       <r>    -5.4169     0.0000     3.0556 </r>
       <r>    -5.2932     0.0000     3.0556 </r>
       <r>    -5.1695     0.0000     3.0556 </r>
       <r>    -5.0458    -0.0207     3.0530 </r>
       <r>    -4.9221     1.1767     3.1985 </r>
       <r>    -4.7984     1.5661     3.3922 </r>
       <r>    -4.6747    -0.0271     3.3889 </r>
       <r>    -4.5510     0.0000     3.3889 </r>
       <r>    -4.4274     0.0000     3.3889 </r>
       <r>    -4.3037     0.0000     3.3889 </r>
       <r>    -4.1800     0.0000     3.3889 </r>
       <r>    -4.0563     0.0000     3.3889 </r>
       <r>    -3.9326    -0.0012     3.3887 </r>
       <r>    -3.8089     0.0371     3.3933 </r>
       <r>    -3.6852     0.0789     3.4031 </r>
       <r>    -3.5615    -0.0027     3.4028 </r>
       <r>    -3.4379    -0.0137     3.4011 </r>
       <r>    -3.3142     3.1485     3.7905 </r>
       <r>    -3.1905     2.3547     4.0817 </r>
       <r>    -3.0668     0.3579     4.1260 </r>
       <r>    -2.9431     2.9332     4.4888 </r>
       <r>    -2.8194     0.1282     4.5047 </r>
       <r>    -2.6957    -0.0136     4.5030 </r>
       <r>    -2.5720     0.4758     4.5618 </r>
       <r>    -2.4484     0.0474     4.5677 </r>
       <r>    -2.3247     0.0138     4.5694 </r>
       <r>    -2.2010     0.1803     4.5917 </r>
       <r>    -2.0773     0.2860     4.6271 </r>
       <r>    -1.9536     0.0572     4.6342 </r>
       <r>    -1.8299     0.0378     4.6388 </r>
       <r>    -1.7062     0.8899     4.7489 </r>
       <r>    -1.5825     3.6480     5.2001 </r>
       <r>    -1.4589     0.1479     5.2184 </r>
       <r>    -1.3352     0.5331     5.2844 </r>
       <r>    -1.2115     0.3914     5.3328 </r>
       <r>    -1.0878     0.6380     5.4117 </r>
       <r>    -0.9641     2.7956     5.7575 </r>
       <r>    -0.8404    -0.0623     5.7498 </r>
       <r>    -0.7167     0.1918     5.7735 </r>
       <r>    -0.5930     2.0021     6.0211 </r>
       <r>    -0.4694     1.6404     6.2240 </r>
       <r>    -0.3457     0.3734     6.2702 </r>
       <r>    -0.2220     0.2945     6.3066 </r>
       <r>    -0.0983     0.2161     6.3333 </r>
       <r>     0.0254     0.1912     6.3570 </r>
       <r>     0.1491     0.5154     6.4207 </r>
       <r>     0.2728     0.2477     6.4514 </r>
       <r>     0.3965     0.1540     6.4704 </r>
       <r>     0.5201     0.4188     6.5222 </r>
       <r>     0.6438     2.8059     6.8693 </r>
       <r>     0.7675    -0.0544     6.8626 </r>
       <r>     0.8912     0.4410     6.9171 </r>
       <r>     1.0149     0.2270     6.9452 </r>
       <r>     1.1386    -0.0059     6.9444 </r>
       <r>     1.2623    -0.0012     6.9443 </r>
       <r>     1.3860     0.2658     6.9772 </r>
       <r>     1.5096     1.1086     7.1143 </r>
       <r>     1.6333    -0.0691     7.1057 </r>
       <r>     1.7570     1.8383     7.3331 </r>
       <r>     1.8807    -0.0006     7.3330 </r>
       <r>     2.0044     0.6907     7.4185 </r>
       <r>     2.1281     0.6655     7.5008 </r>
       <r>     2.2518     0.0885     7.5117 </r>
       <r>     2.3754     1.0645     7.6434 </r>
       <r>     2.4991     0.2905     7.6793 </r>
       <r>     2.6228     1.0850     7.8135 </r>
       <r>     2.7465     0.6213     7.8904 </r>
       <r>     2.8702    -0.0120     7.8889 </r>
       <r>     2.9939     0.0000     7.8889 </r>
       <r>     3.1176     0.0000     7.8889 </r>
       <r>     3.2413     0.0000     7.8889 </r>
       <r>     3.3649     0.0000     7.8889 </r>
       <r>     3.4886     0.0000     7.8889 </r>
       <r>     3.6123     0.0000     7.8889 </r>
       <r>     3.7360     0.0000     7.8889 </r>
       <r>     3.8597     0.0000     7.8889 </r>
       <r>     3.9834     0.0000     7.8889 </r>
       <r>     4.1071     0.0038     7.8894 </r>
       <r>     4.2308     0.1723     7.9107 </r>
       <r>     4.3544     0.0461     7.9164 </r>
       <r>     4.4781     0.1389     7.9336 </r>
       <r>     4.6018     0.7617     8.0278 </r>
       <r>     4.7255     0.1506     8.0464 </r>
       <r>     4.8492     0.1521     8.0652 </r>
       <r>     4.9729    -0.0031     8.0648 </r>
       <r>     5.0966     0.0282     8.0683 </r>
       <r>     5.2203     0.1225     8.0834 </r>
       <r>     5.3439    -0.0031     8.0831 </r>
       <r>     5.4676     0.1654     8.1035 </r>
       <r>     5.5913     0.0620     8.1112 </r>
       <r>     5.7150    -0.0006     8.1111 </r>
       <r>     5.8387     0.0000     8.1111 </r>
       <r>     5.9624     0.0000     8.1111 </r>
       <r>     6.0861    -0.0001     8.1111 </r>
       <r>     6.2098     0.1208     8.1260 </r>
       <r>     6.3334     0.5273     8.1913 </r>
       <r>     6.4571     0.1358     8.2081 </r>
       <r>     6.5808     0.2103     8.2341 </r>
       <r>     6.7045     0.0100     8.2353 </r>
       <r>     6.8282     0.2411     8.2651 </r>
       <r>     6.9519     1.3633     8.4337 </r>
       <r>     7.0756     1.0007     8.5575 </r>
       <r>     7.1993     0.3549     8.6014 </r>
       <r>     7.3229     0.5084     8.6643 </r>
       <r>     7.4466     0.9218     8.7783 </r>
       <r>     7.5703     0.5658     8.8483 </r>
       <r>     7.6940     0.7903     8.9460 </r>
       <r>     7.8177    -0.0130     8.9444 </r>
       <r>     7.9414     0.0000     8.9444 </r>
       <r>     8.0651     0.0000     8.9444 </r>
       <r>     8.1888     0.0000     8.9444 </r>
       <r>     8.3124     0.0000     8.9444 </r>
       <r>     8.4361     0.0000     8.9444 </r>
       <r>     8.5598     0.0000     8.9444 </r>
       <r>     8.6835     0.0000     8.9444 </r>
       <r>     8.8072     0.0000     8.9444 </r>
       <r>     8.9309    -0.0001     8.9444 </r>
       <r>     9.0546     0.0383     8.9492 </r>
       <r>     9.1783    -0.0108     8.9478 </r>
       <r>     9.3019     0.7016     9.0346 </r>
       <r>     9.4256     0.4786     9.0938 </r>
       <r>     9.5493     0.0142     9.0956 </r>
       <r>     9.6730     0.4751     9.1543 </r>
       <r>     9.7967     0.1559     9.1736 </r>
       <r>     9.9204     0.5160     9.2375 </r>
       <r>    10.0441     0.2731     9.2712 </r>
       <r>    10.1678     0.8613     9.3778 </r>
       <r>    10.2914     0.0515     9.3841 </r>
       <r>    10.4151     0.0010     9.3843 </r>
       <r>    10.5388     0.0000     9.3843 </r>
       <r>    10.6625     0.0000     9.3843 </r>
       <r>    10.7862    -0.0097     9.3831 </r>
       <r>    10.9099     0.5907     9.4561 </r>
       <r>    11.0336     0.9401     9.5724 </r>
       <r>    11.1573     0.5066     9.6351 </r>
       <r>    11.2809     0.5912     9.7082 </r>
       <r>    11.4046     0.6816     9.7925 </r>
       <r>    11.5283     0.0669     9.8008 </r>
       <r>    11.6520     0.0626     9.8085 </r>
       <r>    11.7757     0.4763     9.8674 </r>
       <r>    11.8994    -0.0217     9.8647 </r>
       <r>    12.0231     0.3525     9.9083 </r>
       <r>    12.1468     0.5420     9.9754 </r>
       <r>    12.2704     0.7913    10.0732 </r>
       <r>    12.3941     1.3168    10.2361 </r>
       <r>    12.5178     1.4989    10.4215 </r>
       <r>    12.6415     0.4484    10.4770 </r>
       <r>    12.7652     0.1147    10.4912 </r>
       <r>    12.8889     0.5708    10.5618 </r>
       <r>    13.0126     0.2192    10.5889 </r>
       <r>    13.1363     1.3880    10.7606 </r>
       <r>    13.2599     2.0769    11.0174 </r>
       <r>    13.3836    -0.0398    11.0125 </r>
       <r>    13.5073     0.4662    11.0702 </r>
       <r>    13.6310     0.0046    11.0707 </r>
       <r>    13.7547     0.4447    11.1258 </r>
       <r>    13.8784     0.3093    11.1640 </r>
       <r>    14.0021     0.8305    11.2667 </r>
       <r>    14.1258     0.5841    11.3390 </r>
       <r>    14.2494     0.4865    11.3992 </r>
       <r>    14.3731     0.9236    11.5134 </r>
       <r>    14.4968     0.4586    11.5701 </r>
       <r>    14.6205     2.1756    11.8392 </r>
       <r>    14.7442     3.3409    12.2524 </r>
       <r>    14.8679     1.0859    12.3868 </r>
       <r>    14.9916     1.7473    12.6029 </r>
       <r>    15.1153     0.6759    12.6865 </r>
       <r>    15.2389     1.0548    12.8169 </r>
       <r>    15.3626     1.3868    12.9885 </r>
       <r>    15.4863     0.4300    13.0417 </r>
       <r>    15.6100     0.1435    13.0594 </r>
       <r>    15.7337     0.2711    13.0929 </r>
       <r>    15.8574     0.5230    13.1576 </r>
       <r>    15.9811     0.9827    13.2792 </r>
       <r>    16.1048     0.1571    13.2986 </r>
       <r>    16.2284     0.1866    13.3217 </r>
       <r>    16.3521     1.0720    13.4543 </r>
       <r>    16.4758     0.8306    13.5570 </r>
       <r>    16.5995    -0.0117    13.5556 </r>
       <r>    16.7232    -0.0050    13.5549 </r>
       <r>    16.8469     0.4623    13.6121 </r>
       <r>    16.9706     0.9671    13.7317 </r>
       <r>    17.0943     0.4344    13.7855 </r>
       <r>    17.2179     0.5861    13.8580 </r>
       <r>    17.3416     0.3317    13.8990 </r>
       <r>    17.4653     0.1381    13.9161 </r>
       <r>    17.5890     0.0798    13.9259 </r>
       <r>    17.7127    -0.0051    13.9253 </r>
       <r>    17.8364     0.3126    13.9640 </r>
       <r>    17.9601    -0.0082    13.9630 </r>
       <r>    18.0837     0.0000    13.9630 </r>
       <r>    18.2074     0.0000    13.9630 </r>
       <r>    18.3311    -0.0001    13.9630 </r>
       <r>    18.4548     0.0440    13.9684 </r>
       <r>    18.5785     0.1043    13.9813 </r>
       <r>    18.7022     0.1429    13.9990 </r>
       <r>    18.8259     0.0084    14.0000 </r>
       <r>    18.9496     0.0000    14.0000 </r>
       <r>    19.0732     0.0000    14.0000 </r>
       <r>    19.1969     0.0000    14.0000 </r>
       <r>    19.3206     0.0000    14.0000 </r>
       <r>    19.4443     0.0000    14.0000 </r>
       <r>    19.5680     0.0000    14.0000 </r>
       <r>    19.6917     0.0000    14.0000 </r>
       <r>    19.8154     0.0000    14.0000 </r>
       <r>    19.9391     0.0000    14.0000 </r>
       <r>    20.0627     0.0000    14.0000 </r>
       <r>    20.1864     0.0000    14.0000 </r>
       <r>    20.3101     0.0000    14.0000 </r>
       <r>    20.4338     0.0000    14.0000 </r>
      </set>
      <set comment="spin 2">
       <r>   -16.6724     0.0000     0.0000 </r>
       <r>   -16.5487     0.0000     0.0000 </r>
       <r>   -16.4250     0.0000     0.0000 </r>
       <r>   -16.3013     0.0000     0.0000 </r>
       <r>   -16.1777     0.0000     0.0000 </r>
       <r>   -16.0540     0.0000     0.0000 </r>
       <r>   -15.9303     0.0000     0.0000 </r>
       <r>   -15.8066     0.0000     0.0000 </r>
       <r>   -15.6829     0.0000     0.0000 </r>
       <r>   -15.5592     0.0000     0.0000 </r>
       <r>   -15.4355     0.0000     0.0000 </r>
       <r>   -15.3118     0.0000     0.0000 </r>
       <r>   -15.1882     0.0000     0.0000 </r>
       <r>   -15.0645    -0.0002     0.0000 </r>
       <r>   -14.9408     0.0576     0.0071 </r>
       <r>   -14.8171     0.1604     0.0269 </r>
       <r>   -14.6934     0.1383     0.0440 </r>
       <r>   -14.5697     0.0940     0.0557 </r>
       <r>   -14.4460    -0.0010     0.0556 </r>
       <r>   -14.3223     0.0058     0.0563 </r>
       <r>   -14.1987     1.0697     0.1886 </r>
       <r>   -14.0750     0.7569     0.2822 </r>
       <r>   -13.9513     0.8826     0.3914 </r>
       <r>   -13.8276    -0.0201     0.3889 </r>
       <r>   -13.7039     0.0000     0.3889 </r>
       <r>   -13.5802     0.0000     0.3889 </r>
       <r>   -13.4565     0.0000     0.3889 </r>
       <r>   -13.3328     0.0000     0.3889 </r>
       <r>   -13.2092     0.0000     0.3889 </r>
       <r>   -13.0855    -0.0025     0.3886 </r>
       <r>   -12.9618     0.4535     0.4447 </r>
       <r>   -12.8381     1.0149     0.5702 </r>
       <r>   -12.7144     1.0854     0.7045 </r>
       <r>   -12.5907     0.1439     0.7223 </r>
       <r>   -12.4670    -0.0005     0.7222 </r>
       <r>   -12.3434     0.1528     0.7411 </r>
       <r>   -12.2197     1.1628     0.8849 </r>
       <r>   -12.0960     1.0709     1.0174 </r>
       <r>   -11.9723     0.3098     1.0557 </r>
       <r>   -11.8486    -0.0010     1.0556 </r>
       <r>   -11.7249     0.0000     1.0556 </r>
       <r>   -11.6012     0.0000     1.0556 </r>
       <r>   -11.4775     0.0000     1.0556 </r>
       <r>   -11.3539     0.0000     1.0556 </r>
       <r>   -11.2302     0.0000     1.0556 </r>
       <r>   -11.1065     0.0000     1.0556 </r>
       <r>   -10.9828     0.0000     1.0556 </r>
       <r>   -10.8591     0.0000     1.0556 </r>
       <r>   -10.7354     0.0000     1.0556 </r>
       <r>   -10.6117    -0.0001     1.0555 </r>
       <r>   -10.4880     0.0713     1.0644 </r>
       <r>   -10.3644     2.5477     1.3795 </r>
       <r>   -10.2407     2.5028     1.6891 </r>
       <r>   -10.1170     0.2686     1.7223 </r>
       <r>    -9.9933    -0.0004     1.7222 </r>
       <r>    -9.8696     0.0000     1.7222 </r>
       <r>    -9.7459     0.0000     1.7222 </r>
       <r>    -9.6222     0.0292     1.7258 </r>
       <r>    -9.4985     1.0223     1.8523 </r>
       <r>    -9.3749     0.2972     1.8890 </r>
       <r>    -9.2512    -0.0012     1.8889 </r>
       <r>    -9.1275     0.0000     1.8889 </r>
       <r>    -9.0038     0.0000     1.8889 </r>
       <r>    -8.8801     0.0000     1.8889 </r>
       <r>    -8.7564     0.0000     1.8889 </r>
       <r>    -8.6327    -0.0089     1.8878 </r>
       <r>    -8.5090     0.7115     1.9758 </r>
       <r>    -8.3854     0.6544     2.0567 </r>
       <r>    -8.2617    -0.0094     2.0556 </r>
       <r>    -8.1380     0.0000     2.0556 </r>
       <r>    -8.0143    -0.0048     2.0550 </r>
       <r>    -7.8906     0.4039     2.1049 </r>
       <r>    -7.7669     1.4092     2.2792 </r>
       <r>    -7.6432    -0.0116     2.2778 </r>
       <r>    -7.5195     0.0000     2.2778 </r>
       <r>    -7.3959     0.0000     2.2778 </r>
       <r>    -7.2722     0.0000     2.2778 </r>
       <r>    -7.1485     0.0000     2.2778 </r>
       <r>    -7.0248     0.0000     2.2778 </r>
       <r>    -6.9011     0.0000     2.2778 </r>
       <r>    -6.7774    -0.0421     2.2726 </r>
       <r>    -6.6537     3.0411     2.6487 </r>
       <r>    -6.5300     2.4427     2.9508 </r>
       <r>    -6.4064    -0.0517     2.9444 </r>
       <r>    -6.2827     0.0000     2.9444 </r>
       <r>    -6.1590     0.0000     2.9444 </r>
       <r>    -6.0353     0.0000     2.9444 </r>
       <r>    -5.9116    -0.0258     2.9413 </r>
       <r>    -5.7879     0.9461     3.0583 </r>
       <r>    -5.6642    -0.0220     3.0556 </r>
       <r>    -5.5405     0.0000     3.0556 </r>
       <r>    -5.4169     0.0000     3.0556 </r>
       <r>    -5.2932     0.0000     3.0556 </r>
       <r>    -5.1695     0.0000     3.0556 </r>
       <r>    -5.0458    -0.0068     3.0547 </r>
       <r>    -4.9221     0.8081     3.1547 </r>
       <r>    -4.7984     1.8451     3.3829 </r>
       <r>    -4.6747     0.0486     3.3889 </r>
       <r>    -4.5510    -0.0001     3.3889 </r>
       <r>    -4.4274     0.0000     3.3889 </r>
       <r>    -4.3037     0.0000     3.3889 </r>
       <r>    -4.1800     0.0000     3.3889 </r>
       <r>    -4.0563     0.0000     3.3889 </r>
       <r>    -3.9326     0.0000     3.3889 </r>
       <r>    -3.8089     0.0094     3.3901 </r>
       <r>    -3.6852     0.0624     3.3978 </r>
       <r>    -3.5615     0.0406     3.4028 </r>
       <r>    -3.4379    -0.0278     3.3994 </r>
       <r>    -3.3142     2.4918     3.7076 </r>
       <r>    -3.1905     3.0495     4.0847 </r>
       <r>    -3.0668    -0.0423     4.0795 </r>
       <r>    -2.9431     2.9520     4.4446 </r>
       <r>    -2.8194     0.5025     4.5068 </r>
       <r>    -2.6957    -0.0180     4.5045 </r>
       <r>    -2.5720     0.2357     4.5337 </r>
       <r>    -2.4484     0.2124     4.5600 </r>
       <r>    -2.3247     0.0790     4.5697 </r>
       <r>    -2.2010    -0.0137     4.5680 </r>
       <r>    -2.0773     0.4662     4.6257 </r>
       <r>    -1.9536     0.0630     4.6335 </r>
       <r>    -1.8299     0.0194     4.6359 </r>
       <r>    -1.7062     0.2973     4.6727 </r>
       <r>    -1.5825     4.3021     5.2048 </r>
       <r>    -1.4589    -0.0801     5.1949 </r>
       <r>    -1.3352     0.3295     5.2357 </r>
       <r>    -1.2115     0.6929     5.3214 </r>
       <r>    -1.0878     0.1216     5.3364 </r>
       <r>    -0.9641     3.4146     5.7587 </r>
       <r>    -0.8404    -0.0706     5.7500 </r>
       <r>    -0.7167    -0.0053     5.7494 </r>
       <r>    -0.5930     1.2205     5.9003 </r>
       <r>    -0.4694     2.6429     6.2272 </r>
       <r>    -0.3457    -0.0488     6.2212 </r>
       <r>    -0.2220     0.4575     6.2778 </r>
       <r>    -0.0983     0.4582     6.3344 </r>
       <r>     0.0254    -0.0196     6.3320 </r>
       <r>     0.1491     0.4519     6.3879 </r>
       <r>     0.2728     0.4640     6.4453 </r>
       <r>     0.3965     0.1924     6.4691 </r>
       <r>     0.5201     0.0370     6.4737 </r>
       <r>     0.6438     3.1510     6.8634 </r>
       <r>     0.7675    -0.0195     6.8610 </r>
       <r>     0.8912     0.2549     6.8925 </r>
       <r>     1.0149     0.2783     6.9270 </r>
       <r>     1.1386     0.1419     6.9445 </r>
       <r>     1.2623    -0.0006     6.9444 </r>
       <r>     1.3860    -0.0157     6.9425 </r>
       <r>     1.5096     0.7001     7.0291 </r>
       <r>     1.6333     0.6576     7.1104 </r>
       <r>     1.7570     1.2141     7.2606 </r>
       <r>     1.8807     0.5872     7.3332 </r>
       <r>     2.0044     0.1337     7.3498 </r>
       <r>     2.1281     1.0891     7.4845 </r>
       <r>     2.2518     0.2455     7.5148 </r>
       <r>     2.3754     0.0229     7.5177 </r>
       <r>     2.4991     1.1166     7.6558 </r>
       <r>     2.6228     0.1771     7.6777 </r>
       <r>     2.7465     1.2781     7.8358 </r>
       <r>     2.8702     0.4418     7.8904 </r>
       <r>     2.9939    -0.0124     7.8889 </r>
       <r>     3.1176     0.0000     7.8889 </r>
       <r>     3.2413     0.0000     7.8889 </r>
       <r>     3.3649     0.0000     7.8889 </r>
       <r>     3.4886     0.0000     7.8889 </r>
       <r>     3.6123     0.0000     7.8889 </r>
       <r>     3.7360     0.0000     7.8889 </r>
       <r>     3.8597     0.0000     7.8889 </r>
       <r>     3.9834    -0.0020     7.8886 </r>
       <r>     4.1071     0.1372     7.9056 </r>
       <r>     4.2308     0.0888     7.9166 </r>
       <r>     4.3544     0.1224     7.9317 </r>
       <r>     4.4781     0.0279     7.9352 </r>
       <r>     4.6018    -0.0049     7.9346 </r>
       <r>     4.7255     0.1585     7.9542 </r>
       <r>     4.8492     0.3587     7.9986 </r>
       <r>     4.9729     0.5480     8.0663 </r>
       <r>     5.0966     0.1394     8.0836 </r>
       <r>     5.2203    -0.0069     8.0827 </r>
       <r>     5.3439     0.1633     8.1029 </r>
       <r>     5.4676     0.0674     8.1112 </r>
       <r>     5.5913    -0.0011     8.1111 </r>
       <r>     5.7150     0.0000     8.1111 </r>
       <r>     5.8387     0.0000     8.1111 </r>
       <r>     5.9624     0.0000     8.1111 </r>
       <r>     6.0861     0.0000     8.1111 </r>
       <r>     6.2098     0.0319     8.1151 </r>
       <r>     6.3334     0.5366     8.1814 </r>
       <r>     6.4571     0.2129     8.2078 </r>
       <r>     6.5808    -0.0006     8.2077 </r>
       <r>     6.7045     0.2316     8.2363 </r>
       <r>     6.8282    -0.0102     8.2351 </r>
       <r>     6.9519     0.4533     8.2911 </r>
       <r>     7.0756     1.3315     8.4558 </r>
       <r>     7.1993     0.8044     8.5553 </r>
       <r>     7.3229     0.8506     8.6605 </r>
       <r>     7.4466     0.0314     8.6644 </r>
       <r>     7.5703     0.9250     8.7788 </r>
       <r>     7.6940     0.9475     8.8960 </r>
       <r>     7.8177     0.3945     8.9448 </r>
       <r>     7.9414    -0.0030     8.9444 </r>
       <r>     8.0651     0.0000     8.9444 </r>
       <r>     8.1888     0.0000     8.9444 </r>
       <r>     8.3124     0.0000     8.9444 </r>
       <r>     8.4361     0.0000     8.9444 </r>
       <r>     8.5598     0.0000     8.9444 </r>
       <r>     8.6835     0.0000     8.9444 </r>
       <r>     8.8072     0.0000     8.9444 </r>
       <r>     8.9309    -0.0009     8.9443 </r>
       <r>     9.0546     0.0389     8.9491 </r>
       <r>     9.1783    -0.0012     8.9490 </r>
       <r>     9.3019     0.1690     8.9699 </r>
       <r>     9.4256     0.5794     9.0416 </r>
       <r>     9.5493     0.4621     9.0987 </r>
       <r>     9.6730     0.0897     9.1098 </r>
       <r>     9.7967     0.4043     9.1598 </r>
       <r>     9.9204     0.2499     9.1907 </r>
       <r>    10.0441     0.3595     9.2352 </r>
       <r>    10.1678     0.8290     9.3377 </r>
       <r>    10.2914     0.3419     9.3800 </r>
       <r>    10.4151     0.0343     9.3843 </r>
       <r>    10.5388    -0.0001     9.3843 </r>
       <r>    10.6625     0.0000     9.3843 </r>
       <r>    10.7862     0.0000     9.3843 </r>
       <r>    10.9099    -0.0075     9.3833 </r>
[...]
       </set>
       <set comment="band 10">
        <r>  0.0000  0.0000  0.2313  0.0000  0.0000  0.0000  0.0000  0.0000  0.0000 </r>
        <r>  0.0000  0.0000  0.2096  0.0000  0.0000  0.0000  0.0000  0.0000  0.0000 </r>
        <r>  0.0001  0.0003  0.0000  0.0008  0.0000  0.0000  0.0000  0.0000  0.0000 </r>
        <r>  0.0016  0.0000  0.0000  0.0000  0.0000  0.0000  0.0000  0.0000  0.0000 </r>
       </set>
       <set comment="band 11">
        <r>  0.0000  0.0000  0.0000  0.0000  0.0000  0.0000  0.0000  0.0000  0.0000 </r>
        <r>  0.0000  0.0000  0.0000  0.0000  0.0000  0.0000  0.0000  0.0000  0.0000 </r>
        <r>  0.1850  0.0100  0.0000  0.0301  0.0000  0.0000  0.0000  0.0000  0.0000 </r>
        <r>  0.1842  0.0100  0.0000  0.0301  0.0000  0.0000  0.0000  0.0000  0.0000 </r>
       </set>
       <set comment="band 12">
        <r>  0.1842  0.0100  0.0000  0.0301  0.0000  0.0000  0.0000  0.0000  0.0000 </r>
        <r>  0.1850  0.0100  0.0000  0.0301  0.0000  0.0000  0.0000  0.0000  0.0000 </r>
        <r>  0.0000  0.0000  0.0000  0.0000  0.0000  0.0000  0.0000  0.0000  0.0000 </r>
        <r>  0.0000  0.0000  0.0000  0.0000  0.0000  0.0000  0.0000  0.0000  0.0000 </r>
       </set>
       <set comment="band 13">
        <r>  0.0050  0.0009  0.0404  0.0026  0.0000  0.0000  0.0000  0.0000  0.0000 </r>
        <r>  0.0004  0.0054  0.0489  0.0163  0.0000  0.0000  0.0000  0.0000  0.0000 </r>
        <r>  0.0004  0.0055  0.0480  0.0166  0.0000  0.0000  0.0000  0.0000  0.0000 </r>
        <r>  0.0051  0.0009  0.0396  0.0026  0.0000  0.0000  0.0000  0.0000  0.0000 </r>
       </set>
       <set comment="band 14">
        <r>  0.0051  0.0009  0.0396  0.0026  0.0000  0.0000  0.0000  0.0000  0.0000 </r>
        <r>  0.0004  0.0055  0.0480  0.0166  0.0000  0.0000  0.0000  0.0000  0.0000 </r>
        <r>  0.0004  0.0054  0.0489  0.0163  0.0000  0.0000  0.0000  0.0000  0.0000 </r>
        <r>  0.0050  0.0009  0.0404  0.0026  0.0000  0.0000  0.0000  0.0000  0.0000 </r>
       </set>
      </set>
      <set comment="kpoint 26">
       <set comment="band 1">
        <r>  0.0000  0.0000  0.0000  0.0000  0.0000  0.0000  0.0000  0.0000  0.0000 </r>
        <r>  0.0000  0.0000  0.0000  0.0000  0.0000  0.0000  0.0000  0.0000  0.0000 </r>
        <r>  0.2948  0.0304  0.0000  0.0102  0.0000  0.0000  0.0000  0.0000  0.0000 </r>
        <r>  0.2910  0.0307  0.0000  0.0103  0.0000  0.0000  0.0000  0.0000  0.0000 </r>
       </set>
       <set comment="band 2">
        <r>  0.2910  0.0307  0.0000  0.0103  0.0000  0.0000  0.0000  0.0000  0.0000 </r>
        <r>  0.2948  0.0304  0.0000  0.0102  0.0000  0.0000  0.0000  0.0000  0.0000 </r>
        <r>  0.0000  0.0000  0.0000  0.0000  0.0000  0.0000  0.0000  0.0000  0.0000 </r>
        <r>  0.0000  0.0000  0.0000  0.0000  0.0000  0.0000  0.0000  0.0000  0.0000 </r>
       </set>
       <set comment="band 3">
        <r>  0.1218  0.1758  0.0000  0.0898  0.0000  0.0000  0.0000  0.0000  0.0000 </r>
        <r>  0.1210  0.1791  0.0000  0.0897  0.0000  0.0000  0.0000  0.0000  0.0000 </r>
        <r>  0.0000  0.0000  0.0000  0.0000  0.0000  0.0000  0.0000  0.0000  0.0000 </r>
        <r>  0.0000  0.0000  0.0000  0.0000  0.0000  0.0000  0.0000  0.0000  0.0000 </r>
       </set>
       <set comment="band 4">
        <r>  0.0000  0.0000  0.0000  0.0000  0.0000  0.0000  0.0000  0.0000  0.0000 </r>
        <r>  0.0000  0.0000  0.0000  0.0000  0.0000  0.0000  0.0000  0.0000  0.0000 </r>
        <r>  0.1210  0.1791  0.0000  0.0897  0.0000  0.0000  0.0000  0.0000  0.0000 </r>
        <r>  0.1218  0.1758  0.0000  0.0898  0.0000  0.0000  0.0000  0.0000  0.0000 </r>
       </set>
       <set comment="band 5">
        <r>  0.0134  0.1213  0.0000  0.2382  0.0000  0.0000  0.0000  0.0000  0.0000 </r>
        <r>  0.0127  0.1205  0.0000  0.2407  0.0000  0.0000  0.0000  0.0000  0.0000 </r>
        <r>  0.0000  0.0000  0.0000  0.0000  0.0000  0.0000  0.0000  0.0000  0.0000 </r>
        <r>  0.0000  0.0000  0.0000  0.0000  0.0000  0.0000  0.0000  0.0000  0.0000 </r>
       </set>
       <set comment="band 6">
        <r>  0.0000  0.0000  0.0000  0.0000  0.0000  0.0000  0.0000  0.0000  0.0000 </r>
        <r>  0.0000  0.0000  0.0000  0.0000  0.0000  0.0000  0.0000  0.0000  0.0000 </r>
        <r>  0.0127  0.1205  0.0000  0.2407  0.0000  0.0000  0.0000  0.0000  0.0000 </r>
        <r>  0.0134  0.1213  0.0000  0.2382  0.0000  0.0000  0.0000  0.0000  0.0000 </r>
       </set>
       <set comment="band 7">
        <r>  0.0010  0.0004  0.0000  0.0001  0.0000  0.0000  0.0000  0.0000  0.0000 </r>
        <r>  0.0015  0.0001  0.0000  0.0000  0.0000  0.0000  0.0000  0.0000  0.0000 </r>
        <r>  0.0000  0.0000  0.2288  0.0000  0.0000  0.0000  0.0000  0.0000  0.0000 </r>
        <r>  0.0000  0.0000  0.2189  0.0000  0.0000  0.0000  0.0000  0.0000  0.0000 </r>
       </set>
       <set comment="band 8">
        <r>  0.0000  0.0000  0.2189  0.0000  0.0000  0.0000  0.0000  0.0000  0.0000 </r>
        <r>  0.0000  0.0000  0.2288  0.0000  0.0000  0.0000  0.0000  0.0000  0.0000 </r>
        <r>  0.0015  0.0001  0.0000  0.0000  0.0000  0.0000  0.0000  0.0000  0.0000 </r>
        <r>  0.0010  0.0004  0.0000  0.0001  0.0000  0.0000  0.0000  0.0000  0.0000 </r>
       </set>
       <set comment="band 9">
        <r>  0.0000  0.0006  0.0000  0.0010  0.0000  0.0000  0.0000  0.0000  0.0000 </r>
        <r>  0.0001  0.0001  0.0000  0.0003  0.0000  0.0000  0.0000  0.0000  0.0000 </r>
        <r>  0.0000  0.0000  0.2991  0.0000  0.0000  0.0000  0.0000  0.0000  0.0000 </r>
        <r>  0.0000  0.0000  0.3047  0.0000  0.0000  0.0000  0.0000  0.0000  0.0000 </r>
       </set>
       <set comment="band 10">
        <r>  0.0000  0.0000  0.3047  0.0000  0.0000  0.0000  0.0000  0.0000  0.0000 </r>
        <r>  0.0000  0.0000  0.2991  0.0000  0.0000  0.0000  0.0000  0.0000  0.0000 </r>
        <r>  0.0001  0.0001  0.0000  0.0003  0.0000  0.0000  0.0000  0.0000  0.0000 </r>
        <r>  0.0000  0.0006  0.0000  0.0010  0.0000  0.0000  0.0000  0.0000  0.0000 </r>
       </set>
       <set comment="band 11">
        <r>  0.0062  0.0208  0.0000  0.0129  0.0000  0.0000  0.0000  0.0000  0.0000 </r>
        <r>  0.0073  0.0236  0.0001  0.0150  0.0000  0.0000  0.0000  0.0000  0.0000 </r>
        <r>  0.0000  0.0000  0.0618  0.0000  0.0000  0.0000  0.0000  0.0000  0.0000 </r>
        <r>  0.0000  0.0000  0.0490  0.0000  0.0000  0.0000  0.0000  0.0000  0.0000 </r>
       </set>
       <set comment="band 12">
        <r>  0.0000  0.0000  0.0490  0.0000  0.0000  0.0000  0.0000  0.0000  0.0000 </r>
        <r>  0.0000  0.0000  0.0618  0.0000  0.0000  0.0000  0.0000  0.0000  0.0000 </r>
        <r>  0.0073  0.0236  0.0001  0.0150  0.0000  0.0000  0.0000  0.0000  0.0000 </r>
        <r>  0.0062  0.0208  0.0000  0.0129  0.0000  0.0000  0.0000  0.0000  0.0000 </r>
       </set>
       <set comment="band 13">
        <r>  0.0532  0.0722  0.0000  0.0914  0.0000  0.0000  0.0000  0.0000  0.0000 </r>
        <r>  0.0562  0.0691  0.0000  0.0878  0.0000  0.0000  0.0000  0.0000  0.0000 </r>
        <r>  0.0000  0.0000  0.0007  0.0000  0.0000  0.0000  0.0000  0.0000  0.0000 </r>
        <r>  0.0000  0.0000  0.0145  0.0000  0.0000  0.0000  0.0000  0.0000  0.0000 </r>
       </set>
       <set comment="band 14">
        <r>  0.0000  0.0000  0.0145  0.0000  0.0000  0.0000  0.0000  0.0000  0.0000 </r>
        <r>  0.0000  0.0000  0.0007  0.0000  0.0000  0.0000  0.0000  0.0000  0.0000 </r>
        <r>  0.0562  0.0691  0.0000  0.0878  0.0000  0.0000  0.0000  0.0000  0.0000 </r>
        <r>  0.0532  0.0722  0.0000  0.0914  0.0000  0.0000  0.0000  0.0000  0.0000 </r>
       </set>
      </set>
      <set comment="kpoint 27">
       <set comment="band 1">
        <r>  0.0000  0.0000  0.0000  0.0000  0.0000  0.0000  0.0000  0.0000  0.0000 </r>
        <r>  0.0000  0.0000  0.0000  0.0000  0.0000  0.0000  0.0000  0.0000  0.0000 </r>
        <r>  0.2662  0.0491  0.0000  0.0362  0.0000  0.0000  0.0000  0.0000  0.0000 </r>
        <r>  0.2586  0.0501  0.0000  0.0374  0.0000  0.0000  0.0000  0.0000  0.0000 </r>
       </set>
       <set comment="band 2">
        <r>  0.2586  0.0501  0.0000  0.0374  0.0000  0.0000  0.0000  0.0000  0.0000 </r>
        <r>  0.2662  0.0491  0.0000  0.0362  0.0000  0.0000  0.0000  0.0000  0.0000 </r>
        <r>  0.0000  0.0000  0.0000  0.0000  0.0000  0.0000  0.0000  0.0000  0.0000 </r>
        <r>  0.0000  0.0000  0.0000  0.0000  0.0000  0.0000  0.0000  0.0000  0.0000 </r>
       </set>
       <set comment="band 3">
        <r>  0.0000  0.0000  0.0000  0.0000  0.0000  0.0000  0.0000  0.0000  0.0000 </r>
        <r>  0.0000  0.0000  0.0000  0.0000  0.0000  0.0000  0.0000  0.0000  0.0000 </r>
        <r>  0.1689  0.0307  0.0000  0.1621  0.0000  0.0000  0.0000  0.0000  0.0000 </r>
        <r>  0.1730  0.0289  0.0000  0.1598  0.0000  0.0000  0.0000  0.0000  0.0000 </r>
       </set>
       <set comment="band 4">
        <r>  0.1730  0.0289  0.0000  0.1598  0.0000  0.0000  0.0000  0.0000  0.0000 </r>
        <r>  0.1689  0.0307  0.0000  0.1621  0.0000  0.0000  0.0000  0.0000  0.0000 </r>
        <r>  0.0000  0.0000  0.0000  0.0000  0.0000  0.0000  0.0000  0.0000  0.0000 </r>
        <r>  0.0000  0.0000  0.0000  0.0000  0.0000  0.0000  0.0000  0.0000  0.0000 </r>
       </set>
       <set comment="band 5">
        <r>  0.0382  0.2379  0.0000  0.0912  0.0000  0.0000  0.0000  0.0000  0.0000 </r>
        <r>  0.0372  0.2389  0.0000  0.0921  0.0000  0.0000  0.0000  0.0000  0.0000 </r>
        <r>  0.0000  0.0000  0.0000  0.0000  0.0000  0.0000  0.0000  0.0000  0.0000 </r>
        <r>  0.0000  0.0000  0.0000  0.0000  0.0000  0.0000  0.0000  0.0000  0.0000 </r>
       </set>
       <set comment="band 6">
        <r>  0.0000  0.0000  0.0000  0.0000  0.0000  0.0000  0.0000  0.0000  0.0000 </r>
        <r>  0.0000  0.0000  0.0000  0.0000  0.0000  0.0000  0.0000  0.0000  0.0000 </r>
        <r>  0.0372  0.2389  0.0000  0.0921  0.0000  0.0000  0.0000  0.0000  0.0000 </r>
        <r>  0.0382  0.2379  0.0000  0.0912  0.0000  0.0000  0.0000  0.0000  0.0000 </r>
       </set>
       <set comment="band 7">
        <r>  0.0004  0.0004  0.0000  0.0004  0.0000  0.0000  0.0000  0.0000  0.0000 </r>
        <r>  0.0008  0.0002  0.0000  0.0001  0.0000  0.0000  0.0000  0.0000  0.0000 </r>
        <r>  0.0000  0.0000  0.2539  0.0000  0.0000  0.0000  0.0000  0.0000  0.0000 </r>
        <r>  0.0000  0.0000  0.2326  0.0000  0.0000  0.0000  0.0000  0.0000  0.0000 </r>
       </set>
       <set comment="band 8">
        <r>  0.0000  0.0000  0.2326  0.0000  0.0000  0.0000  0.0000  0.0000  0.0000 </r>
        <r>  0.0000  0.0000  0.2539  0.0000  0.0000  0.0000  0.0000  0.0000  0.0000 </r>
        <r>  0.0008  0.0002  0.0000  0.0001  0.0000  0.0000  0.0000  0.0000  0.0000 </r>
        <r>  0.0004  0.0004  0.0000  0.0004  0.0000  0.0000  0.0000  0.0000  0.0000 </r>
       </set>
       <set comment="band 9">
        <r>  0.0004  0.0002  0.0000  0.0005  0.0000  0.0000  0.0000  0.0000  0.0000 </r>
        <r>  0.0001  0.0001  0.0000  0.0005  0.0000  0.0000  0.0000  0.0000  0.0000 </r>
        <r>  0.0000  0.0000  0.2496  0.0000  0.0000  0.0000  0.0000  0.0000  0.0000 </r>
        <r>  0.0000  0.0000  0.2673  0.0000  0.0000  0.0000  0.0000  0.0000  0.0000 </r>
       </set>
       <set comment="band 10">
        <r>  0.0000  0.0000  0.2673  0.0000  0.0000  0.0000  0.0000  0.0000  0.0000 </r>
        <r>  0.0000  0.0000  0.2496  0.0000  0.0000  0.0000  0.0000  0.0000  0.0000 </r>
        <r>  0.0001  0.0001  0.0000  0.0005  0.0000  0.0000  0.0000  0.0000  0.0000 </r>
        <r>  0.0004  0.0002  0.0000  0.0005  0.0000  0.0000  0.0000  0.0000  0.0000 </r>
       </set>
       <set comment="band 11">
        <r>  0.0000  0.0000  0.0016  0.0000  0.0000  0.0000  0.0000  0.0000  0.0000 </r>
        <r>  0.0000  0.0000  0.0034  0.0000  0.0000  0.0000  0.0000  0.0000  0.0000 </r>
        <r>  0.1094  0.0610  0.0000  0.0756  0.0000  0.0000  0.0000  0.0000  0.0000 </r>
        <r>  0.0990  0.0489  0.0000  0.0670  0.0000  0.0000  0.0000  0.0000  0.0000 </r>
       </set>
       <set comment="band 12">
        <r>  0.0990  0.0489  0.0000  0.0670  0.0000  0.0000  0.0000  0.0000  0.0000 </r>
        <r>  0.1094  0.0610  0.0000  0.0756  0.0000  0.0000  0.0000  0.0000  0.0000 </r>
        <r>  0.0000  0.0000  0.0034  0.0000  0.0000  0.0000  0.0000  0.0000  0.0000 </r>
        <r>  0.0000  0.0000  0.0016  0.0000  0.0000  0.0000  0.0000  0.0000  0.0000 </r>
       </set>
       <set comment="band 13">
        <r>  0.0309  0.0215  0.0004  0.0049  0.0000  0.0000  0.0000  0.0000  0.0000 </r>
        <r>  0.0165  0.0085  0.0004  0.0029  0.0000  0.0000  0.0000  0.0000  0.0000 </r>
        <r>  0.0001  0.0001  0.0546  0.0000  0.0000  0.0000  0.0000  0.0000  0.0000 </r>
        <r>  0.0002  0.0001  0.0532  0.0000  0.0000  0.0000  0.0000  0.0000  0.0000 </r>
       </set>
       <set comment="band 14">
        <r>  0.0002  0.0001  0.0532  0.0000  0.0000  0.0000  0.0000  0.0000  0.0000 </r>
        <r>  0.0001  0.0001  0.0546  0.0000  0.0000  0.0000  0.0000  0.0000  0.0000 </r>
        <r>  0.0165  0.0085  0.0004  0.0029  0.0000  0.0000  0.0000  0.0000  0.0000 </r>
        <r>  0.0309  0.0215  0.0004  0.0049  0.0000  0.0000  0.0000  0.0000  0.0000 </r>
       </set>
      </set>
      <set comment="kpoint 28">
       <set comment="band 1">
        <r>  0.0000  0.0000  0.0000  0.0000  0.0000  0.0000  0.0000  0.0000  0.0000 </r>
        <r>  0.0000  0.0000  0.0001  0.0000  0.0000  0.0000  0.0000  0.0000  0.0000 </r>
        <r>  0.5019  0.0000  0.0000  0.0000  0.0000  0.0000  0.0000  0.0000  0.0000 </r>
        <r>  0.0000  0.1215  0.0000  0.1215  0.0000  0.0000  0.0000  0.0000  0.0000 </r>
       </set>
       <set comment="band 2">
        <r>  0.0000  0.1215  0.0000  0.1215  0.0000  0.0000  0.0000  0.0000  0.0000 </r>
        <r>  0.5019  0.0000  0.0000  0.0000  0.0000  0.0000  0.0000  0.0000  0.0000 </r>
        <r>  0.0000  0.0000  0.0001  0.0000  0.0000  0.0000  0.0000  0.0000  0.0000 </r>
        <r>  0.0000  0.0000  0.0000  0.0000  0.0000  0.0000  0.0000  0.0000  0.0000 </r>
       </set>
       <set comment="band 3">
        <r>  0.0000  0.0000  0.0000  0.0000  0.0000  0.0000  0.0000  0.0000  0.0000 </r>
        <r>  0.0000  0.0000  0.0000  0.0000  0.0000  0.0000  0.0000  0.0000  0.0000 </r>
        <r>  0.0000  0.1228  0.0000  0.1228  0.0000  0.0000  0.0000  0.0000  0.0000 </r>
        <r>  0.4996  0.0000  0.0000  0.0000  0.0000  0.0000  0.0000  0.0000  0.0000 </r>
       </set>
       <set comment="band 4">
        <r>  0.4996  0.0000  0.0000  0.0000  0.0000  0.0000  0.0000  0.0000  0.0000 </r>
        <r>  0.0000  0.1228  0.0000  0.1228  0.0000  0.0000  0.0000  0.0000  0.0000 </r>
        <r>  0.0000  0.0000  0.0000  0.0000  0.0000  0.0000  0.0000  0.0000  0.0000 </r>
        <r>  0.0000  0.0000  0.0000  0.0000  0.0000  0.0000  0.0000  0.0000  0.0000 </r>
       </set>
       <set comment="band 5">
        <r>  0.0000  0.1607  0.0000  0.1607  0.0000  0.0000  0.0000  0.0000  0.0000 </r>
        <r>  0.0000  0.1613  0.0000  0.1613  0.0000  0.0000  0.0000  0.0000  0.0000 </r>
        <r>  0.0000  0.0000  0.0000  0.0000  0.0000  0.0000  0.0000  0.0000  0.0000 </r>
        <r>  0.0000  0.0000  0.0001  0.0000  0.0000  0.0000  0.0000  0.0000  0.0000 </r>
       </set>
       <set comment="band 6">
        <r>  0.0000  0.0000  0.0001  0.0000  0.0000  0.0000  0.0000  0.0000  0.0000 </r>
        <r>  0.0000  0.0000  0.0000  0.0000  0.0000  0.0000  0.0000  0.0000  0.0000 </r>
        <r>  0.0000  0.1613  0.0000  0.1613  0.0000  0.0000  0.0000  0.0000  0.0000 </r>
        <r>  0.0000  0.1607  0.0000  0.1607  0.0000  0.0000  0.0000  0.0000  0.0000 </r>
       </set>
       <set comment="band 7">
        <r>  0.0000  0.0005  0.0000  0.0005  0.0000  0.0000  0.0000  0.0000  0.0000 </r>
        <r>  0.0006  0.0000  0.0000  0.0000  0.0000  0.0000  0.0000  0.0000  0.0000 </r>
        <r>  0.0000  0.0000  0.5233  0.0000  0.0000  0.0000  0.0000  0.0000  0.0000 </r>
        <r>  0.0000  0.0000  0.0000  0.0000  0.0000  0.0000  0.0000  0.0000  0.0000 </r>
       </set>
       <set comment="band 8">
        <r>  0.0000  0.0000  0.0000  0.0000  0.0000  0.0000  0.0000  0.0000  0.0000 </r>
        <r>  0.0000  0.0000  0.5233  0.0000  0.0000  0.0000  0.0000  0.0000  0.0000 </r>
        <r>  0.0006  0.0000  0.0000  0.0000  0.0000  0.0000  0.0000  0.0000  0.0000 </r>
        <r>  0.0000  0.0005  0.0000  0.0005  0.0000  0.0000  0.0000  0.0000  0.0000 </r>
       </set>
       <set comment="band 9">
        <r>  0.0000  0.0004  0.0000  0.0004  0.0000  0.0000  0.0000  0.0000  0.0000 </r>
        <r>  0.0000  0.0004  0.0000  0.0004  0.0000  0.0000  0.0000  0.0000  0.0000 </r>
        <r>  0.0000  0.0000  0.0000  0.0000  0.0000  0.0000  0.0000  0.0000  0.0000 </r>
        <r>  0.0000  0.0000  0.5207  0.0000  0.0000  0.0000  0.0000  0.0000  0.0000 </r>
       </set>
       <set comment="band 10">
        <r>  0.0000  0.0000  0.5207  0.0000  0.0000  0.0000  0.0000  0.0000  0.0000 </r>
        <r>  0.0000  0.0000  0.0000  0.0000  0.0000  0.0000  0.0000  0.0000  0.0000 </r>
        <r>  0.0000  0.0004  0.0000  0.0004  0.0000  0.0000  0.0000  0.0000  0.0000 </r>
        <r>  0.0000  0.0004  0.0000  0.0004  0.0000  0.0000  0.0000  0.0000  0.0000 </r>
       </set>
       <set comment="band 11">
        <r>  0.0000  0.0000  0.0000  0.0000  0.0000  0.0000  0.0000  0.0000  0.0000 </r>
        <r>  0.0000  0.0002  0.0000  0.0002  0.0000  0.0000  0.0000  0.0000  0.0000 </r>
        <r>  0.0000  0.0212  0.0000  0.0212  0.0000  0.0000  0.0000  0.0000  0.0000 </r>
        <r>  0.0000  0.0000  0.0000  0.0000  0.0000  0.0000  0.0000  0.0000  0.0000 </r>
       </set>
       <set comment="band 12">
        <r>  0.0000  0.0000  0.0000  0.0000  0.0000  0.0000  0.0000  0.0000  0.0000 </r>
        <r>  0.0000  0.0212  0.0000  0.0212  0.0000  0.0000  0.0000  0.0000  0.0000 </r>
        <r>  0.0000  0.0002  0.0000  0.0002  0.0000  0.0000  0.0000  0.0000  0.0000 </r>
        <r>  0.0000  0.0000  0.0000  0.0000  0.0000  0.0000  0.0000  0.0000  0.0000 </r>
       </set>
       <set comment="band 13">
        <r>  0.0000  0.1786  0.0000  0.1786  0.0000  0.0000  0.0000  0.0000  0.0000 </r>
        <r>  0.0527  0.0000  0.0025  0.0000  0.0000  0.0000  0.0000  0.0000  0.0000 </r>
        <r>  0.0045  0.0000  0.0287  0.0000  0.0000  0.0000  0.0000  0.0000  0.0000 </r>
        <r>  0.0000  0.0153  0.0000  0.0153  0.0000  0.0000  0.0000  0.0000  0.0000 </r>
       </set>
       <set comment="band 14">
        <r>  0.0000  0.0154  0.0000  0.0153  0.0000  0.0000  0.0000  0.0000  0.0000 </r>
        <r>  0.0045  0.0000  0.0287  0.0000  0.0000  0.0000  0.0000  0.0000  0.0000 </r>
        <r>  0.0527  0.0000  0.0025  0.0000  0.0000  0.0000  0.0000  0.0000  0.0000 </r>
        <r>  0.0000  0.1785  0.0000  0.1787  0.0000  0.0000  0.0000  0.0000  0.0000 </r>
       </set>
      </set>
     </set>
    </set>
   </array>
  </projected>
 </calculation>
 <structure name="finalpos" >
  <crystal>
   <varray name="basis" >
    <v>       2.46120000       0.00000000       0.00000000 </v>
    <v>      -1.23060000       2.13146172       0.00000000 </v>
    <v>       0.00000000       0.00000000       6.70790000 </v>
   </varray>
   <i name="volume">     35.18933212 </i>
   <varray name="rec_basis" >
    <v>       0.40630587       0.23458080       0.00000000 </v>
    <v>       0.00000000       0.46916160       0.00000000 </v>
    <v>       0.00000000       0.00000000       0.14907795 </v>
   </varray>
  </crystal>
  <varray name="positions" >
   <v>       0.00000000       0.00000000       0.00000000 </v>
   <v>       0.33333333       0.66666667       0.00000000 </v>
   <v>       0.33333333       0.66666667       0.50000000 </v>
   <v>       0.66666667       0.33333333       0.50000000 </v>
  </varray>
 </structure>
</modeling>
