   2   2   0   0
  0.5000000E+03  0.1000000E-08  0.1000000E-08  0.1000000E-08  0.1500000E-16
  1.000000000000000E-004
  CAR 
 unknown system                          
      2.55613352    -30.69558080  301     -8.62475542      1.00000000
    -30.696  0.0000E+00  0.0000E+00
    -30.585  0.0000E+00  0.0000E+00
    -30.474  0.0000E+00  0.0000E+00
    -30.363  0.0000E+00  0.0000E+00
    -30.252  0.0000E+00  0.0000E+00
    -30.141  0.0000E+00  0.0000E+00
    -30.031  0.0000E+00  0.0000E+00
    -29.920  0.0000E+00  0.0000E+00
    -29.809  0.0000E+00  0.0000E+00
    -29.698  0.0000E+00  0.0000E+00
    -29.587  0.0000E+00  0.0000E+00
    -29.476  0.1002E-14  0.1110E-15
    -29.366  0.2614E-05  0.2897E-06
    -29.255  0.4154E+00  0.4604E-01
    -29.144  0.1533E+02  0.1746E+01
    -29.033  0.2294E+01  0.2000E+01
    -28.922  0.1724E-03  0.2000E+01
    -28.811  0.1140E-11  0.2000E+01
    -28.700  0.0000E+00  0.2000E+01
    -28.590  0.0000E+00  0.2000E+01
    -28.479  0.0000E+00  0.2000E+01
    -28.368  0.0000E+00  0.2000E+01
    -28.257  0.0000E+00  0.2000E+01
    -28.146  0.0000E+00  0.2000E+01
    -28.035  0.0000E+00  0.2000E+01
    -27.925  0.0000E+00  0.2000E+01
    -27.814  0.0000E+00  0.2000E+01
    -27.703  0.0000E+00  0.2000E+01
    -27.592  0.0000E+00  0.2000E+01
    -27.481  0.0000E+00  0.2000E+01
    -27.370  0.0000E+00  0.2000E+01
    -27.260  0.0000E+00  0.2000E+01
    -27.149  0.0000E+00  0.2000E+01
    -27.038  0.0000E+00  0.2000E+01
    -26.927  0.0000E+00  0.2000E+01
    -26.816  0.0000E+00  0.2000E+01
    -26.705  0.0000E+00  0.2000E+01
    -26.595  0.0000E+00  0.2000E+01
    -26.484  0.0000E+00  0.2000E+01
    -26.373  0.0000E+00  0.2000E+01
    -26.262  0.0000E+00  0.2000E+01
    -26.151  0.0000E+00  0.2000E+01
    -26.040  0.0000E+00  0.2000E+01
    -25.930  0.0000E+00  0.2000E+01
    -25.819  0.0000E+00  0.2000E+01
    -25.708  0.0000E+00  0.2000E+01
    -25.597  0.0000E+00  0.2000E+01
    -25.486  0.0000E+00  0.2000E+01
    -25.375  0.0000E+00  0.2000E+01
    -25.264  0.0000E+00  0.2000E+01
    -25.154  0.0000E+00  0.2000E+01
    -25.043  0.0000E+00  0.2000E+01
    -24.932  0.0000E+00  0.2000E+01
    -24.821  0.0000E+00  0.2000E+01
    -24.710  0.0000E+00  0.2000E+01
    -24.599  0.0000E+00  0.2000E+01
    -24.489  0.0000E+00  0.2000E+01
    -24.378  0.0000E+00  0.2000E+01
    -24.267  0.0000E+00  0.2000E+01
    -24.156  0.0000E+00  0.2000E+01
    -24.045  0.0000E+00  0.2000E+01
    -23.934  0.0000E+00  0.2000E+01
    -23.824  0.0000E+00  0.2000E+01
    -23.713  0.0000E+00  0.2000E+01
    -23.602  0.0000E+00  0.2000E+01
    -23.491  0.0000E+00  0.2000E+01
    -23.380  0.0000E+00  0.2000E+01
    -23.269  0.0000E+00  0.2000E+01
    -23.159  0.0000E+00  0.2000E+01
    -23.048  0.0000E+00  0.2000E+01
    -22.937  0.0000E+00  0.2000E+01
    -22.826  0.0000E+00  0.2000E+01
    -22.715  0.0000E+00  0.2000E+01
    -22.604  0.0000E+00  0.2000E+01
    -22.493  0.0000E+00  0.2000E+01
    -22.383  0.0000E+00  0.2000E+01
    -22.272  0.0000E+00  0.2000E+01
    -22.161  0.0000E+00  0.2000E+01
    -22.050  0.0000E+00  0.2000E+01
    -21.939  0.0000E+00  0.2000E+01
    -21.828  0.0000E+00  0.2000E+01
    -21.718  0.0000E+00  0.2000E+01
    -21.607  0.0000E+00  0.2000E+01
    -21.496  0.0000E+00  0.2000E+01
    -21.385  0.0000E+00  0.2000E+01
    -21.274  0.0000E+00  0.2000E+01
    -21.163  0.0000E+00  0.2000E+01
    -21.053  0.0000E+00  0.2000E+01
    -20.942  0.0000E+00  0.2000E+01
    -20.831  0.0000E+00  0.2000E+01
    -20.720  0.0000E+00  0.2000E+01
    -20.609  0.0000E+00  0.2000E+01
    -20.498  0.0000E+00  0.2000E+01
    -20.388  0.0000E+00  0.2000E+01
    -20.277  0.0000E+00  0.2000E+01
    -20.166  0.0000E+00  0.2000E+01
    -20.055  0.0000E+00  0.2000E+01
    -19.944  0.0000E+00  0.2000E+01
    -19.833  0.0000E+00  0.2000E+01
    -19.723  0.0000E+00  0.2000E+01
    -19.612  0.0000E+00  0.2000E+01
    -19.501  0.0000E+00  0.2000E+01
    -19.390  0.0000E+00  0.2000E+01
    -19.279  0.0000E+00  0.2000E+01
    -19.168  0.0000E+00  0.2000E+01
    -19.057  0.0000E+00  0.2000E+01
    -18.947  0.0000E+00  0.2000E+01
    -18.836  0.0000E+00  0.2000E+01
    -18.725  0.0000E+00  0.2000E+01
    -18.614  0.0000E+00  0.2000E+01
    -18.503  0.0000E+00  0.2000E+01
    -18.392  0.0000E+00  0.2000E+01
    -18.282  0.0000E+00  0.2000E+01
    -18.171  0.0000E+00  0.2000E+01
    -18.060  0.0000E+00  0.2000E+01
    -17.949  0.0000E+00  0.2000E+01
    -17.838  0.0000E+00  0.2000E+01
    -17.727  0.0000E+00  0.2000E+01
    -17.617  0.0000E+00  0.2000E+01
    -17.506  0.0000E+00  0.2000E+01
    -17.395  0.0000E+00  0.2000E+01
    -17.284  0.0000E+00  0.2000E+01
    -17.173  0.0000E+00  0.2000E+01
    -17.062  0.0000E+00  0.2000E+01
    -16.952  0.0000E+00  0.2000E+01
    -16.841  0.0000E+00  0.2000E+01
    -16.730  0.0000E+00  0.2000E+01
    -16.619  0.0000E+00  0.2000E+01
    -16.508  0.0000E+00  0.2000E+01
    -16.397  0.0000E+00  0.2000E+01
    -16.287  0.0000E+00  0.2000E+01
    -16.176  0.0000E+00  0.2000E+01
    -16.065  0.0000E+00  0.2000E+01
    -15.954  0.0000E+00  0.2000E+01
    -15.843  0.0000E+00  0.2000E+01
    -15.732  0.0000E+00  0.2000E+01
    -15.621  0.0000E+00  0.2000E+01
    -15.511  0.0000E+00  0.2000E+01
    -15.400  0.0000E+00  0.2000E+01
    -15.289  0.0000E+00  0.2000E+01
    -15.178  0.0000E+00  0.2000E+01
    -15.067  0.0000E+00  0.2000E+01
    -14.956  0.0000E+00  0.2000E+01
    -14.846  0.0000E+00  0.2000E+01
    -14.735  0.0000E+00  0.2000E+01
    -14.624  0.0000E+00  0.2000E+01
    -14.513  0.0000E+00  0.2000E+01
    -14.402  0.0000E+00  0.2000E+01
    -14.291  0.0000E+00  0.2000E+01
    -14.181  0.1216E-08  0.2000E+01
    -14.070  0.9146E-02  0.2001E+01
    -13.959  0.7925E+01  0.2879E+01
    -13.848  0.1008E+02  0.3997E+01
    -13.737  0.2573E-01  0.4000E+01
    -13.626  0.8532E-08  0.4000E+01
    -13.516  0.0000E+00  0.4000E+01
    -13.405  0.0000E+00  0.4000E+01
    -13.294  0.0000E+00  0.4000E+01
    -13.183  0.0000E+00  0.4000E+01
    -13.072  0.0000E+00  0.4000E+01
    -12.961  0.0000E+00  0.4000E+01
    -12.850  0.0000E+00  0.4000E+01
    -12.740  0.0000E+00  0.4000E+01
    -12.629  0.0000E+00  0.4000E+01
    -12.518  0.0000E+00  0.4000E+01
    -12.407  0.0000E+00  0.4000E+01
    -12.296  0.0000E+00  0.4000E+01
    -12.185  0.0000E+00  0.4000E+01
    -12.075  0.0000E+00  0.4000E+01
    -11.964  0.0000E+00  0.4000E+01
    -11.853  0.6703E-08  0.4000E+01
    -11.742  0.3148E-01  0.4003E+01
    -11.631  0.1808E+02  0.6007E+01
    -11.520  0.1795E+02  0.7997E+01
    -11.410  0.3054E-01  0.8000E+01
    -11.299  0.6331E-08  0.8000E+01
    -11.188  0.0000E+00  0.8000E+01
    -11.077  0.0000E+00  0.8000E+01
    -10.966  0.0000E+00  0.8000E+01
    -10.855  0.0000E+00  0.8000E+01
    -10.745  0.0000E+00  0.8000E+01
    -10.634  0.0000E+00  0.8000E+01
    -10.523  0.0000E+00  0.8000E+01
    -10.412  0.0000E+00  0.8000E+01
    -10.301  0.0000E+00  0.8000E+01
    -10.190  0.0000E+00  0.8000E+01
    -10.080  0.0000E+00  0.8000E+01
     -9.969  0.0000E+00  0.8000E+01
     -9.858  0.0000E+00  0.8000E+01
     -9.747  0.0000E+00  0.8000E+01
     -9.636  0.0000E+00  0.8000E+01
     -9.525  0.0000E+00  0.8000E+01
     -9.414  0.0000E+00  0.8000E+01
     -9.304  0.0000E+00  0.8000E+01
     -9.193  0.4237E-12  0.8000E+01
     -9.082  0.9534E-04  0.8000E+01
     -8.971  0.1840E+01  0.8204E+01
     -8.860  0.1564E+02  0.9938E+01
     -8.749  0.5613E+00  0.1000E+02
     -8.639  0.5179E-05  0.1000E+02
     -8.528  0.4007E-14  0.1000E+02
     -8.417  0.0000E+00  0.1000E+02
     -8.306  0.0000E+00  0.1000E+02
     -8.195  0.0000E+00  0.1000E+02
     -8.084  0.0000E+00  0.1000E+02
     -7.974  0.0000E+00  0.1000E+02
     -7.863  0.0000E+00  0.1000E+02
     -7.752  0.0000E+00  0.1000E+02
     -7.641  0.0000E+00  0.1000E+02
     -7.530  0.0000E+00  0.1000E+02
     -7.419  0.0000E+00  0.1000E+02
     -7.309  0.0000E+00  0.1000E+02
     -7.198  0.0000E+00  0.1000E+02
     -7.087  0.0000E+00  0.1000E+02
     -6.976  0.0000E+00  0.1000E+02
     -6.865  0.0000E+00  0.1000E+02
     -6.754  0.0000E+00  0.1000E+02
     -6.644  0.0000E+00  0.1000E+02
     -6.533  0.0000E+00  0.1000E+02
     -6.422  0.0000E+00  0.1000E+02
     -6.311  0.0000E+00  0.1000E+02
     -6.200  0.0000E+00  0.1000E+02
     -6.089  0.0000E+00  0.1000E+02
     -5.978  0.0000E+00  0.1000E+02
     -5.868  0.0000E+00  0.1000E+02
     -5.757  0.0000E+00  0.1000E+02
     -5.646  0.0000E+00  0.1000E+02
     -5.535  0.0000E+00  0.1000E+02
     -5.424  0.0000E+00  0.1000E+02
     -5.313  0.0000E+00  0.1000E+02
     -5.203  0.0000E+00  0.1000E+02
     -5.092  0.0000E+00  0.1000E+02
     -4.981  0.0000E+00  0.1000E+02
     -4.870  0.0000E+00  0.1000E+02
     -4.759  0.0000E+00  0.1000E+02
     -4.648  0.0000E+00  0.1000E+02
     -4.538  0.0000E+00  0.1000E+02
     -4.427  0.0000E+00  0.1000E+02
     -4.316  0.0000E+00  0.1000E+02
     -4.205  0.0000E+00  0.1000E+02
     -4.094  0.0000E+00  0.1000E+02
     -3.983  0.0000E+00  0.1000E+02
     -3.873  0.0000E+00  0.1000E+02
     -3.762  0.0000E+00  0.1000E+02
     -3.651  0.0000E+00  0.1000E+02
     -3.540  0.0000E+00  0.1000E+02
     -3.429  0.0000E+00  0.1000E+02
     -3.318  0.0000E+00  0.1000E+02
     -3.207  0.0000E+00  0.1000E+02
     -3.097  0.0000E+00  0.1000E+02
     -2.986  0.0000E+00  0.1000E+02
     -2.875  0.0000E+00  0.1000E+02
     -2.764  0.0000E+00  0.1000E+02
     -2.653  0.0000E+00  0.1000E+02
     -2.542  0.0000E+00  0.1000E+02
     -2.432  0.0000E+00  0.1000E+02
     -2.321  0.0000E+00  0.1000E+02
     -2.210  0.1446E-06  0.1000E+02
     -2.099  0.1526E+00  0.1002E+02
     -1.988  0.2482E+02  0.1277E+02
     -1.877  0.1111E+02  0.1400E+02
     -1.767  0.4980E-02  0.1400E+02
     -1.656  0.2294E-09  0.1400E+02
     -1.545  0.0000E+00  0.1400E+02
     -1.434  0.0000E+00  0.1400E+02
     -1.323  0.0000E+00  0.1400E+02
     -1.212  0.0000E+00  0.1400E+02
     -1.102  0.0000E+00  0.1400E+02
     -0.991  0.0000E+00  0.1400E+02
     -0.880  0.0000E+00  0.1400E+02
     -0.769  0.0000E+00  0.1400E+02
     -0.658  0.0000E+00  0.1400E+02
     -0.547  0.0000E+00  0.1400E+02
     -0.437  0.2931E-07  0.1400E+02
     -0.326  0.4852E-01  0.1401E+02
     -0.215  0.1145E+02  0.1527E+02
     -0.104  0.6539E+01  0.1600E+02
      0.007  0.4415E-02  0.1600E+02
      0.118  0.3208E-09  0.1600E+02
      0.229  0.0000E+00  0.1600E+02
      0.339  0.0000E+00  0.1600E+02
      0.450  0.0000E+00  0.1600E+02
      0.561  0.0000E+00  0.1600E+02
      0.672  0.0000E+00  0.1600E+02
      0.783  0.1140E-11  0.1600E+02
      0.894  0.1724E-03  0.1600E+02
      1.004  0.2294E+01  0.1625E+02
      1.115  0.1533E+02  0.1795E+02
      1.226  0.4154E+00  0.1800E+02
      1.337  0.2614E-05  0.1800E+02
      1.448  0.0000E+00  0.1800E+02
      1.559  0.0000E+00  0.1800E+02
      1.669  0.0000E+00  0.1800E+02
      1.780  0.0000E+00  0.1800E+02
      1.891  0.0000E+00  0.1800E+02
      2.002  0.0000E+00  0.1800E+02
      2.113  0.0000E+00  0.1800E+02
      2.224  0.0000E+00  0.1800E+02
      2.334  0.0000E+00  0.1800E+02
      2.445  0.0000E+00  0.1800E+02
      2.556  0.0000E+00  0.1800E+02
