    2    2    1    1
  0.5000000E+03  0.1000000E-08  0.1000000E-08  0.1000000E-08  0.1500000E-16
  1.000000000000000E-004
  CAR 
 unknown system                          
   10    1    9
 
  0.0000000E+00  0.0000000E+00  0.0000000E+00  0.1000000E+01
   1      -29.184139
   2      -13.953522
   3      -11.631426
   4      -11.631418
   5       -8.926218
   6       -2.006011
   7       -2.006009
   8       -0.227270
   9        1.044692
