       N       E                     dE             d eps       ncg     rms          rms(c)
DAV:   1     0.575673170071E+02    0.57567E+02   -0.23878E+03    26   0.442E+02
DAV:   2    -0.976819605456E+01   -0.67336E+02   -0.67263E+02    27   0.153E+02
DAV:   3    -0.155317845345E+02   -0.57636E+01   -0.57631E+01    35   0.523E+01
DAV:   4    -0.155426304141E+02   -0.10846E-01   -0.10846E-01    28   0.261E+00
DAV:   5    -0.155426420380E+02   -0.11624E-04   -0.11624E-04    28   0.874E-02    0.599E+00
DAV:   6    -0.149565827753E+02    0.58606E+00   -0.29048E+00    18   0.119E+01    0.316E+00
DAV:   7    -0.148358045658E+02    0.12078E+00   -0.55259E-01    27   0.467E+00    0.160E+00
DAV:   8    -0.148005955756E+02    0.35209E-01   -0.12623E-01    18   0.284E+00    0.349E-01
DAV:   9    -0.148002597857E+02    0.33579E-03   -0.62279E-03    20   0.640E-01    0.934E-02
DAV:  10    -0.148010407757E+02   -0.78099E-03   -0.96415E-04    18   0.226E-01    0.307E-02
DAV:  11    -0.148028355222E+02   -0.17947E-02   -0.57248E-04    18   0.131E-01    0.194E-02
DAV:  12    -0.148034730264E+02   -0.63750E-03   -0.92088E-05    19   0.566E-02    0.107E-02
DAV:  13    -0.148045103504E+02   -0.10373E-02   -0.14715E-04    18   0.589E-02    0.530E-03
DAV:  14    -0.148047860122E+02   -0.27566E-03   -0.23780E-05    19   0.238E-02    0.353E-03
DAV:  15    -0.148049607426E+02   -0.17473E-03   -0.13101E-05    20   0.190E-02    0.192E-03
DAV:  16    -0.148049971710E+02   -0.36428E-04   -0.15731E-06    20   0.788E-03    0.931E-04
DAV:  17    -0.148050143588E+02   -0.17188E-04   -0.74208E-07    20   0.488E-03    0.627E-04
DAV:  18    -0.148050194361E+02   -0.50773E-05   -0.26269E-07    18   0.321E-03    0.257E-04
DAV:  19    -0.148050200264E+02   -0.59024E-06   -0.11700E-08    20   0.866E-04    0.174E-04
DAV:  20    -0.148050205591E+02   -0.53271E-06   -0.10656E-08    19   0.778E-04    0.651E-05
DAV:  21    -0.148050206510E+02   -0.91896E-07   -0.11649E-09    19   0.297E-04    0.648E-05
DAV:  22    -0.148050207203E+02   -0.69271E-07   -0.69011E-10    20   0.204E-04    0.250E-05
DAV:  23    -0.148050207399E+02   -0.19630E-07   -0.21636E-10    20   0.131E-04    0.235E-05
DAV:  24    -0.148050207508E+02   -0.10892E-07   -0.10420E-10    20   0.833E-05    0.741E-06
DAV:  25    -0.148050207518E+02   -0.10685E-08    0.89635E-11    20   0.299E-05
   1 F= -.14805021E+02 E0= -.14805021E+02  d E =-.549801E-17
 Found     4 degrees of freedom:
       N       E                     dE             d eps       ncg     rms          rms(c)
DAV:   1    -0.147933974729E+02    0.11623E-01   -0.57315E-01    19   0.718E+00    0.302E-01
DAV:   2    -0.147922108053E+02    0.11867E-02   -0.84811E-03    18   0.836E-01    0.182E-01
DAV:   3    -0.147918995017E+02    0.31130E-03   -0.29083E-03    18   0.480E-01    0.512E-02
DAV:   4    -0.147918809738E+02    0.18528E-04   -0.17595E-04    20   0.102E-01    0.245E-02
DAV:   5    -0.147918986392E+02   -0.17665E-04   -0.23277E-05    18   0.369E-02    0.834E-03
DAV:   6    -0.147919120457E+02   -0.13406E-04   -0.28291E-06    20   0.168E-02    0.209E-03
DAV:   7    -0.147919399919E+02   -0.27946E-04   -0.25712E-06    20   0.891E-03    0.161E-03
DAV:   8    -0.147919613931E+02   -0.21401E-04   -0.11439E-06    20   0.631E-03    0.949E-04
DAV:   9    -0.147919775972E+02   -0.16204E-04   -0.56170E-07    18   0.454E-03    0.382E-04
DAV:  10    -0.147919894171E+02   -0.11820E-04   -0.36592E-07    20   0.316E-03    0.363E-04
DAV:  11    -0.147919937050E+02   -0.42879E-05   -0.73317E-08    18   0.160E-03    0.124E-04
DAV:  12    -0.147919953546E+02   -0.16496E-05   -0.20927E-08    19   0.874E-04    0.538E-05
DAV:  13    -0.147919957602E+02   -0.40559E-06   -0.32177E-09    19   0.380E-04    0.320E-05
DAV:  14    -0.147919958550E+02   -0.94863E-07   -0.50363E-10    20   0.181E-04    0.112E-05
DAV:  15    -0.147919958651E+02   -0.10076E-07    0.29132E-11    20   0.477E-05    0.568E-06
DAV:  16    -0.147919958688E+02   -0.37359E-08    0.99831E-11    19   0.381E-05
   2 F= -.14791996E+02 E0= -.14791996E+02  d E =-.482545E-18
       N       E                     dE             d eps       ncg     rms          rms(c)
DAV:   1    -0.147982945528E+02   -0.62987E-02   -0.22467E+00    19   0.143E+01    0.599E-01
DAV:   2    -0.147937089446E+02    0.45856E-02   -0.34430E-02    18   0.165E+00    0.359E-01
DAV:   3    -0.147924777901E+02    0.12312E-02   -0.10845E-02    27   0.915E-01    0.115E-01
DAV:   4    -0.147924434282E+02    0.34362E-04   -0.82861E-04    18   0.197E-01    0.513E-02
DAV:   5    -0.147925427535E+02   -0.99325E-04   -0.95378E-05    18   0.777E-02    0.168E-02
DAV:   6    -0.147925826338E+02   -0.39880E-04   -0.15395E-05    19   0.342E-02    0.414E-03
DAV:   7    -0.147926256436E+02   -0.43010E-04   -0.70616E-06    19   0.150E-02    0.274E-03
DAV:   8    -0.147926848911E+02   -0.59247E-04   -0.69801E-06    19   0.148E-02    0.188E-03
DAV:   9    -0.147927189925E+02   -0.34101E-04   -0.22331E-06    20   0.934E-03    0.605E-04
DAV:  10    -0.147927322379E+02   -0.13245E-04   -0.46993E-07    18   0.407E-03    0.632E-04
DAV:  11    -0.147927380558E+02   -0.58179E-05   -0.11356E-07    18   0.242E-03    0.225E-04
DAV:  12    -0.147927416796E+02   -0.36238E-05   -0.59234E-08    19   0.168E-03    0.115E-04
DAV:  13    -0.147927422992E+02   -0.61955E-06   -0.45019E-09    19   0.495E-04    0.733E-05
DAV:  14    -0.147927426466E+02   -0.34746E-06   -0.30135E-09    20   0.432E-04    0.219E-05
DAV:  15    -0.147927426749E+02   -0.28277E-07   -0.15149E-10    20   0.770E-05    0.109E-05
DAV:  16    -0.147927426856E+02   -0.10656E-07   -0.43983E-11    20   0.630E-05    0.443E-06
DAV:  17    -0.147927426860E+02   -0.44804E-09    0.28884E-11    18   0.148E-05
   3 F= -.14792743E+02 E0= -.14792743E+02  d E =-.622701E-16
       N       E                     dE             d eps       ncg     rms          rms(c)
DAV:   1    -0.148062021566E+02   -0.13459E-01   -0.98490E-01    18   0.935E+00    0.340E-01
DAV:   2    -0.148051619730E+02    0.10402E-02   -0.12291E-02    20   0.967E-01    0.207E-01
DAV:   3    -0.148048946997E+02    0.26727E-03   -0.32686E-03    20   0.485E-01    0.614E-02
DAV:   4    -0.148048895496E+02    0.51501E-05   -0.26724E-04    19   0.117E-01    0.267E-02
DAV:   5    -0.148049167796E+02   -0.27230E-04   -0.34378E-05    20   0.464E-02    0.991E-03
DAV:   6    -0.148049354637E+02   -0.18684E-04   -0.33206E-06    20   0.169E-02    0.206E-03
DAV:   7    -0.148049560074E+02   -0.20544E-04   -0.15807E-06    20   0.709E-03    0.144E-03
DAV:   8    -0.148049837700E+02   -0.27763E-04   -0.16994E-06    20   0.721E-03    0.953E-04
DAV:   9    -0.148050008502E+02   -0.17080E-04   -0.61618E-07    20   0.451E-03    0.390E-04
DAV:  10    -0.148050113305E+02   -0.10480E-04   -0.27626E-07    18   0.275E-03    0.239E-04
DAV:  11    -0.148050164216E+02   -0.50911E-05   -0.83114E-08    20   0.157E-03    0.115E-04
DAV:  12    -0.148050185607E+02   -0.21391E-05   -0.28042E-08    18   0.100E-03    0.509E-05
DAV:  13    -0.148050190354E+02   -0.47465E-06   -0.31332E-09    20   0.354E-04    0.272E-05
DAV:  14    -0.148050192332E+02   -0.19789E-06   -0.16539E-09    20   0.263E-04    0.131E-05
DAV:  15    -0.148050192538E+02   -0.20516E-07    0.11504E-10    20   0.628E-05    0.471E-06
DAV:  16    -0.148050192610E+02   -0.72595E-08    0.93081E-11    20   0.487E-05
   4 F= -.14805019E+02 E0= -.14805019E+02  d E =-.454092E-17
       N       E                     dE             d eps       ncg     rms          rms(c)
DAV:   1    -0.148053450944E+02   -0.32584E-03   -0.16982E+00    18   0.116E+01    0.381E-01
DAV:   2    -0.148047205126E+02    0.62458E-03   -0.12098E-02    28   0.894E-01    0.201E-01
DAV:   3    -0.148049126572E+02   -0.19214E-03   -0.17662E-03    20   0.245E-01    0.408E-02
DAV:   4    -0.148049590447E+02   -0.46387E-04   -0.11980E-04    18   0.905E-02    0.178E-02
DAV:   5    -0.148049915785E+02   -0.32534E-04   -0.14754E-05    20   0.271E-02    0.367E-03
DAV:   6    -0.148049982337E+02   -0.66552E-05   -0.95305E-07    20   0.782E-03    0.151E-03
DAV:   7    -0.148050054097E+02   -0.71760E-05   -0.30460E-07    20   0.290E-03    0.649E-04
DAV:   8    -0.148050118119E+02   -0.64022E-05   -0.28673E-07    20   0.226E-03    0.282E-04
DAV:   9    -0.148050173997E+02   -0.55878E-05   -0.34711E-07    20   0.246E-03    0.141E-04
DAV:  10    -0.148050183760E+02   -0.97625E-06   -0.18390E-08    20   0.726E-04    0.731E-05
DAV:  11    -0.148050190514E+02   -0.67541E-06   -0.11798E-08    20   0.540E-04    0.272E-05
DAV:  12    -0.148050191946E+02   -0.14323E-06   -0.10731E-09    20   0.181E-04    0.196E-05
DAV:  13    -0.148050192570E+02   -0.62374E-07   -0.38590E-10    20   0.143E-04    0.665E-06
DAV:  14    -0.148050192593E+02   -0.22796E-08    0.91269E-11    19   0.211E-05
   5 F= -.14805019E+02 E0= -.14805019E+02  d E =-.459746E-17
       N       E                     dE             d eps       ncg     rms          rms(c)
DAV:   1    -0.147922252359E+02    0.12794E-01   -0.17281E+00    18   0.135E+01    0.357E-01
DAV:   2    -0.147927982341E+02   -0.57300E-03   -0.30224E-02    18   0.161E+00    0.181E-01
DAV:   3    -0.147925074980E+02    0.29074E-03   -0.21825E-03    20   0.356E-01    0.753E-02
DAV:   4    -0.147925881716E+02   -0.80674E-04   -0.41405E-04    20   0.165E-01    0.292E-02
DAV:   5    -0.147926148977E+02   -0.26726E-04   -0.36256E-05    18   0.411E-02    0.118E-02
DAV:   6    -0.147926382001E+02   -0.23302E-04   -0.15927E-05    18   0.284E-02    0.312E-03
DAV:   7    -0.147926530845E+02   -0.14884E-04   -0.26336E-06    20   0.114E-02    0.148E-03
DAV:   8    -0.147926784224E+02   -0.25338E-04   -0.24479E-06    20   0.850E-03    0.866E-04
DAV:   9    -0.147926906983E+02   -0.12276E-04   -0.75832E-07    20   0.507E-03    0.392E-04
DAV:  10    -0.147926968819E+02   -0.61836E-05   -0.18352E-07    18   0.248E-03    0.297E-04
DAV:  11    -0.147927015346E+02   -0.46527E-05   -0.10752E-07    20   0.195E-03    0.138E-04
DAV:  12    -0.147927031783E+02   -0.16438E-05   -0.16969E-08    18   0.878E-04    0.656E-05
DAV:  13    -0.147927038419E+02   -0.66354E-06   -0.60191E-09    19   0.541E-04    0.395E-05
DAV:  14    -0.147927039793E+02   -0.13739E-06   -0.96588E-10    20   0.206E-04    0.977E-06
DAV:  15    -0.147927040003E+02   -0.21018E-07   -0.35385E-11    20   0.747E-05    0.877E-06
DAV:  16    -0.147927040017E+02   -0.14247E-08    0.10282E-10    20   0.277E-05
   6 F= -.14792704E+02 E0= -.14792704E+02  d E =-.622031E-16
       N       E                     dE             d eps       ncg     rms          rms(c)
DAV:   1    -0.147918705359E+02    0.83346E-03   -0.53008E+00    18   0.242E+01    0.561E-01
DAV:   2    -0.147934893862E+02   -0.16189E-02   -0.81592E-02    18   0.296E+00    0.339E-01
DAV:   3    -0.147915998952E+02    0.18895E-02   -0.94995E-03    20   0.821E-01    0.866E-02
DAV:   4    -0.147917143672E+02   -0.11447E-03   -0.58628E-04    19   0.206E-01    0.438E-02
DAV:   5    -0.147917568677E+02   -0.42501E-04   -0.66683E-05    20   0.557E-02    0.215E-02
DAV:   6    -0.147918300039E+02   -0.73136E-04   -0.21188E-05    20   0.366E-02    0.565E-03
DAV:   7    -0.147918967474E+02   -0.66743E-04   -0.11465E-05    20   0.243E-02    0.479E-03
DAV:   8    -0.147919709960E+02   -0.74249E-04   -0.12130E-05    20   0.237E-02    0.305E-03
DAV:   9    -0.147920112823E+02   -0.40286E-04   -0.29932E-06    20   0.114E-02    0.104E-03
DAV:  10    -0.147920369969E+02   -0.25715E-04   -0.10490E-06    20   0.576E-03    0.489E-04
DAV:  11    -0.147920538928E+02   -0.16896E-04   -0.56998E-07    18   0.368E-03    0.493E-04
DAV:  12    -0.147920585092E+02   -0.46165E-05   -0.97674E-08    18   0.190E-03    0.199E-04
DAV:  13    -0.147920615859E+02   -0.30767E-05   -0.79284E-08    18   0.164E-03    0.102E-04
DAV:  14    -0.147920618925E+02   -0.30657E-06   -0.25837E-09    20   0.393E-04    0.518E-05
DAV:  15    -0.147920619794E+02   -0.86954E-07   -0.81187E-10    20   0.218E-04    0.142E-05
DAV:  16    -0.147920619940E+02   -0.14565E-07   -0.13575E-10    20   0.772E-05    0.805E-06
DAV:  17    -0.147920619975E+02   -0.34802E-08    0.64695E-11    19   0.345E-05
   7 F= -.14792062E+02 E0= -.14792062E+02  d E =-.463992E-18
       N       E                     dE             d eps       ncg     rms          rms(c)
DAV:   1    -0.148045037132E+02   -0.12442E-01   -0.25930E+00    20   0.165E+01    0.333E-01
DAV:   2    -0.148052415082E+02   -0.73779E-03   -0.30340E-02    20   0.182E+00    0.198E-01
DAV:   3    -0.148048069098E+02    0.43460E-03   -0.26238E-03    20   0.443E-01    0.523E-02
DAV:   4    -0.148048918482E+02   -0.84938E-04   -0.19912E-04    18   0.129E-01    0.238E-02
DAV:   5    -0.148049195914E+02   -0.27743E-04   -0.22538E-05    20   0.332E-02    0.114E-02
DAV:   6    -0.148049474461E+02   -0.27855E-04   -0.71639E-06    20   0.198E-02    0.300E-03
DAV:   7    -0.148049614746E+02   -0.14029E-04   -0.20824E-06    20   0.104E-02    0.167E-03
DAV:   8    -0.148049861680E+02   -0.24693E-04   -0.28309E-06    20   0.101E-02    0.124E-03
DAV:   9    -0.148049983511E+02   -0.12183E-04   -0.83753E-07    20   0.573E-03    0.442E-04
DAV:  10    -0.148050038687E+02   -0.55176E-05   -0.16480E-07    18   0.241E-03    0.235E-04
DAV:  11    -0.148050095004E+02   -0.56317E-05   -0.13024E-07    18   0.206E-03    0.135E-04
DAV:  12    -0.148050112384E+02   -0.17380E-05   -0.18316E-08    20   0.929E-04    0.708E-05
DAV:  13    -0.148050120756E+02   -0.83722E-06   -0.78263E-09    19   0.644E-04    0.322E-05
DAV:  14    -0.148050121850E+02   -0.10937E-06   -0.39307E-10    20   0.164E-04    0.111E-05
DAV:  15    -0.148050122347E+02   -0.49759E-07   -0.18947E-10    20   0.119E-04    0.530E-06
DAV:  16    -0.148050122414E+02   -0.66622E-08    0.54534E-11    20   0.378E-05
   8 F= -.14805012E+02 E0= -.14805012E+02  d E =-.478102E-17
       N       E                     dE             d eps       ncg     rms          rms(c)
DAV:   1    -0.147995878514E+02    0.54244E-02   -0.50750E+00    20   0.221E+01    0.327E-01
DAV:   2    -0.148051373156E+02   -0.55495E-02   -0.65804E-02    20   0.244E+00    0.227E-01
DAV:   3    -0.148047392924E+02    0.39802E-03   -0.84179E-04    28   0.288E-01    0.123E-01
DAV:   4    -0.148049536756E+02   -0.21438E-03   -0.65064E-04    20   0.258E-01    0.173E-02
DAV:   5    -0.148049795297E+02   -0.25854E-04   -0.88893E-05    20   0.794E-02    0.129E-02
DAV:   6    -0.148049920523E+02   -0.12523E-04   -0.52836E-06    20   0.236E-02    0.402E-03
DAV:   7    -0.148049982379E+02   -0.61857E-05   -0.26928E-06    20   0.140E-02    0.101E-03
DAV:   8    -0.148050031627E+02   -0.49248E-05   -0.32221E-07    20   0.409E-03    0.370E-04
DAV:   9    -0.148050079515E+02   -0.47887E-05   -0.21427E-07    20   0.204E-03    0.222E-04
DAV:  10    -0.148050109707E+02   -0.30192E-05   -0.14409E-07    20   0.174E-03    0.190E-04
DAV:  11    -0.148050118499E+02   -0.87919E-06   -0.22491E-08    20   0.836E-04    0.479E-05
DAV:  12    -0.148050121504E+02   -0.30050E-06   -0.61922E-09    20   0.424E-04    0.476E-05
DAV:  13    -0.148050121959E+02   -0.45473E-07   -0.14808E-10    20   0.105E-04    0.111E-05
DAV:  14    -0.148050122308E+02   -0.34948E-07   -0.47653E-10    20   0.145E-04    0.210E-05
DAV:  15    -0.148050122360E+02   -0.51131E-08    0.37730E-11    20   0.465E-05
   9 F= -.14805012E+02 E0= -.14805012E+02  d E =-.460240E-17
