 vasp.5.2.12 11Nov11 complex                                                    
  
 executed on             LinuxIFC date 2012.10.09  22:30:09
 running on    1 nodes
 distr:  one band on    1 nodes,    1 groups


--------------------------------------------------------------------------------------------------------


 INCAR:
 POTCAR:   PAW_PBE C 08Apr2002                    
 POTCAR:   PAW_PBE O 08Apr2002                    
 POTCAR:   PAW_PBE C 08Apr2002                    
   VRHFIN =C: s2p2                                                              
   LEXCH  = PE                                                                  
   EATOM  =   147.1560 eV,   10.8157 Ry                                         
                                                                                
   TITEL  = PAW_PBE C 08Apr2002                                                 
   LULTRA =        F    use ultrasoft PP ?                                      
   IUNSCR =        0    unscreen: 0-lin 1-nonlin 2-no                           
   RPACOR =     .000    partial core radius                                     
   POMASS =   12.011; ZVAL   =    4.000    mass and valenz                      
   RCORE  =    1.500    outmost cutoff radius                                   
   RWIGS  =    1.630; RWIGS  =     .863    wigner-seitz radius (au A)           
   ENMAX  =  400.000; ENMIN  =  300.000 eV                                      
   ICORE  =        2    local potential                                         
   LCOR   =        T    correct aug charges                                     
   LPAW   =        T    paw PP                                                  
   EAUG   =  644.873                                                            
   DEXC   =     .000                                                            
   RMAX   =    2.266    core radius for proj-oper                               
   RAUG   =    1.300    factor for augmentation sphere                          
   RDEP   =    1.501    radius for radial grids                                 
   RDEPT  =    1.300    core radius for aug-charge                              
   QCUT   =   -5.516; QGAM   =   11.032    optimization parameters              
                                                                                
   Description                                                                  
     l     E      TYP  RCUT    TYP  RCUT                                        
     0   .000     23  1.200                                                     
     0   .000     23  1.200                                                     
     1   .000     23  1.500                                                     
     1  2.500     23  1.500                                                     
     2   .000      7  1.500                                                     
  local pseudopotential read in
  atomic valenz-charges read in
  non local Contribution for L=           0  read in
    real space projection operators read in
  non local Contribution for L=           0  read in
    real space projection operators read in
  non local Contribution for L=           1  read in
    real space projection operators read in
  non local Contribution for L=           1  read in
    real space projection operators read in
    PAW grid and wavefunctions read in
 
   number of l-projection  operators is LMAX  =           4
   number of lm-projection operators is LMMAX =           8
 
 POTCAR:   PAW_PBE O 08Apr2002                    
   VRHFIN =O: s2p4                                                              
   LEXCH  = PE                                                                  
   EATOM  =   432.3788 eV,   31.7789 Ry                                         
                                                                                
   TITEL  = PAW_PBE O 08Apr2002                                                 
   LULTRA =        F    use ultrasoft PP ?                                      
   IUNSCR =        0    unscreen: 0-lin 1-nonlin 2-no                           
   RPACOR =     .000    partial core radius                                     
   POMASS =   16.000; ZVAL   =    6.000    mass and valenz                      
   RCORE  =    1.520    outmost cutoff radius                                   
   RWIGS  =    1.550; RWIGS  =     .820    wigner-seitz radius (au A)           
   ENMAX  =  400.000; ENMIN  =  300.000 eV                                      
   ICORE  =        2    local potential                                         
   LCOR   =        T    correct aug charges                                     
   LPAW   =        T    paw PP                                                  
   EAUG   =  605.392                                                            
   DEXC   =     .000                                                            
   RMAX   =    2.264    core radius for proj-oper                               
   RAUG   =    1.300    factor for augmentation sphere                          
   RDEP   =    1.550    radius for radial grids                                 
   QCUT   =   -5.520; QGAM   =   11.041    optimization parameters              
                                                                                
   Description                                                                  
     l     E      TYP  RCUT    TYP  RCUT                                        
     0   .000     23  1.200                                                     
     0  -.700     23  1.200                                                     
     1   .000     23  1.520                                                     
     1   .600     23  1.520                                                     
     2   .000      7  1.500                                                     
  local pseudopotential read in
  atomic valenz-charges read in
  non local Contribution for L=           0  read in
    real space projection operators read in
  non local Contribution for L=           0  read in
    real space projection operators read in
  non local Contribution for L=           1  read in
    real space projection operators read in
  non local Contribution for L=           1  read in
    real space projection operators read in
    PAW grid and wavefunctions read in
 
   number of l-projection  operators is LMAX  =           4
   number of lm-projection operators is LMMAX =           8
 
 PAW_PBE C 08Apr2002                    :
 energy of atom  1       EATOM= -147.1560
 kinetic energy error for atom=    0.0854 (will be added to EATOM!!)
 PAW_PBE O 08Apr2002                    :
 energy of atom  2       EATOM= -432.3788
 kinetic energy error for atom=    0.3782 (will be added to EATOM!!)
 
 
 POSCAR:  C  O                                   
  positions in cartesian coordinates
  No initial velocities read in
 exchange correlation table for  LEXCH =        8
   RHO(1)=    0.500       N(1)  =     2000
   RHO(2)=  100.500       N(2)  =     4000
 


--------------------------------------------------------------------------------------------------------


 ion  position               nearest neighbor table
   1  0.443  0.500  0.500-   2 1.14
   2  0.557  0.500  0.500-   1 1.14
 
  LATTYP: Found a simple cubic cell.
 ALAT       =    10.0000000000
  
  Lattice vectors:
  
 A1 = (  10.0000000000,   0.0000000000,   0.0000000000)
 A2 = (   0.0000000000,  10.0000000000,   0.0000000000)
 A3 = (   0.0000000000,   0.0000000000,  10.0000000000)
 Subroutine PRICEL returns:
 Original cell was already a primitive cell.
 

Analysis of symmetry for initial positions (statically):

 Routine SETGRP: Setting up the symmetry group for a 
 simple cubic supercell.


 Subroutine GETGRP returns: Found  8 space group operations
 (whereof  8 operations were pure point group operations)
 out of a pool of 48 trial point group operations.


The static configuration has the point symmetry C_4v.

Analysis of symmetry for dynamics (positions and initial velocities):

 Subroutine DYNSYM returns: Found  8 space group operations
 (whereof  8 operations were pure point group operations)
 out of a pool of  8 trial space group operations
 (whereof  8 operations were pure point group operations)
 and found also     1 'primitive' translations


The dynamic configuration has the point symmetry C_4v.
 
 
 KPOINTS: KPOINTS created by Atomic Simulation Env

Automatic generation of k-mesh.
 
 Subroutine IBZKPT returns following result:
 ===========================================
 
 Found      1 irreducible k-points:
 
 Following reciprocal coordinates:
            Coordinates               Weight
  0.000000  0.000000  0.000000      1.000000
 
 Following cartesian coordinates:
            Coordinates               Weight
  0.000000  0.000000  0.000000      1.000000
 
 
 Subroutine IBZKPT_HF returns following result:
 ==============================================
 
 Found      1 k-points in 1st BZ
 the following      1 k-points will be used (e.g. in the exchange kernel)
 Following reciprocal coordinates:   # in IRBZ
  0.000000  0.000000  0.000000       1 t-inv F


--------------------------------------------------------------------------------------------------------




 Dimension of arrays:
   k-points           NKPTS =      1   k-points in BZ     NKDIM =      1   number of bands    NBANDS=      9
   number of dos      NEDOS =    301   number of ions     NIONS =      2
   non local maximal  LDIM  =      4   non local SUM 2l+1 LMDIM =      8
   total plane-waves  NPLWV = 262144
   max r-space proj   IRMAX =      1   max aug-charges    IRDMAX=   3600
   dimension x,y,z NGX =    64 NGY =   64 NGZ =   64
   dimension x,y,z NGXF=   128 NGYF=  128 NGZF=  128
   support grid    NGXF=   128 NGYF=  128 NGZF=  128
   ions per type =               1   1
 NGX,Y,Z   is equivalent  to a cutoff of  10.64, 10.64, 10.64 a.u.
 NGXF,Y,Z  is equivalent  to a cutoff of  21.28, 21.28, 21.28 a.u.


 I would recommend the setting:
   dimension x,y,z NGX =    61 NGY =   61 NGZ =   61
 SYSTEM =  unknown system                          
 POSCAR =   C  O                                   

 Startparameter for this run:
   NWRITE =      2    write-flag & timer
   PREC   = accura    normal or accurate (medium, high low for compatibility)
   ISTART =      0    job   : 0-new  1-cont  2-samecut
   ICHARG =      2    charge: 1-file 2-atom 10-const
   ISPIN  =      1    spin polarized calculation?
   LNONCOLLINEAR =      F non collinear calculations
   LSORBIT =      F    spin-orbit coupling
   INIWAV =      1    electr: 0-lowe 1-rand  2-diag
   LASPH  =      F    aspherical Exc in radial PAW
   METAGGA=      F    non-selfconsistent MetaGGA calc.

 Electronic Relaxation 1
   ENCUT  =  350.0 eV  25.72 Ry    5.07 a.u.  15.25 15.25 15.25*2*pi/ulx,y,z
   ENINI  =  350.0     initial cutoff
   ENAUG  =  644.9 eV  augmentation charge cutoff
   NELM   =     60;   NELMIN=  2; NELMDL= -5     # of ELM steps 
   EDIFF  = 0.1E-07   stopping-criterion for ELM
   LREAL  =      F    real-space projection
   NLSPLINE    = F    spline interpolate recip. space projectors
   LCOMPAT=      F    compatible to vasp.4.4
   GGA_COMPAT  = T    GGA compatible to vasp.4.4-vasp.4.6
   LMAXPAW     = -100 max onsite density
   LMAXMIX     =    2 max onsite mixed and CHGCAR
   VOSKOWN=      0    Vosko Wilk Nusair interpolation
   ROPT   =    0.00000   0.00000
 Ionic relaxation
   EDIFFG = 0.1E-06   stopping-criterion for IOM
   NSW    =     61    number of steps for IOM
   NBLOCK =      1;   KBLOCK =      1    inner block; outer block 
   IBRION =      6    ionic relax: 0-MD 1-quasi-New 2-CG
   NFREE  =      2    steps in history (QN), initial steepest desc. (CG)
   ISIF   =      2    stress and relaxation
   IWAVPR =     11    prediction:  0-non 1-charg 2-wave 3-comb
   ISYM   =      2    0-nonsym 1-usesym 2-fastsym
   LCORR  =      T    Harris-Foulkes like correction to forces

   POTIM  = 0.0150    time-step for ionic-motion
   TEIN   =    0.0    initial temperature
   TEBEG  =    0.0;   TEEND  =   0.0 temperature during run
   SMASS  =  -3.00    Nose mass-parameter (am)
   estimated Nose-frequenzy (Omega)   =  0.10E-29 period in steps =****** mass=  -0.229E-26a.u.
   SCALEE = 1.0000    scale energy and forces
   NPACO  =    256;   APACO  = 16.0  distance and # of slots for P.C.
   PSTRESS=    0.0 pullay stress

  Mass of Ions in am
   POMASS =  12.01 16.00
  Ionic Valenz
   ZVAL   =   4.00  6.00
  Atomic Wigner-Seitz radii
   RWIGS  =  -1.00 -1.00
  virtual crystal weights 
   VCA    =   1.00  1.00
   NELECT =      10.0000    total number of electrons
   NUPDOWN=      -1.0000    fix difference up-down

 DOS related values:
   EMIN   =  10.00;   EMAX   =-10.00  energy-range for DOS
   EFERMI =   0.00
   ISMEAR =     0;   SIGMA  =   0.05  broadening in eV -4-tet -1-fermi 0-gaus

 Electronic relaxation 2 (details)
   IALGO  =     38    algorithm
   LDIAG  =      T    sub-space diagonalisation (order eigenvalues)
   LSUBROT=      T    optimize rotation matrix (better conditioning)
   TURBO    =      0    0=normal 1=particle mesh
   IRESTART =      0    0=no restart 2=restart with 2 vectors
   NREBOOT  =      0    no. of reboots
   NMIN     =      0    reboot dimension
   EREF     =   0.00    reference energy to select bands
   IMIX   =      4    mixing-type and parameters
     AMIX     =   0.40;   BMIX     =  1.00
     AMIX_MAG =   1.60;   BMIX_MAG =  1.00
     AMIN     =   0.10
     WC   =   100.;   INIMIX=   1;  MIXPRE=   1

 Intra band minimization:
   WEIMIN = 0.0010     energy-eigenvalue tresh-hold
   EBREAK =  0.28E-09  absolut break condition
   DEPER  =   0.30     relativ break condition  

   TIME   =   0.40     timestep for ELM

  volume/ion in A,a.u.               =     500.00      3374.17
  Fermi-wavevector in a.u.,A,eV,Ry     =   0.352702  0.666511  1.692549  0.124399
  Thomas-Fermi vector in A             =   1.266362
 
 Write flags
   LWAVE  =      T    write WAVECAR
   LCHARG =      T    write CHGCAR
   LVTOT  =      F    write LOCPOT, total local potential
   LVHAR  =      F    write LOCPOT, Hartree potential only
   LELF   =      F    write electronic localiz. function (ELF)
   LORBIT =      0    0 simple, 1 ext, 2 COOP (PROOUT)


 Dipole corrections
   LMONO  =      F    monopole corrections only (constant potential shift)
   LDIPOL =      F    correct potential (dipole corrections)
   IDIPOL =      0    1-x, 2-y, 3-z, 4-all directions 
   EPSILON=  1.0000000 bulk dielectric constant

 Exchange correlation treatment:
   GGA     =    --    GGA type
   LEXCH   =     8    internal setting for exchange type
   VOSKOWN=      0    Vosko Wilk Nusair interpolation
   LHFCALC =     F    Hartree Fock is set to
   LHFONE  =     F    Hartree Fock one center treatment
   AEXX    =    0.0000 exact exchange contribution

 Linear response parameters
   LEPSILON=     F    determine dielectric tensor
   LRPA    =     F    only Hartree local field effects (RPA)
   LNABLA  =     F    use nabla operator in PAW spheres
   LVEL    =     F    velocity operator in full k-point grid
   LINTERFAST=   F  fast interpolation
   KINTER  =     0    interpolate to denser k-point grid
   CSHIFT  =0.1000    complex shift for real part using Kramers Kronig
   OMEGAMAX=  -1.0    maximum frequency
   RTIME   =    0.100 relaxation time in fs

 Orbital magnetization related:
   ORBITALMAG=     F  switch on orbital magnetization
   LCHIMAG   =     F  perturbation theory with respect to B field
   DQ        =  0.001000  dq finite difference perturbation B field



--------------------------------------------------------------------------------------------------------


 finite differences with symmetry
 charge density and potential will be updated during run
 non-spin polarized calculation
 Variant of blocked Davidson
 Davidson routine will perform the subspace rotation
 perform sub-space diagonalisation
    after iterative eigenvector-optimisation
 modified Broyden-mixing scheme, WC =      100.0
 initial mixing is a Kerker type mixing with AMIX =  0.4000 and BMIX =      1.0000
 Hartree-type preconditioning will be used
 using additional bands            4
 reciprocal scheme for non local part
 calculate Harris-corrections to forces 
   (improved forces if not selfconsistent)
 use gradient corrections 
 use of overlap-Matrix (Vanderbilt PP)
 Gauss-broadening in eV      SIGMA  =   0.05


--------------------------------------------------------------------------------------------------------


  energy-cutoff  :      350.00
  volume of cell :     1000.00
      direct lattice vectors                 reciprocal lattice vectors
    10.000000000  0.000000000  0.000000000     0.100000000  0.000000000  0.000000000
     0.000000000 10.000000000  0.000000000     0.000000000  0.100000000  0.000000000
     0.000000000  0.000000000 10.000000000     0.000000000  0.000000000  0.100000000

  length of vectors
    10.000000000 10.000000000 10.000000000     0.100000000  0.100000000  0.100000000


 
 k-points in units of 2pi/SCALE and weight: KPOINTS created by Atomic Simulation Env
   0.00000000  0.00000000  0.00000000       1.000
 
 k-points in reciprocal lattice and weights: KPOINTS created by Atomic Simulation Env
   0.00000000  0.00000000  0.00000000       1.000
 
 position of ions in fractional coordinates (direct lattice) 
   0.44281976  0.50000000  0.50000000
   0.55718024  0.50000000  0.50000000
 
 position of ions in cartesian coordinates  (Angst):
   4.42819764  5.00000000  5.00000000
   5.57180236  5.00000000  5.00000000
 


--------------------------------------------------------------------------------------------------------


 k-point  1 :  0.00000.00000.0000  plane waves:   14795

 maximum and minimum number of plane-waves per node :     14795    14795

 maximum number of plane-waves:     14795
 maximum index in each direction: 
   IXMAX=   15   IYMAX=   15   IZMAX=   15
   IXMIN=  -15   IYMIN=  -15   IZMIN=  -15

 NGX is ok and might be reduce to  62
 NGY is ok and might be reduce to  62
 NGZ is ok and might be reduce to  62

 serial   3D FFT for wavefunctions
 parallel 3D FFT for charge:
    minimum data exchange during FFTs selected (reduces bandwidth)


 total amount of memory used by VASP on root node   236283. kBytes
========================================================================

   base      :      30000. kBytes
   nonl-proj :       2367. kBytes
   fftplans  :      72476. kBytes
   grid      :     129302. kBytes
   one-center:          6. kBytes
   wavefun   :       2132. kBytes
 
 Broyden mixing: mesh for mixing (old mesh)
   NGX = 31   NGY = 31   NGZ = 31
  (NGX  =128   NGY  =128   NGZ  =128)
  gives a total of  29791 points

 initial charge density was supplied:
 charge density of overlapping atoms calculated
 number of electron      10.0000000 magnetization 
 keeping initial charge density in first step


--------------------------------------------------------------------------------------------------------


 Maximum index for augmentation-charges         3302 (set IRDMAX)


--------------------------------------------------------------------------------------------------------


 First call to EWALD:  gamma=   0.177
 Maximum number of real-space cells 3x 3x 3
 Maximum number of reciprocal cells 3x 3x 3

    FEWALD:  cpu time    0.00: real time    0.00


----------------------------------------- Iteration    1(   1)  ---------------------------------------


    POTLOK:  cpu time    4.42: real time    6.20
    SETDIJ:  cpu time    0.01: real time    0.01
     EDDAV:  cpu time    2.94: real time    4.47
       DOS:  cpu time    0.00: real time    0.00
    --------------------------------------------
      LOOP:  cpu time    7.37: real time   10.68

 eigenvalue-minimisations  :    26
 total energy-change (2. order) : 0.5756732E+02  (-0.2387834E+03)
 number of electron      10.0000000 magnetization 
 augmentation part       10.0000000 magnetization 

 Free energy of the ion-electron system (eV)
  ---------------------------------------------------
  alpha Z        PSCENC =         0.43525486
  Ewald energy   TEWEN  =        98.88049534
  -1/2 Hartree   DENC   =      -560.47833715
  -exchange  EXHF       =         0.00000000
  -V(xc)+E(xc)   XCENC  =        39.84553385
  PAW double counting   =       283.82984571     -286.83001101
  entropy T*S    EENTRO =         0.00000000
  eigenvalues    EBANDS =       -97.18669506
  atomic energy  EATOM  =       579.07123046
  ---------------------------------------------------
  free energy    TOTEN  =        57.56731701 eV

  energy without entropy =       57.56731701  energy(sigma->0) =       57.56731701


--------------------------------------------------------------------------------------------------------




----------------------------------------- Iteration    1(   2)  ---------------------------------------


     EDDAV:  cpu time    3.11: real time    4.21
       DOS:  cpu time    0.00: real time    0.00
    --------------------------------------------
      LOOP:  cpu time    3.11: real time    4.26

 eigenvalue-minimisations  :    27
 total energy-change (2. order) :-0.6733551E+02  (-0.6726288E+02)
 number of electron      10.0000000 magnetization 
 augmentation part       10.0000000 magnetization 

 Free energy of the ion-electron system (eV)
  ---------------------------------------------------
  alpha Z        PSCENC =         0.43525486
  Ewald energy   TEWEN  =        98.88049534
  -1/2 Hartree   DENC   =      -560.47833715
  -exchange  EXHF       =         0.00000000
  -V(xc)+E(xc)   XCENC  =        39.84553385
  PAW double counting   =       283.82984571     -286.83001101
  entropy T*S    EENTRO =         0.00000000
  eigenvalues    EBANDS =      -164.52220812
  atomic energy  EATOM  =       579.07123046
  ---------------------------------------------------
  free energy    TOTEN  =        -9.76819605 eV

  energy without entropy =       -9.76819605  energy(sigma->0) =       -9.76819605


--------------------------------------------------------------------------------------------------------




----------------------------------------- Iteration    1(   3)  ---------------------------------------


     EDDAV:  cpu time    4.13: real time    5.57
       DOS:  cpu time    0.00: real time    0.00
    --------------------------------------------
      LOOP:  cpu time    4.13: real time    5.58

 eigenvalue-minimisations  :    35
 total energy-change (2. order) :-0.5763588E+01  (-0.5763095E+01)
 number of electron      10.0000000 magnetization 
 augmentation part       10.0000000 magnetization 

 Free energy of the ion-electron system (eV)
  ---------------------------------------------------
  alpha Z        PSCENC =         0.43525486
  Ewald energy   TEWEN  =        98.88049534
  -1/2 Hartree   DENC   =      -560.47833715
  -exchange  EXHF       =         0.00000000
  -V(xc)+E(xc)   XCENC  =        39.84553385
  PAW double counting   =       283.82984571     -286.83001101
  entropy T*S    EENTRO =         0.00000000
  eigenvalues    EBANDS =      -170.28579660
  atomic energy  EATOM  =       579.07123046
  ---------------------------------------------------
  free energy    TOTEN  =       -15.53178453 eV

  energy without entropy =      -15.53178453  energy(sigma->0) =      -15.53178453


--------------------------------------------------------------------------------------------------------




----------------------------------------- Iteration    1(   4)  ---------------------------------------


     EDDAV:  cpu time    3.68: real time    4.79
       DOS:  cpu time    0.00: real time    0.00
    --------------------------------------------
      LOOP:  cpu time    3.68: real time    4.82

 eigenvalue-minimisations  :    28
 total energy-change (2. order) :-0.1084588E-01  (-0.1084587E-01)
 number of electron      10.0000000 magnetization 
 augmentation part       10.0000000 magnetization 

 Free energy of the ion-electron system (eV)
  ---------------------------------------------------
  alpha Z        PSCENC =         0.43525486
  Ewald energy   TEWEN  =        98.88049534
  -1/2 Hartree   DENC   =      -560.47833715
  -exchange  EXHF       =         0.00000000
  -V(xc)+E(xc)   XCENC  =        39.84553385
  PAW double counting   =       283.82984571     -286.83001101
  entropy T*S    EENTRO =         0.00000000
  eigenvalues    EBANDS =      -170.29664248
  atomic energy  EATOM  =       579.07123046
  ---------------------------------------------------
  free energy    TOTEN  =       -15.54263041 eV

  energy without entropy =      -15.54263041  energy(sigma->0) =      -15.54263041


--------------------------------------------------------------------------------------------------------




----------------------------------------- Iteration    1(   5)  ---------------------------------------


     EDDAV:  cpu time    3.41: real time    5.20
       DOS:  cpu time    0.00: real time    0.00
    CHARGE:  cpu time    0.94: real time    1.10
    MIXING:  cpu time    0.14: real time    0.14
    --------------------------------------------
      LOOP:  cpu time    4.49: real time    6.50

 eigenvalue-minimisations  :    28
 total energy-change (2. order) :-0.1162387E-04  (-0.1162391E-04)
 number of electron      10.0000013 magnetization 
 augmentation part        0.7045574 magnetization 

 Broyden mixing:
  rms(total) = 0.59920E+00    rms(broyden)= 0.59758E+00
  rms(prec ) = 0.73401E+00
  weight for this iteration     100.00

 Free energy of the ion-electron system (eV)
  ---------------------------------------------------
  alpha Z        PSCENC =         0.43525486
  Ewald energy   TEWEN  =        98.88049534
  -1/2 Hartree   DENC   =      -560.47833715
  -exchange  EXHF       =         0.00000000
  -V(xc)+E(xc)   XCENC  =        39.84553385
  PAW double counting   =       283.82984571     -286.83001101
  entropy T*S    EENTRO =         0.00000000
  eigenvalues    EBANDS =      -170.29665411
  atomic energy  EATOM  =       579.07123046
  ---------------------------------------------------
  free energy    TOTEN  =       -15.54264204 eV

  energy without entropy =      -15.54264204  energy(sigma->0) =      -15.54264204


--------------------------------------------------------------------------------------------------------




----------------------------------------- Iteration    1(   6)  ---------------------------------------


    POTLOK:  cpu time    4.51: real time    6.38
    SETDIJ:  cpu time    0.01: real time    0.01
     EDDAV:  cpu time    2.29: real time    3.36
       DOS:  cpu time    0.00: real time    0.00
    CHARGE:  cpu time    0.69: real time    0.98
    MIXING:  cpu time    0.12: real time    0.12
    --------------------------------------------
      LOOP:  cpu time    7.63: real time   10.87

 eigenvalue-minimisations  :    18
 total energy-change (2. order) : 0.5860593E+00  (-0.2904767E+00)
 number of electron      10.0000010 magnetization 
 augmentation part        0.6344689 magnetization 

 Broyden mixing:
  rms(total) = 0.31639E+00    rms(broyden)= 0.31591E+00
  rms(prec ) = 0.37487E+00
  weight for this iteration     100.00

 eigenvalues of (default mixing * dielectric matrix)
  average eigenvalue GAMMA=   1.0572
  1.0572

 Free energy of the ion-electron system (eV)
  ---------------------------------------------------
  alpha Z        PSCENC =         0.43525486
  Ewald energy   TEWEN  =        98.88049534
  -1/2 Hartree   DENC   =      -573.61783251
  -exchange  EXHF       =         0.00000000
  -V(xc)+E(xc)   XCENC  =        40.61302591
  PAW double counting   =       332.54416099     -335.64784990
  entropy T*S    EENTRO =         0.00000000
  eigenvalues    EBANDS =      -157.23506794
  atomic energy  EATOM  =       579.07123046
  ---------------------------------------------------
  free energy    TOTEN  =       -14.95658278 eV

  energy without entropy =      -14.95658278  energy(sigma->0) =      -14.95658278


--------------------------------------------------------------------------------------------------------




----------------------------------------- Iteration    1(   7)  ---------------------------------------


    POTLOK:  cpu time    4.53: real time    5.46
    SETDIJ:  cpu time    0.01: real time    0.01
     EDDAV:  cpu time    3.17: real time    3.43
       DOS:  cpu time    0.00: real time    0.00
    CHARGE:  cpu time    0.73: real time    0.74
    MIXING:  cpu time    0.12: real time    0.18
    --------------------------------------------
      LOOP:  cpu time    8.56: real time    9.87

 eigenvalue-minimisations  :    27
 total energy-change (2. order) : 0.1207782E+00  (-0.5525917E-01)
 number of electron      10.0000011 magnetization 
 augmentation part        0.6525420 magnetization 

 Broyden mixing:
  rms(total) = 0.15984E+00    rms(broyden)= 0.15982E+00
  rms(prec ) = 0.18917E+00
  weight for this iteration     100.00

 eigenvalues of (default mixing * dielectric matrix)
  average eigenvalue GAMMA=   1.4381
  0.7607  2.1154

 Free energy of the ion-electron system (eV)
  ---------------------------------------------------
  alpha Z        PSCENC =         0.43525486
  Ewald energy   TEWEN  =        98.88049534
  -1/2 Hartree   DENC   =      -575.69912560
  -exchange  EXHF       =         0.00000000
  -V(xc)+E(xc)   XCENC  =        40.75617204
  PAW double counting   =       351.39267888     -354.44991542
  entropy T*S    EENTRO =         0.00000000
  eigenvalues    EBANDS =      -155.22259512
  atomic energy  EATOM  =       579.07123046
  ---------------------------------------------------
  free energy    TOTEN  =       -14.83580457 eV

  energy without entropy =      -14.83580457  energy(sigma->0) =      -14.83580457


--------------------------------------------------------------------------------------------------------




----------------------------------------- Iteration    1(   8)  ---------------------------------------


    POTLOK:  cpu time    4.48: real time    4.95
    SETDIJ:  cpu time    0.01: real time    0.01
     EDDAV:  cpu time    2.43: real time    2.94
       DOS:  cpu time    0.00: real time    0.00
    CHARGE:  cpu time    0.70: real time    0.86
    MIXING:  cpu time    0.12: real time    0.14
    --------------------------------------------
      LOOP:  cpu time    7.75: real time    8.98

 eigenvalue-minimisations  :    18
 total energy-change (2. order) : 0.3520899E-01  (-0.1262279E-01)
 number of electron      10.0000011 magnetization 
 augmentation part        0.6432043 magnetization 

 Broyden mixing:
  rms(total) = 0.34854E-01    rms(broyden)= 0.34825E-01
  rms(prec ) = 0.43588E-01
  weight for this iteration     100.00

 eigenvalues of (default mixing * dielectric matrix)
  average eigenvalue GAMMA=   1.5585
  2.3076  1.6260  0.7417

 Free energy of the ion-electron system (eV)
  ---------------------------------------------------
  alpha Z        PSCENC =         0.43525486
  Ewald energy   TEWEN  =        98.88049534
  -1/2 Hartree   DENC   =      -580.10551837
  -exchange  EXHF       =         0.00000000
  -V(xc)+E(xc)   XCENC  =        41.02400462
  PAW double counting   =       378.11329987     -381.14598209
  entropy T*S    EENTRO =         0.00000000
  eigenvalues    EBANDS =      -151.07338025
  atomic energy  EATOM  =       579.07123046
  ---------------------------------------------------
  free energy    TOTEN  =       -14.80059558 eV

  energy without entropy =      -14.80059558  energy(sigma->0) =      -14.80059558


--------------------------------------------------------------------------------------------------------




----------------------------------------- Iteration    1(   9)  ---------------------------------------


    POTLOK:  cpu time    4.64: real time    5.46
    SETDIJ:  cpu time    0.01: real time    0.01
     EDDAV:  cpu time    2.60: real time    3.05
       DOS:  cpu time    0.00: real time    0.00
    CHARGE:  cpu time    0.85: real time    1.28
    MIXING:  cpu time    0.19: real time    0.22
    --------------------------------------------
      LOOP:  cpu time    8.29: real time   10.03

 eigenvalue-minimisations  :    20
 total energy-change (2. order) : 0.3357899E-03  (-0.6227892E-03)
 number of electron      10.0000011 magnetization 
 augmentation part        0.6413131 magnetization 

 Broyden mixing:
  rms(total) = 0.93429E-02    rms(broyden)= 0.93256E-02
  rms(prec ) = 0.15081E-01
  weight for this iteration     100.00

 eigenvalues of (default mixing * dielectric matrix)
  average eigenvalue GAMMA=   1.5028
  0.7546  1.0463  2.4050  1.8054

 Free energy of the ion-electron system (eV)
  ---------------------------------------------------
  alpha Z        PSCENC =         0.43525486
  Ewald energy   TEWEN  =        98.88049534
  -1/2 Hartree   DENC   =      -580.10901123
  -exchange  EXHF       =         0.00000000
  -V(xc)+E(xc)   XCENC  =        41.02082510
  PAW double counting   =       381.60499929     -384.60845129
  entropy T*S    EENTRO =         0.00000000
  eigenvalues    EBANDS =      -151.09560231
  atomic energy  EATOM  =       579.07123046
  ---------------------------------------------------
  free energy    TOTEN  =       -14.80025979 eV

  energy without entropy =      -14.80025979  energy(sigma->0) =      -14.80025979


--------------------------------------------------------------------------------------------------------




----------------------------------------- Iteration    1(  10)  ---------------------------------------


    POTLOK:  cpu time    4.68: real time    5.94
    SETDIJ:  cpu time    0.01: real time    0.01
     EDDAV:  cpu time    2.38: real time    3.06
       DOS:  cpu time    0.00: real time    0.00
    CHARGE:  cpu time    0.78: real time    0.78
    MIXING:  cpu time    0.12: real time    0.12
    --------------------------------------------
      LOOP:  cpu time    7.97: real time    9.92

 eigenvalue-minimisations  :    18
 total energy-change (2. order) :-0.7809900E-03  (-0.9641540E-04)
 number of electron      10.0000011 magnetization 
 augmentation part        0.6423302 magnetization 

 Broyden mixing:
  rms(total) = 0.30737E-02    rms(broyden)= 0.30677E-02
  rms(prec ) = 0.82034E-02
  weight for this iteration     100.00

 eigenvalues of (default mixing * dielectric matrix)
  average eigenvalue GAMMA=   1.6243
  0.7570  0.9672  2.4595  2.2250  1.7127

 Free energy of the ion-electron system (eV)
  ---------------------------------------------------
  alpha Z        PSCENC =         0.43525486
  Ewald energy   TEWEN  =        98.88049534
  -1/2 Hartree   DENC   =      -580.10118969
  -exchange  EXHF       =         0.00000000
  -V(xc)+E(xc)   XCENC  =        41.01695800
  PAW double counting   =       381.78678574     -384.77990814
  entropy T*S    EENTRO =         0.00000000
  eigenvalues    EBANDS =      -151.11066735
  atomic energy  EATOM  =       579.07123046
  ---------------------------------------------------
  free energy    TOTEN  =       -14.80104078 eV

  energy without entropy =      -14.80104078  energy(sigma->0) =      -14.80104078


--------------------------------------------------------------------------------------------------------




----------------------------------------- Iteration    1(  11)  ---------------------------------------


    POTLOK:  cpu time    4.15: real time    5.46
    SETDIJ:  cpu time    0.01: real time    0.01
     EDDAV:  cpu time    2.32: real time    3.00
       DOS:  cpu time    0.00: real time    0.00
    CHARGE:  cpu time    0.76: real time    1.10
    MIXING:  cpu time    0.16: real time    0.21
    --------------------------------------------
      LOOP:  cpu time    7.41: real time    9.85

 eigenvalue-minimisations  :    18
 total energy-change (2. order) :-0.1794746E-02  (-0.5724790E-04)
 number of electron      10.0000011 magnetization 
 augmentation part        0.6422909 magnetization 

 Broyden mixing:
  rms(total) = 0.19415E-02    rms(broyden)= 0.19402E-02
  rms(prec ) = 0.42780E-02
  weight for this iteration     100.00

 eigenvalues of (default mixing * dielectric matrix)
  average eigenvalue GAMMA=   1.6856
  3.2401  2.4245  1.6600  0.7549  0.9516  1.0829

 Free energy of the ion-electron system (eV)
  ---------------------------------------------------
  alpha Z        PSCENC =         0.43525486
  Ewald energy   TEWEN  =        98.88049534
  -1/2 Hartree   DENC   =      -580.48157095
  -exchange  EXHF       =         0.00000000
  -V(xc)+E(xc)   XCENC  =        41.03072861
  PAW double counting   =       381.77280752     -384.76073382
  entropy T*S    EENTRO =         0.00000000
  eigenvalues    EBANDS =      -150.75104754
  atomic energy  EATOM  =       579.07123046
  ---------------------------------------------------
  free energy    TOTEN  =       -14.80283552 eV

  energy without entropy =      -14.80283552  energy(sigma->0) =      -14.80283552


--------------------------------------------------------------------------------------------------------




----------------------------------------- Iteration    1(  12)  ---------------------------------------


    POTLOK:  cpu time    4.09: real time    5.69
    SETDIJ:  cpu time    0.01: real time    0.01
     EDDAV:  cpu time    2.51: real time    3.03
       DOS:  cpu time    0.00: real time    0.00
    CHARGE:  cpu time    0.69: real time    0.75
    MIXING:  cpu time    0.14: real time    0.14
    --------------------------------------------
      LOOP:  cpu time    7.45: real time    9.67

 eigenvalue-minimisations  :    19
 total energy-change (2. order) :-0.6375042E-03  (-0.9208827E-05)
 number of electron      10.0000011 magnetization 
 augmentation part        0.6420594 magnetization 

 Broyden mixing:
  rms(total) = 0.10718E-02    rms(broyden)= 0.10711E-02
  rms(prec ) = 0.27761E-02
  weight for this iteration     100.00

 eigenvalues of (default mixing * dielectric matrix)
  average eigenvalue GAMMA=   1.9825
  4.4463  2.5975  2.3601  1.7087  0.7548  0.9725  1.0374

 Free energy of the ion-electron system (eV)
  ---------------------------------------------------
  alpha Z        PSCENC =         0.43525486
  Ewald energy   TEWEN  =        98.88049534
  -1/2 Hartree   DENC   =      -580.53905534
  -exchange  EXHF       =         0.00000000
  -V(xc)+E(xc)   XCENC  =        41.03094133
  PAW double counting   =       381.61227981     -384.60033645
  entropy T*S    EENTRO =         0.00000000
  eigenvalues    EBANDS =      -150.69428303
  atomic energy  EATOM  =       579.07123046
  ---------------------------------------------------
  free energy    TOTEN  =       -14.80347303 eV

  energy without entropy =      -14.80347303  energy(sigma->0) =      -14.80347303


--------------------------------------------------------------------------------------------------------




----------------------------------------- Iteration    1(  13)  ---------------------------------------


    POTLOK:  cpu time    4.14: real time    4.80
    SETDIJ:  cpu time    0.01: real time    0.08
     EDDAV:  cpu time    2.32: real time    3.26
       DOS:  cpu time    0.00: real time    0.00
    CHARGE:  cpu time    0.85: real time    1.07
    MIXING:  cpu time    0.16: real time    0.22
    --------------------------------------------
      LOOP:  cpu time    7.48: real time    9.49

 eigenvalue-minimisations  :    18
 total energy-change (2. order) :-0.1037324E-02  (-0.1471536E-04)
 number of electron      10.0000011 magnetization 
 augmentation part        0.6420612 magnetization 

 Broyden mixing:
  rms(total) = 0.53038E-03    rms(broyden)= 0.53023E-03
  rms(prec ) = 0.11173E-02
  weight for this iteration     100.00

 eigenvalues of (default mixing * dielectric matrix)
  average eigenvalue GAMMA=   2.0635
  5.5224  2.8447  2.4140  1.6279  0.7550  0.9565  1.0710  1.3163

 Free energy of the ion-electron system (eV)
  ---------------------------------------------------
  alpha Z        PSCENC =         0.43525486
  Ewald energy   TEWEN  =        98.88049534
  -1/2 Hartree   DENC   =      -580.57883514
  -exchange  EXHF       =         0.00000000
  -V(xc)+E(xc)   XCENC  =        41.02954870
  PAW double counting   =       381.53107322     -384.52191178
  entropy T*S    EENTRO =         0.00000000
  eigenvalues    EBANDS =      -150.65136600
  atomic energy  EATOM  =       579.07123046
  ---------------------------------------------------
  free energy    TOTEN  =       -14.80451035 eV

  energy without entropy =      -14.80451035  energy(sigma->0) =      -14.80451035


--------------------------------------------------------------------------------------------------------




----------------------------------------- Iteration    1(  14)  ---------------------------------------


    POTLOK:  cpu time    3.99: real time    4.89
    SETDIJ:  cpu time    0.01: real time    0.01
     EDDAV:  cpu time    2.46: real time    2.93
       DOS:  cpu time    0.00: real time    0.00
    CHARGE:  cpu time    0.74: real time    0.85
    MIXING:  cpu time    0.14: real time    0.23
    --------------------------------------------
      LOOP:  cpu time    7.33: real time    8.92

 eigenvalue-minimisations  :    19
 total energy-change (2. order) :-0.2756618E-03  (-0.2378025E-05)
 number of electron      10.0000011 magnetization 
 augmentation part        0.6420948 magnetization 

 Broyden mixing:
  rms(total) = 0.35337E-03    rms(broyden)= 0.35319E-03
  rms(prec ) = 0.68695E-03
  weight for this iteration     100.00

 eigenvalues of (default mixing * dielectric matrix)
  average eigenvalue GAMMA=   2.3517
  7.1372  3.5960  2.6096  2.4052  1.6678  0.7550  0.9518  1.0361  1.0063

 Free energy of the ion-electron system (eV)
  ---------------------------------------------------
  alpha Z        PSCENC =         0.43525486
  Ewald energy   TEWEN  =        98.88049534
  -1/2 Hartree   DENC   =      -580.59051294
  -exchange  EXHF       =         0.00000000
  -V(xc)+E(xc)   XCENC  =        41.02969557
  PAW double counting   =       381.58012698     -384.57091249
  entropy T*S    EENTRO =         0.00000000
  eigenvalues    EBANDS =      -150.64016379
  atomic energy  EATOM  =       579.07123046
  ---------------------------------------------------
  free energy    TOTEN  =       -14.80478601 eV

  energy without entropy =      -14.80478601  energy(sigma->0) =      -14.80478601


--------------------------------------------------------------------------------------------------------




----------------------------------------- Iteration    1(  15)  ---------------------------------------


    POTLOK:  cpu time    3.96: real time    4.60
    SETDIJ:  cpu time    0.01: real time    0.01
     EDDAV:  cpu time    2.15: real time    2.69
       DOS:  cpu time    0.00: real time    0.00
    CHARGE:  cpu time    0.73: real time    0.88
    MIXING:  cpu time    0.15: real time    0.15
    --------------------------------------------
      LOOP:  cpu time    7.00: real time    8.34

 eigenvalue-minimisations  :    20
 total energy-change (2. order) :-0.1747304E-03  (-0.1310128E-05)
 number of electron      10.0000011 magnetization 
 augmentation part        0.6421024 magnetization 

 Broyden mixing:
  rms(total) = 0.19168E-03    rms(broyden)= 0.19158E-03
  rms(prec ) = 0.30750E-03
  weight for this iteration     100.00

 eigenvalues of (default mixing * dielectric matrix)
  average eigenvalue GAMMA=   2.3584
  7.4617  4.0404  2.5404  2.4658  1.7438  1.5474  0.7549  1.1116  0.9590  0.9590

 Free energy of the ion-electron system (eV)
  ---------------------------------------------------
  alpha Z        PSCENC =         0.43525486
  Ewald energy   TEWEN  =        98.88049534
  -1/2 Hartree   DENC   =      -580.57493859
  -exchange  EXHF       =         0.00000000
  -V(xc)+E(xc)   XCENC  =        41.02858220
  PAW double counting   =       381.59603424     -384.58591190
  entropy T*S    EENTRO =         0.00000000
  eigenvalues    EBANDS =      -150.65570736
  atomic energy  EATOM  =       579.07123046
  ---------------------------------------------------
  free energy    TOTEN  =       -14.80496074 eV

  energy without entropy =      -14.80496074  energy(sigma->0) =      -14.80496074


--------------------------------------------------------------------------------------------------------




----------------------------------------- Iteration    1(  16)  ---------------------------------------


    POTLOK:  cpu time    4.34: real time    4.70
    SETDIJ:  cpu time    0.01: real time    0.01
     EDDAV:  cpu time    2.50: real time    3.16
       DOS:  cpu time    0.00: real time    0.00
    CHARGE:  cpu time    0.70: real time    0.85
    MIXING:  cpu time    0.14: real time    0.21
    --------------------------------------------
      LOOP:  cpu time    7.70: real time    9.06

 eigenvalue-minimisations  :    20
 total energy-change (2. order) :-0.3642835E-04  (-0.1573079E-06)
 number of electron      10.0000011 magnetization 
 augmentation part        0.6420713 magnetization 

 Broyden mixing:
  rms(total) = 0.93116E-04    rms(broyden)= 0.92895E-04
  rms(prec ) = 0.15178E-03
  weight for this iteration     100.00

 eigenvalues of (default mixing * dielectric matrix)
  average eigenvalue GAMMA=   2.5070
  8.3877  4.6893  3.1767  2.5047  2.3876  1.6764  0.7549  1.0432  1.0432  0.9565
  0.9565

 Free energy of the ion-electron system (eV)
  ---------------------------------------------------
  alpha Z        PSCENC =         0.43525486
  Ewald energy   TEWEN  =        98.88049534
  -1/2 Hartree   DENC   =      -580.57469951
  -exchange  EXHF       =         0.00000000
  -V(xc)+E(xc)   XCENC  =        41.02863200
  PAW double counting   =       381.58760765     -384.57764923
  entropy T*S    EENTRO =         0.00000000
  eigenvalues    EBANDS =      -150.65586874
  atomic energy  EATOM  =       579.07123046
  ---------------------------------------------------
  free energy    TOTEN  =       -14.80499717 eV

  energy without entropy =      -14.80499717  energy(sigma->0) =      -14.80499717


--------------------------------------------------------------------------------------------------------




----------------------------------------- Iteration    1(  17)  ---------------------------------------


    POTLOK:  cpu time    4.47: real time    5.68
    SETDIJ:  cpu time    0.01: real time    0.01
     EDDAV:  cpu time    2.27: real time    2.46
       DOS:  cpu time    0.00: real time    0.00
    CHARGE:  cpu time    0.72: real time    0.80
    MIXING:  cpu time    0.20: real time    0.24
    --------------------------------------------
      LOOP:  cpu time    7.67: real time    9.21

 eigenvalue-minimisations  :    20
 total energy-change (2. order) :-0.1718785E-04  (-0.7420815E-07)
 number of electron      10.0000011 magnetization 
 augmentation part        0.6420782 magnetization 

 Broyden mixing:
  rms(total) = 0.62726E-04    rms(broyden)= 0.62712E-04
  rms(prec ) = 0.85992E-04
  weight for this iteration     100.00

 eigenvalues of (default mixing * dielectric matrix)
  average eigenvalue GAMMA=   2.5780
  8.5659  5.0486  3.5380  2.5309  2.5309  2.3139  1.6743  0.7549  1.0576  1.0192
  0.9507  0.9507

 Free energy of the ion-electron system (eV)
  ---------------------------------------------------
  alpha Z        PSCENC =         0.43525486
  Ewald energy   TEWEN  =        98.88049534
  -1/2 Hartree   DENC   =      -580.57013231
  -exchange  EXHF       =         0.00000000
  -V(xc)+E(xc)   XCENC  =        41.02841549
  PAW double counting   =       381.57866496     -384.56868772
  entropy T*S    EENTRO =         0.00000000
  eigenvalues    EBANDS =      -150.66025544
  atomic energy  EATOM  =       579.07123046
  ---------------------------------------------------
  free energy    TOTEN  =       -14.80501436 eV

  energy without entropy =      -14.80501436  energy(sigma->0) =      -14.80501436


--------------------------------------------------------------------------------------------------------




----------------------------------------- Iteration    1(  18)  ---------------------------------------


    POTLOK:  cpu time    4.89: real time    6.79
    SETDIJ:  cpu time    0.01: real time    0.01
     EDDAV:  cpu time    2.35: real time    2.64
       DOS:  cpu time    0.00: real time    0.00
    CHARGE:  cpu time    0.73: real time    0.74
    MIXING:  cpu time    0.15: real time    0.23
    --------------------------------------------
      LOOP:  cpu time    8.14: real time   10.41

 eigenvalue-minimisations  :    18
 total energy-change (2. order) :-0.5077293E-05  (-0.2626885E-07)
 number of electron      10.0000011 magnetization 
 augmentation part        0.6420860 magnetization 

 Broyden mixing:
  rms(total) = 0.25744E-04    rms(broyden)= 0.25689E-04
  rms(prec ) = 0.36501E-04
  weight for this iteration     100.00

 eigenvalues of (default mixing * dielectric matrix)
  average eigenvalue GAMMA=   2.5319
  8.6982  5.4088  3.8300  2.8450  2.4722  2.3341  1.6703  0.7549  1.0344  1.0344
  0.9591  0.9591  0.9139

 Free energy of the ion-electron system (eV)
  ---------------------------------------------------
  alpha Z        PSCENC =         0.43525486
  Ewald energy   TEWEN  =        98.88049534
  -1/2 Hartree   DENC   =      -580.57218262
  -exchange  EXHF       =         0.00000000
  -V(xc)+E(xc)   XCENC  =        41.02852572
  PAW double counting   =       381.58556360     -384.57562382
  entropy T*S    EENTRO =         0.00000000
  eigenvalues    EBANDS =      -150.65828298
  atomic energy  EATOM  =       579.07123046
  ---------------------------------------------------
  free energy    TOTEN  =       -14.80501944 eV

  energy without entropy =      -14.80501944  energy(sigma->0) =      -14.80501944


--------------------------------------------------------------------------------------------------------




----------------------------------------- Iteration    1(  19)  ---------------------------------------


    POTLOK:  cpu time    4.00: real time    5.58
    SETDIJ:  cpu time    0.01: real time    0.01
     EDDAV:  cpu time    2.33: real time    3.10
       DOS:  cpu time    0.00: real time    0.00
    CHARGE:  cpu time    0.69: real time    0.91
    MIXING:  cpu time    0.23: real time    0.31
    --------------------------------------------
      LOOP:  cpu time    7.25: real time   10.11

 eigenvalue-minimisations  :    20
 total energy-change (2. order) :-0.5902392E-06  (-0.1170005E-08)
 number of electron      10.0000011 magnetization 
 augmentation part        0.6420849 magnetization 

 Broyden mixing:
  rms(total) = 0.17428E-04    rms(broyden)= 0.17424E-04
  rms(prec ) = 0.22954E-04
  weight for this iteration     100.00

 eigenvalues of (default mixing * dielectric matrix)
  average eigenvalue GAMMA=   2.5209
  8.7662  5.4938  3.8919  2.6072  2.6072  2.3934  2.0708  1.6645  0.7549  1.1359
  1.0126  1.0126  0.9404  0.9404

 Free energy of the ion-electron system (eV)
  ---------------------------------------------------
  alpha Z        PSCENC =         0.43525486
  Ewald energy   TEWEN  =        98.88049534
  -1/2 Hartree   DENC   =      -580.57162353
  -exchange  EXHF       =         0.00000000
  -V(xc)+E(xc)   XCENC  =        41.02849444
  PAW double counting   =       381.58445091     -384.57451792
  entropy T*S    EENTRO =         0.00000000
  eigenvalues    EBANDS =      -150.65880457
  atomic energy  EATOM  =       579.07123046
  ---------------------------------------------------
  free energy    TOTEN  =       -14.80502003 eV

  energy without entropy =      -14.80502003  energy(sigma->0) =      -14.80502003


--------------------------------------------------------------------------------------------------------




----------------------------------------- Iteration    1(  20)  ---------------------------------------


    POTLOK:  cpu time    4.62: real time    6.99
    SETDIJ:  cpu time    0.01: real time    0.01
     EDDAV:  cpu time    2.50: real time    2.82
       DOS:  cpu time    0.00: real time    0.00
    CHARGE:  cpu time    0.78: real time    0.79
    MIXING:  cpu time    0.18: real time    0.27
    --------------------------------------------
      LOOP:  cpu time    8.11: real time   10.89

 eigenvalue-minimisations  :    19
 total energy-change (2. order) :-0.5327122E-06  (-0.1065587E-08)
 number of electron      10.0000011 magnetization 
 augmentation part        0.6420831 magnetization 

 Broyden mixing:
  rms(total) = 0.65149E-05    rms(broyden)= 0.65040E-05
  rms(prec ) = 0.94881E-05
  weight for this iteration     100.00

 eigenvalues of (default mixing * dielectric matrix)
  average eigenvalue GAMMA=   2.4938
  8.7703  5.5942  4.0364  3.2044  2.5293  2.4917  2.2799  1.6630  0.7549  1.0899
  1.0899  1.0107  1.0107  0.9410  0.9410

 Free energy of the ion-electron system (eV)
  ---------------------------------------------------
  alpha Z        PSCENC =         0.43525486
  Ewald energy   TEWEN  =        98.88049534
  -1/2 Hartree   DENC   =      -580.57122924
  -exchange  EXHF       =         0.00000000
  -V(xc)+E(xc)   XCENC  =        41.02847820
  PAW double counting   =       381.58337207     -384.57341775
  entropy T*S    EENTRO =         0.00000000
  eigenvalues    EBANDS =      -150.65920450
  atomic energy  EATOM  =       579.07123046
  ---------------------------------------------------
  free energy    TOTEN  =       -14.80502056 eV

  energy without entropy =      -14.80502056  energy(sigma->0) =      -14.80502056


--------------------------------------------------------------------------------------------------------




----------------------------------------- Iteration    1(  21)  ---------------------------------------


    POTLOK:  cpu time    4.80: real time    6.23
    SETDIJ:  cpu time    0.01: real time    0.01
     EDDAV:  cpu time    2.52: real time    3.37
       DOS:  cpu time    0.00: real time    0.00
    CHARGE:  cpu time    0.71: real time    1.03
    MIXING:  cpu time    0.19: real time    0.26
    --------------------------------------------
      LOOP:  cpu time    8.23: real time   11.03

 eigenvalue-minimisations  :    19
 total energy-change (2. order) :-0.9189603E-07  (-0.1164899E-09)
 number of electron      10.0000011 magnetization 
 augmentation part        0.6420828 magnetization 

 Broyden mixing:
  rms(total) = 0.64849E-05    rms(broyden)= 0.64802E-05
  rms(prec ) = 0.85269E-05
  weight for this iteration     100.00

 eigenvalues of (default mixing * dielectric matrix)
  average eigenvalue GAMMA=   2.5055
  8.7789  5.6497  4.2005  3.4480  2.6781  2.6781  2.3641  1.7373  1.4346  1.4346
  0.7549  1.0383  1.0383  0.9482  0.9482  0.9568

 Free energy of the ion-electron system (eV)
  ---------------------------------------------------
  alpha Z        PSCENC =         0.43525486
  Ewald energy   TEWEN  =        98.88049534
  -1/2 Hartree   DENC   =      -580.57144918
  -exchange  EXHF       =         0.00000000
  -V(xc)+E(xc)   XCENC  =        41.02849213
  PAW double counting   =       381.58385941     -384.57391035
  entropy T*S    EENTRO =         0.00000000
  eigenvalues    EBANDS =      -150.65899333
  atomic energy  EATOM  =       579.07123046
  ---------------------------------------------------
  free energy    TOTEN  =       -14.80502065 eV

  energy without entropy =      -14.80502065  energy(sigma->0) =      -14.80502065


--------------------------------------------------------------------------------------------------------




----------------------------------------- Iteration    1(  22)  ---------------------------------------


    POTLOK:  cpu time    4.78: real time    6.78
    SETDIJ:  cpu time    0.01: real time    0.01
     EDDAV:  cpu time    2.33: real time    2.97
       DOS:  cpu time    0.00: real time    0.00
    CHARGE:  cpu time    0.74: real time    1.06
    MIXING:  cpu time    0.23: real time    0.67
    --------------------------------------------
      LOOP:  cpu time    8.10: real time   11.56

 eigenvalue-minimisations  :    20
 total energy-change (2. order) :-0.6927053E-07  (-0.6901146E-10)
 number of electron      10.0000011 magnetization 
 augmentation part        0.6420835 magnetization 

 Broyden mixing:
  rms(total) = 0.25050E-05    rms(broyden)= 0.25023E-05
  rms(prec ) = 0.34868E-05
  weight for this iteration     100.00

 eigenvalues of (default mixing * dielectric matrix)
  average eigenvalue GAMMA=   2.4727
  8.7888  5.6945  4.6077  3.6094  2.9013  2.3781  2.3781  1.8597  1.6503  1.4205
  0.7549  1.0614  1.0565  0.9531  0.9531  0.9839  0.9839

 Free energy of the ion-electron system (eV)
  ---------------------------------------------------
  alpha Z        PSCENC =         0.43525486
  Ewald energy   TEWEN  =        98.88049534
  -1/2 Hartree   DENC   =      -580.57126059
  -exchange  EXHF       =         0.00000000
  -V(xc)+E(xc)   XCENC  =        41.02848377
  PAW double counting   =       381.58356060     -384.57361632
  entropy T*S    EENTRO =         0.00000000
  eigenvalues    EBANDS =      -150.65916884
  atomic energy  EATOM  =       579.07123046
  ---------------------------------------------------
  free energy    TOTEN  =       -14.80502072 eV

  energy without entropy =      -14.80502072  energy(sigma->0) =      -14.80502072


--------------------------------------------------------------------------------------------------------




----------------------------------------- Iteration    1(  23)  ---------------------------------------


    POTLOK:  cpu time    4.37: real time    5.19
    SETDIJ:  cpu time    0.01: real time    0.01
     EDDAV:  cpu time    2.51: real time    3.89
       DOS:  cpu time    0.00: real time    0.00
    CHARGE:  cpu time    0.85: real time    1.02
    MIXING:  cpu time    0.19: real time    0.25
    --------------------------------------------
      LOOP:  cpu time    7.94: real time   10.38

 eigenvalue-minimisations  :    20
 total energy-change (2. order) :-0.1962985E-07  (-0.2163603E-10)
 number of electron      10.0000011 magnetization 
 augmentation part        0.6420837 magnetization 

 Broyden mixing:
  rms(total) = 0.23489E-05    rms(broyden)= 0.23473E-05
  rms(prec ) = 0.32315E-05
  weight for this iteration     100.00

 eigenvalues of (default mixing * dielectric matrix)
  average eigenvalue GAMMA=   2.6245
  8.8074  6.7209  5.5299  4.0050  3.2903  2.7268  2.4299  2.3299  1.7068  1.5774
  1.4194  0.7549  1.0601  1.0209  0.9536  0.9536  0.9771  0.9771

 Free energy of the ion-electron system (eV)
  ---------------------------------------------------
  alpha Z        PSCENC =         0.43525486
  Ewald energy   TEWEN  =        98.88049534
  -1/2 Hartree   DENC   =      -580.57138894
  -exchange  EXHF       =         0.00000000
  -V(xc)+E(xc)   XCENC  =        41.02849213
  PAW double counting   =       381.58400193     -384.57405691
  entropy T*S    EENTRO =         0.00000000
  eigenvalues    EBANDS =      -150.65904961
  atomic energy  EATOM  =       579.07123046
  ---------------------------------------------------
  free energy    TOTEN  =       -14.80502074 eV

  energy without entropy =      -14.80502074  energy(sigma->0) =      -14.80502074


--------------------------------------------------------------------------------------------------------




----------------------------------------- Iteration    1(  24)  ---------------------------------------


    POTLOK:  cpu time    4.87: real time    6.90
    SETDIJ:  cpu time    0.01: real time    0.01
     EDDAV:  cpu time    2.61: real time    3.79
       DOS:  cpu time    0.00: real time    0.00
    CHARGE:  cpu time    0.78: real time    1.18
    MIXING:  cpu time    0.22: real time    0.29
    --------------------------------------------
      LOOP:  cpu time    8.48: real time   12.18

 eigenvalue-minimisations  :    20
 total energy-change (2. order) :-0.1089165E-07  (-0.1042011E-10)
 number of electron      10.0000011 magnetization 
 augmentation part        0.6420836 magnetization 

 Broyden mixing:
  rms(total) = 0.74133E-06    rms(broyden)= 0.74084E-06
  rms(prec ) = 0.92811E-06
  weight for this iteration     100.00

 eigenvalues of (default mixing * dielectric matrix)
  average eigenvalue GAMMA=   2.6340
  8.8044  7.3746  5.5571  4.0527  3.2215  2.8436  2.4750  2.3466  1.9170  1.9170
  1.6672  0.7549  1.1666  1.0595  0.9544  0.9544  1.0039  0.9882  0.9882

 Free energy of the ion-electron system (eV)
  ---------------------------------------------------
  alpha Z        PSCENC =         0.43525486
  Ewald energy   TEWEN  =        98.88049534
  -1/2 Hartree   DENC   =      -580.57130323
  -exchange  EXHF       =         0.00000000
  -V(xc)+E(xc)   XCENC  =        41.02848835
  PAW double counting   =       381.58386466     -384.57391979
  entropy T*S    EENTRO =         0.00000000
  eigenvalues    EBANDS =      -150.65913140
  atomic energy  EATOM  =       579.07123046
  ---------------------------------------------------
  free energy    TOTEN  =       -14.80502075 eV

  energy without entropy =      -14.80502075  energy(sigma->0) =      -14.80502075


--------------------------------------------------------------------------------------------------------




----------------------------------------- Iteration    1(  25)  ---------------------------------------


    POTLOK:  cpu time    4.49: real time    5.95
    SETDIJ:  cpu time    0.01: real time    0.01
     EDDAV:  cpu time    2.15: real time    2.98
       DOS:  cpu time    0.00: real time    0.00
    --------------------------------------------
      LOOP:  cpu time    6.65: real time    9.02

 eigenvalue-minimisations  :    20
 total energy-change (2. order) :-0.1068543E-08  ( 0.8963497E-11)
 number of electron      10.0000011 magnetization 
 augmentation part        0.6420836 magnetization 

 Free energy of the ion-electron system (eV)
  ---------------------------------------------------
  alpha Z        PSCENC =         0.43525486
  Ewald energy   TEWEN  =        98.88049534
  -1/2 Hartree   DENC   =      -580.57129989
  -exchange  EXHF       =         0.00000000
  -V(xc)+E(xc)   XCENC  =        41.02848838
  PAW double counting   =       381.58386898     -384.57392343
  entropy T*S    EENTRO =         0.00000000
  eigenvalues    EBANDS =      -150.65913545
  atomic energy  EATOM  =       579.07123046
  ---------------------------------------------------
  free energy    TOTEN  =       -14.80502075 eV

  energy without entropy =      -14.80502075  energy(sigma->0) =      -14.80502075


--------------------------------------------------------------------------------------------------------




 average (electrostatic) potential at core
  the test charge radii are     0.6991  0.7215
  (the norm of the test charge is              1.0000)
       1 -61.6268       2 -83.6307
 
 
 
 E-fermi :  -8.6253     XC(G=0):  -0.6708     alpha+bet : -0.1753


 k-point   1 :       0.0000    0.0000    0.0000
  band No.  band energies     occupation 
      1     -29.1856      2.00000
      2     -13.9534      2.00000
      3     -11.6323      2.00000
      4     -11.6323      2.00000
      5      -8.9260      2.00000
      6      -2.0051      0.00000
      7      -2.0051      0.00000
      8      -0.2273      0.00000
      9       1.0446      0.00000


--------------------------------------------------------------------------------------------------------


 soft charge-density along one line, spin component           1
         0         1         2         3         4         5         6         7         8         9
 total charge-density along one line
 
 pseudopotential strength for first ion, spin component:           1
 10.408   0.025   0.000   0.000   0.023   0.000   0.000  -0.020
  0.025  -0.001   0.000   0.000  -0.001   0.000   0.000   0.000
  0.000   0.000  -4.546   0.000   0.000  -0.012   0.000   0.000
  0.000   0.000   0.000  -4.546   0.000   0.000  -0.012   0.000
  0.023  -0.001   0.000   0.000  -4.549   0.000   0.000  -0.020
  0.000   0.000  -0.012   0.000   0.000  -0.777   0.000   0.000
  0.000   0.000   0.000  -0.012   0.000   0.000  -0.777   0.000
 -0.020   0.000   0.000   0.000  -0.020   0.000   0.000  -0.776
 total augmentation occupancy for first ion, spin component:           1
  1.863  -0.606   0.000   0.000  -0.170   0.000   0.000   0.106
 -0.606   1.215   0.000   0.000  -0.917   0.000   0.000  -0.316
  0.000   0.000   0.593   0.000   0.000   0.099   0.000   0.000
  0.000   0.000   0.000   0.593   0.000   0.000   0.099   0.000
 -0.170  -0.917   0.000   0.000   1.486   0.000   0.000   0.296
  0.000   0.000   0.099   0.000   0.000   0.017   0.000   0.000
  0.000   0.000   0.000   0.099   0.000   0.000   0.017   0.000
  0.106  -0.316   0.000   0.000   0.296   0.000   0.000   0.087


------------------------ aborting loop because EDIFF is reached ----------------------------------------


    CHARGE:  cpu time    0.74: real time    0.91
    FORLOC:  cpu time    0.31: real time    0.49
    FORNL :  cpu time    0.06: real time    0.13
    STRESS:  cpu time    0.59: real time    0.89
    FORHAR:  cpu time    1.39: real time    1.90
    MIXING:  cpu time    0.24: real time    0.24

  FORCE on cell =-STRESS in cart. coord.  units (eV):
  Direction    XX          YY          ZZ          XY          YZ          ZX
  --------------------------------------------------------------------------------------
  Alpha Z     0.43525     0.43525     0.43525
  Ewald     236.00106   -68.56031   -68.56031     0.00000     0.00000     0.00000
  Hartree   266.21904   157.17612   157.17612     0.00000     0.00000     0.00000
  E(xc)     -42.53181   -43.71057   -43.71057     0.00000     0.00000     0.00000
  Local    -613.32901  -225.85943  -225.85943     0.00000     0.00000     0.00000
  n-local   -30.29331   -18.94657   -18.94657     0.00000     0.00000     0.00000
  augment     5.71642     6.17708     6.17708     0.00000     0.00000     0.00000
  Kinetic   175.24524   190.94111   190.94111     0.00000     0.00000     0.00000
  Fock        0.00000     0.00000     0.00000     0.00000     0.00000     0.00000
  -------------------------------------------------------------------------------------
  Total      -2.53713    -2.34731    -2.34731     0.00000     0.00000     0.00000
  in kB      -4.06492    -3.76081    -3.76081     0.00000     0.00000     0.00000
  external pressure =       -3.86 kB  Pullay stress =        0.00 kB


 VOLUME and BASIS-vectors are now :
 -----------------------------------------------------------------------------
  energy-cutoff  :      350.00
  volume of cell :     1000.00
      direct lattice vectors                 reciprocal lattice vectors
    10.000000000  0.000000000  0.000000000     0.100000000  0.000000000  0.000000000
     0.000000000 10.000000000  0.000000000     0.000000000  0.100000000  0.000000000
     0.000000000  0.000000000 10.000000000     0.000000000  0.000000000  0.100000000

  length of vectors
    10.000000000 10.000000000 10.000000000     0.100000000  0.100000000  0.100000000


 FORCES acting on ions
    electron-ion (+dipol)            ewald-force                    non-local-force                 convergence-correction
 -----------------------------------------------------------------------------------------------
   0.235E+03 0.680E-12 -.258E-05   -.263E+03 -.110E-16 -.222E-16   0.280E+02 -.232E-26 0.000E+00   0.122E-05 -.289E-14 -.196E-13
   -.203E+03 -.686E-12 0.305E-05   0.263E+03 0.680E-17 0.148E-16   -.596E+02 0.129E-25 0.000E+00   -.540E-05 0.155E-15 -.681E-13
 -----------------------------------------------------------------------------------------------
   0.316E+02 -.538E-14 0.466E-06   0.000E+00 -.424E-17 -.746E-17   -.316E+02 0.106E-25 0.000E+00   -.417E-05 -.274E-14 -.877E-13
 
 
 POSITION                                       TOTAL-FORCE (eV/Angst)
 -----------------------------------------------------------------------------------
      4.42820      5.00000      5.00000         0.007614      0.000000      0.000000
      5.57180      5.00000      5.00000        -0.007614      0.000000      0.000000
 -----------------------------------------------------------------------------------
    total drift:                               -0.004849      0.000000      0.000000


--------------------------------------------------------------------------------------------------------



  FREE ENERGIE OF THE ION-ELECTRON SYSTEM (eV)
  ---------------------------------------------------
  free  energy   TOTEN  =       -14.805021 eV

  energy  without entropy=      -14.805021  energy(sigma->0) =      -14.805021
 


--------------------------------------------------------------------------------------------------------


    POTLOK:  cpu time    4.76: real time    6.76


--------------------------------------------------------------------------------------------------------


 
 
Found     4 degrees of freedom:
 
 
        Directions for atom     1:
        --------------------------
 
              1.0000000000000000      0.0000000000000000      0.0000000000000000
              0.0000000000000000      1.0000000000000000      0.0000000000000000
 
 
        Directions for atom     2:
        --------------------------
 
              1.0000000000000000      0.0000000000000000      0.0000000000000000
              0.0000000000000000      1.0000000000000000      0.0000000000000000
 Finite differences:
   Step               POTIM =   1.500000000000000E-002
   Degrees of freedom DOF   =            4
  LATTYP: Found a simple cubic cell.
 ALAT       =    10.0000000000
  
  Lattice vectors:
  
 A1 = (  10.0000000000,   0.0000000000,   0.0000000000)
 A2 = (   0.0000000000,  10.0000000000,   0.0000000000)
 A3 = (   0.0000000000,   0.0000000000,  10.0000000000)
 Subroutine PRICEL returns:
 Original cell was already a primitive cell.
 

Analysis of symmetry for initial positions (statically):

 Routine SETGRP: Setting up the symmetry group for a 
 simple cubic supercell.


 Subroutine GETGRP returns: Found  8 space group operations
 (whereof  8 operations were pure point group operations)
 out of a pool of 48 trial point group operations.


The static configuration has the point symmetry C_4v.

Analysis of symmetry for dynamics (positions and initial velocities):

 Subroutine DYNSYM returns: Found  8 space group operations
 (whereof  8 operations were pure point group operations)
 out of a pool of  8 trial space group operations
 (whereof  8 operations were pure point group operations)
 and found also     1 'primitive' translations


The dynamic configuration has the point symmetry C_4v.
 
 KPOINTS: KPOINTS created by Atomic Simulation Env

Automatic generation of k-mesh.
 
 Subroutine IBZKPT returns following result:
 ===========================================
 
 Found      1 irreducible k-points:
 
 Following reciprocal coordinates:
            Coordinates               Weight
  0.000000  0.000000  0.000000      1.000000
 
 Following cartesian coordinates:
            Coordinates               Weight
  0.000000  0.000000  0.000000      1.000000
 
    WAVPRE:  cpu time    0.68: real time    1.02
    FEWALD:  cpu time    0.00: real time    0.00
    ORTHCH:  cpu time    0.02: real time    0.05
     LOOP+:  cpu time  191.05: real time  250.22


----------------------------------------- Iteration    2(   1)  ---------------------------------------


    POTLOK:  cpu time    4.37: real time    5.38
    SETDIJ:  cpu time    0.01: real time    0.01
     EDDAV:  cpu time    2.22: real time    2.94
       DOS:  cpu time    0.00: real time    0.00
    CHARGE:  cpu time    0.75: real time    0.95
    MIXING:  cpu time    0.12: real time    0.15
    --------------------------------------------
      LOOP:  cpu time    7.47: real time    9.43

 eigenvalue-minimisations  :    19
 total energy-change (2. order) : 0.1162328E-01  (-0.5731475E-01)
 number of electron      10.0000009 magnetization 
 augmentation part        0.6497505 magnetization 

 Broyden mixing:
  rms(total) = 0.30240E-01    rms(broyden)= 0.30024E-01
  rms(prec ) = 0.36335E-01
  weight for this iteration     100.00

 Free energy of the ion-electron system (eV)
  ---------------------------------------------------
  alpha Z        PSCENC =         0.43525486
  Ewald energy   TEWEN  =       102.87131187
  -1/2 Hartree   DENC   =      -582.86811184
  -exchange  EXHF       =         0.00000000
  -V(xc)+E(xc)   XCENC  =        41.09397211
  PAW double counting   =       381.58385160     -384.57390563
  entropy T*S    EENTRO =         0.00000000
  eigenvalues    EBANDS =      -152.40700091
  atomic energy  EATOM  =       579.07123046
  ---------------------------------------------------
  free energy    TOTEN  =       -14.79339747 eV

  energy without entropy =      -14.79339747  energy(sigma->0) =      -14.79339747


--------------------------------------------------------------------------------------------------------




----------------------------------------- Iteration    2(   2)  ---------------------------------------


    POTLOK:  cpu time    4.42: real time    5.84
    SETDIJ:  cpu time    0.01: real time    0.01
     EDDAV:  cpu time    2.14: real time    3.14
       DOS:  cpu time    0.00: real time    0.00
    CHARGE:  cpu time    0.78: real time    0.98
    MIXING:  cpu time    0.16: real time    0.25
    --------------------------------------------
      LOOP:  cpu time    7.51: real time   10.22

 eigenvalue-minimisations  :    18
 total energy-change (2. order) : 0.1186668E-02  (-0.8481057E-03)
 number of electron      10.0000009 magnetization 
 augmentation part        0.6511310 magnetization 

 Broyden mixing:
  rms(total) = 0.18154E-01    rms(broyden)= 0.18120E-01
  rms(prec ) = 0.20954E-01
  weight for this iteration     100.00

 eigenvalues of (default mixing * dielectric matrix)
  average eigenvalue GAMMA=   1.9929
  1.9929

 Free energy of the ion-electron system (eV)
  ---------------------------------------------------
  alpha Z        PSCENC =         0.43525486
  Ewald energy   TEWEN  =       102.87131187
  -1/2 Hartree   DENC   =      -583.33354595
  -exchange  EXHF       =         0.00000000
  -V(xc)+E(xc)   XCENC  =        41.12250720
  PAW double counting   =       383.79499492     -386.79410262
  entropy T*S    EENTRO =         0.00000000
  eigenvalues    EBANDS =      -151.95986154
  atomic energy  EATOM  =       579.07123046
  ---------------------------------------------------
  free energy    TOTEN  =       -14.79221081 eV

  energy without entropy =      -14.79221081  energy(sigma->0) =      -14.79221081


--------------------------------------------------------------------------------------------------------




----------------------------------------- Iteration    2(   3)  ---------------------------------------


    POTLOK:  cpu time    4.21: real time    5.80
    SETDIJ:  cpu time    0.01: real time    0.01
     EDDAV:  cpu time    2.25: real time    2.51
       DOS:  cpu time    0.00: real time    0.00
    CHARGE:  cpu time    0.67: real time    0.75
    MIXING:  cpu time    0.12: real time    0.12
    --------------------------------------------
      LOOP:  cpu time    7.27: real time    9.32

 eigenvalue-minimisations  :    18
 total energy-change (2. order) : 0.3113037E-03  (-0.2908273E-03)
 number of electron      10.0000009 magnetization 
 augmentation part        0.6497992 magnetization 

 Broyden mixing:
  rms(total) = 0.51243E-02    rms(broyden)= 0.51082E-02
  rms(prec ) = 0.61652E-02
  weight for this iteration     100.00

 eigenvalues of (default mixing * dielectric matrix)
  average eigenvalue GAMMA=   1.4301
  0.8864  1.9739

 Free energy of the ion-electron system (eV)
  ---------------------------------------------------
  alpha Z        PSCENC =         0.43525486
  Ewald energy   TEWEN  =       102.87131187
  -1/2 Hartree   DENC   =      -583.85699667
  -exchange  EXHF       =         0.00000000
  -V(xc)+E(xc)   XCENC  =        41.15307514
  PAW double counting   =       386.30519229     -389.31919238
  entropy T*S    EENTRO =         0.00000000
  eigenvalues    EBANDS =      -151.45177507
  atomic energy  EATOM  =       579.07123046
  ---------------------------------------------------
  free energy    TOTEN  =       -14.79189950 eV

  energy without entropy =      -14.79189950  energy(sigma->0) =      -14.79189950


--------------------------------------------------------------------------------------------------------




----------------------------------------- Iteration    2(   4)  ---------------------------------------


    POTLOK:  cpu time    4.39: real time    5.91
    SETDIJ:  cpu time    0.01: real time    0.01
     EDDAV:  cpu time    2.40: real time    2.48
       DOS:  cpu time    0.00: real time    0.00
    CHARGE:  cpu time    0.64: real time    0.65
    MIXING:  cpu time    0.12: real time    0.20
    --------------------------------------------
      LOOP:  cpu time    7.57: real time    9.26

 eigenvalue-minimisations  :    20
 total energy-change (2. order) : 0.1852786E-04  (-0.1759547E-04)
 number of electron      10.0000009 magnetization 
 augmentation part        0.6502275 magnetization 

 Broyden mixing:
  rms(total) = 0.24483E-02    rms(broyden)= 0.24474E-02
  rms(prec ) = 0.29205E-02
  weight for this iteration     100.00

 eigenvalues of (default mixing * dielectric matrix)
  average eigenvalue GAMMA=   1.4934
  1.9167  1.7989  0.7648

 Free energy of the ion-electron system (eV)
  ---------------------------------------------------
  alpha Z        PSCENC =         0.43525486
  Ewald energy   TEWEN  =       102.87131187
  -1/2 Hartree   DENC   =      -583.78812370
  -exchange  EXHF       =         0.00000000
  -V(xc)+E(xc)   XCENC  =        41.14937418
  PAW double counting   =       386.40403997     -389.41772795
  entropy T*S    EENTRO =         0.00000000
  eigenvalues    EBANDS =      -151.51724067
  atomic energy  EATOM  =       579.07123046
  ---------------------------------------------------
  free energy    TOTEN  =       -14.79188097 eV

  energy without entropy =      -14.79188097  energy(sigma->0) =      -14.79188097


--------------------------------------------------------------------------------------------------------




----------------------------------------- Iteration    2(   5)  ---------------------------------------


    POTLOK:  cpu time    3.99: real time    5.23
    SETDIJ:  cpu time    0.01: real time    0.01
     EDDAV:  cpu time    2.19: real time    2.29
       DOS:  cpu time    0.00: real time    0.00
    CHARGE:  cpu time    0.78: real time    0.86
    MIXING:  cpu time    0.13: real time    0.13
    --------------------------------------------
      LOOP:  cpu time    7.10: real time    8.58

 eigenvalue-minimisations  :    18
 total energy-change (2. order) :-0.1766534E-04  (-0.2327741E-05)
 number of electron      10.0000009 magnetization 
 augmentation part        0.6502676 magnetization 

 Broyden mixing:
  rms(total) = 0.83357E-03    rms(broyden)= 0.83311E-03
  rms(prec ) = 0.11303E-02
  weight for this iteration     100.00

 eigenvalues of (default mixing * dielectric matrix)
  average eigenvalue GAMMA=   1.5298
  2.5925  1.6277  1.1024  0.7966

 Free energy of the ion-electron system (eV)
  ---------------------------------------------------
  alpha Z        PSCENC =         0.43525486
  Ewald energy   TEWEN  =       102.87131187
  -1/2 Hartree   DENC   =      -583.74177134
  -exchange  EXHF       =         0.00000000
  -V(xc)+E(xc)   XCENC  =        41.14681045
  PAW double counting   =       386.55531207     -389.56887834
  entropy T*S    EENTRO =         0.00000000
  eigenvalues    EBANDS =      -151.56116866
  atomic energy  EATOM  =       579.07123046
  ---------------------------------------------------
  free energy    TOTEN  =       -14.79189864 eV

  energy without entropy =      -14.79189864  energy(sigma->0) =      -14.79189864


[...]


    POTLOK:  cpu time    4.76: real time    6.32
    SETDIJ:  cpu time    0.01: real time    0.01
     EDDAV:  cpu time    2.20: real time    3.08
       DOS:  cpu time    0.00: real time    0.00
    CHARGE:  cpu time    0.70: real time    0.75
    MIXING:  cpu time    0.15: real time    0.25
    --------------------------------------------
      LOOP:  cpu time    7.81: real time   10.45

 eigenvalue-minimisations  :    20
 total energy-change (2. order) :-0.3005016E-06  (-0.6192238E-09)
 number of electron      10.0000006 magnetization 
 augmentation part        0.6420304 magnetization 

 Broyden mixing:
  rms(total) = 0.47621E-05    rms(broyden)= 0.47607E-05
  rms(prec ) = 0.63501E-05
  weight for this iteration     100.00

 eigenvalues of (default mixing * dielectric matrix)
  average eigenvalue GAMMA=   1.8371
  5.4009  2.8033  2.4309  1.8350  1.4975  1.4975  0.8384  1.0552  0.9305  0.9305
  0.9880

 Free energy of the ion-electron system (eV)
  ---------------------------------------------------
  alpha Z        PSCENC =         0.43525486
  Ewald energy   TEWEN  =        98.85465687
  -1/2 Hartree   DENC   =      -580.55051659
  -exchange  EXHF       =         0.00000000
  -V(xc)+E(xc)   XCENC  =        41.02771447
  PAW double counting   =       381.55124334     -384.54114674
  entropy T*S    EENTRO =         0.00000000
  eigenvalues    EBANDS =      -150.65344882
  atomic energy  EATOM  =       579.07123046
  ---------------------------------------------------
  free energy    TOTEN  =       -14.80501215 eV

  energy without entropy =      -14.80501215  energy(sigma->0) =      -14.80501215


--------------------------------------------------------------------------------------------------------




----------------------------------------- Iteration    9(  13)  ---------------------------------------


    POTLOK:  cpu time    4.63: real time    6.59
    SETDIJ:  cpu time    0.01: real time    0.01
     EDDAV:  cpu time    2.28: real time    2.61
       DOS:  cpu time    0.00: real time    0.00
    CHARGE:  cpu time    0.64: real time    0.87
    MIXING:  cpu time    0.17: real time    0.17
    --------------------------------------------
      LOOP:  cpu time    7.73: real time   10.27

 eigenvalue-minimisations  :    20
 total energy-change (2. order) :-0.4547337E-07  (-0.1480771E-10)
 number of electron      10.0000006 magnetization 
 augmentation part        0.6420304 magnetization 

 Broyden mixing:
  rms(total) = 0.11058E-05    rms(broyden)= 0.11047E-05
  rms(prec ) = 0.29760E-05
  weight for this iteration     100.00

 eigenvalues of (default mixing * dielectric matrix)
  average eigenvalue GAMMA=   1.9402
  5.7348  3.0733  2.5565  2.5565  1.6772  1.4374  1.4374  0.8391  1.0819  0.9403
  0.9403  1.0074

 Free energy of the ion-electron system (eV)
  ---------------------------------------------------
  alpha Z        PSCENC =         0.43525486
  Ewald energy   TEWEN  =        98.85465687
  -1/2 Hartree   DENC   =      -580.55053856
  -exchange  EXHF       =         0.00000000
  -V(xc)+E(xc)   XCENC  =        41.02771580
  PAW double counting   =       381.55124865     -384.54115238
  entropy T*S    EENTRO =         0.00000000
  eigenvalues    EBANDS =      -150.65342791
  atomic energy  EATOM  =       579.07123046
  ---------------------------------------------------
  free energy    TOTEN  =       -14.80501220 eV

  energy without entropy =      -14.80501220  energy(sigma->0) =      -14.80501220


--------------------------------------------------------------------------------------------------------




----------------------------------------- Iteration    9(  14)  ---------------------------------------


    POTLOK:  cpu time    4.10: real time    5.22
    SETDIJ:  cpu time    0.01: real time    0.01
     EDDAV:  cpu time    2.40: real time    3.24
       DOS:  cpu time    0.00: real time    0.00
    CHARGE:  cpu time    0.70: real time    0.85
    MIXING:  cpu time    0.18: real time    0.24
    --------------------------------------------
      LOOP:  cpu time    7.37: real time    9.57

 eigenvalue-minimisations  :    20
 total energy-change (2. order) :-0.3494756E-07  (-0.4765255E-10)
 number of electron      10.0000006 magnetization 
 augmentation part        0.6420304 magnetization 

 Broyden mixing:
  rms(total) = 0.20955E-05    rms(broyden)= 0.20953E-05
  rms(prec ) = 0.26809E-05
  weight for this iteration     100.00

 eigenvalues of (default mixing * dielectric matrix)
  average eigenvalue GAMMA=   1.9711
  5.8482  3.9804  2.6632  2.3955  1.8100  1.5407  1.5407  0.8396  1.0612  1.0612
  0.9284  0.9772  0.9772

 Free energy of the ion-electron system (eV)
  ---------------------------------------------------
  alpha Z        PSCENC =         0.43525486
  Ewald energy   TEWEN  =        98.85465687
  -1/2 Hartree   DENC   =      -580.55054277
  -exchange  EXHF       =         0.00000000
  -V(xc)+E(xc)   XCENC  =        41.02771629
  PAW double counting   =       381.55124982     -384.54115376
  entropy T*S    EENTRO =         0.00000000
  eigenvalues    EBANDS =      -150.65342401
  atomic energy  EATOM  =       579.07123046
  ---------------------------------------------------
  free energy    TOTEN  =       -14.80501223 eV

  energy without entropy =      -14.80501223  energy(sigma->0) =      -14.80501223


--------------------------------------------------------------------------------------------------------




----------------------------------------- Iteration    9(  15)  ---------------------------------------


    POTLOK:  cpu time    4.53: real time    6.49
    SETDIJ:  cpu time    0.01: real time    0.01
     EDDAV:  cpu time    2.04: real time    2.73
       DOS:  cpu time    0.00: real time    0.00
    --------------------------------------------
      LOOP:  cpu time    6.58: real time    9.24

 eigenvalue-minimisations  :    20
 total energy-change (2. order) :-0.5113066E-08  ( 0.3772982E-11)
 number of electron      10.0000006 magnetization 
 augmentation part        0.6420304 magnetization 

 Free energy of the ion-electron system (eV)
  ---------------------------------------------------
  alpha Z        PSCENC =         0.43525486
  Ewald energy   TEWEN  =        98.85465687
  -1/2 Hartree   DENC   =      -580.55052144
  -exchange  EXHF       =         0.00000000
  -V(xc)+E(xc)   XCENC  =        41.02771523
  PAW double counting   =       381.55122966     -384.54113332
  entropy T*S    EENTRO =         0.00000000
  eigenvalues    EBANDS =      -150.65344455
  atomic energy  EATOM  =       579.07123046
  ---------------------------------------------------
  free energy    TOTEN  =       -14.80501224 eV

  energy without entropy =      -14.80501224  energy(sigma->0) =      -14.80501224


--------------------------------------------------------------------------------------------------------




 average (electrostatic) potential at core
  the test charge radii are     0.6991  0.7215
  (the norm of the test charge is              1.0000)
       1 -61.6272       2 -83.6303
 
 
 
 E-fermi :  -8.6248     XC(G=0):  -0.6707     alpha+bet : -0.1753


 k-point   1 :       0.0000    0.0000    0.0000
  band No.  band energies     occupation 
      1     -29.1841      2.00000
      2     -13.9535      2.00000
      3     -11.6314      2.00000
      4     -11.6314      2.00000
      5      -8.9262      2.00000
      6      -2.0060      0.00000
      7      -2.0060      0.00000
      8      -0.2273      0.00000
      9       1.0447      0.00000


--------------------------------------------------------------------------------------------------------


 soft charge-density along one line, spin component           1
         0         1         2         3         4         5         6         7         8         9
 total charge-density along one line
 
 pseudopotential strength for first ion, spin component:           1
 10.408   0.025   0.000   0.000   0.023   0.000   0.000  -0.020
  0.025  -0.001   0.000   0.000  -0.001   0.000   0.000   0.000
  0.000   0.000  -4.546   0.000   0.000  -0.012   0.000   0.000
  0.000   0.000   0.000  -4.546   0.000   0.000  -0.012   0.000
  0.023  -0.001   0.000   0.000  -4.549   0.000   0.000  -0.020
  0.000   0.000  -0.012   0.000   0.000  -0.777   0.000   0.000
  0.000   0.000   0.000  -0.012   0.000   0.000  -0.777   0.000
 -0.020   0.000   0.000   0.000  -0.020   0.000   0.000  -0.776
 total augmentation occupancy for first ion, spin component:           1
  1.863  -0.606   0.002   0.000  -0.170  -0.001   0.000   0.106
 -0.606   1.215   0.012   0.000  -0.917   0.004   0.000  -0.316
  0.002   0.012   0.593   0.000  -0.012   0.099   0.000  -0.003
  0.000   0.000   0.000   0.593   0.000   0.000   0.099   0.000
 -0.170  -0.917  -0.012   0.000   1.486  -0.003   0.000   0.296
 -0.001   0.004   0.099   0.000  -0.003   0.017   0.000  -0.001
  0.000   0.000   0.000   0.099   0.000   0.000   0.017   0.000
  0.106  -0.316  -0.003   0.000   0.296  -0.001   0.000   0.086


------------------------ aborting loop because EDIFF is reached ----------------------------------------


    CHARGE:  cpu time    0.62: real time    0.70
    FORLOC:  cpu time    0.27: real time    0.32
    FORNL :  cpu time    0.06: real time    0.06
    STRESS:  cpu time    0.67: real time    1.06
    FORHAR:  cpu time    1.34: real time    1.78
    MIXING:  cpu time    0.17: real time    0.17

  FORCE on cell =-STRESS in cart. coord.  units (eV):
  Direction    XX          YY          ZZ          XY          YZ          ZX
  --------------------------------------------------------------------------------------
  Alpha Z     0.43525     0.43525     0.43525
  Ewald     235.92300   -68.50800   -68.56039    -3.92525     0.00000     0.00000
  Hartree   266.19524   157.18701   157.16826    -1.35569     0.00000     0.00000
  E(xc)     -42.53125   -43.70957   -43.70977    -0.01546     0.00000     0.00000
  Local    -613.24275  -225.91595  -225.84932     4.93838     0.00000     0.00000
  n-local   -30.28852   -18.94723   -18.94529     0.14878     0.00000     0.00000
  augment     5.71695     6.17691     6.17703     0.00564     0.00000     0.00000
  Kinetic   175.24234   190.93428   190.93700     0.20561     0.00000     0.00000
  Fock        0.00000     0.00000     0.00000     0.00000     0.00000     0.00000
  -------------------------------------------------------------------------------------
  Total      -2.54973    -2.34730    -2.34723     0.00202     0.00000     0.00000
  in kB      -4.08513    -3.76078    -3.76067     0.00323     0.00000     0.00000
  external pressure =       -3.87 kB  Pullay stress =        0.00 kB


 VOLUME and BASIS-vectors are now :
 -----------------------------------------------------------------------------
  energy-cutoff  :      350.00
  volume of cell :     1000.00
      direct lattice vectors                 reciprocal lattice vectors
    10.000000000  0.000000000  0.000000000     0.100000000  0.000000000  0.000000000
     0.000000000 10.000000000  0.000000000     0.000000000  0.100000000  0.000000000
     0.000000000  0.000000000 10.000000000     0.000000000  0.000000000  0.100000000

  length of vectors
    10.000000000 10.000000000 10.000000000     0.100000000  0.100000000  0.100000000


 FORCES acting on ions
    electron-ion (+dipol)            ewald-force                    non-local-force                 convergence-correction
 -----------------------------------------------------------------------------------------------
   0.234E+03 -.308E+01 -.251E-05   -.262E+03 0.344E+01 -.801E-17   0.280E+02 -.367E+00 0.000E+00   0.330E-05 -.726E-05 -.246E-13
   -.203E+03 0.266E+01 0.837E-06   0.262E+03 -.344E+01 0.556E-18   -.596E+02 0.783E+00 0.000E+00   -.594E-05 -.414E-04 -.599E-13
 -----------------------------------------------------------------------------------------------
   0.316E+02 -.415E+00 -.167E-05   0.000E+00 0.000E+00 -.746E-17   -.316E+02 0.416E+00 0.000E+00   -.265E-05 -.486E-04 -.845E-13
 
 
 POSITION                                       TOTAL-FORCE (eV/Angst)
 -----------------------------------------------------------------------------------
      4.42820      5.00000      5.00000         0.018598     -0.000529      0.000000
      5.57180      4.98500      5.00000        -0.018598      0.000529      0.000000
 -----------------------------------------------------------------------------------
    total drift:                               -0.004717      0.000867     -0.000002


--------------------------------------------------------------------------------------------------------



  FREE ENERGIE OF THE ION-ELECTRON SYSTEM (eV)
  ---------------------------------------------------
  free  energy   TOTEN  =       -14.805012 eV

  energy  without entropy=      -14.805012  energy(sigma->0) =      -14.805012
 
 d Force = 0.7857161E-08[-0.159E-04, 0.159E-04]  d Energy =-0.5444122E-08 0.133E-07
 d Force = 0.6938894E-17[ 0.103E+00,-0.103E+00]  d Ewald  = 0.0000000E+00 0.000E+00


--------------------------------------------------------------------------------------------------------


    POTLOK:  cpu time    4.56: real time    5.56


--------------------------------------------------------------------------------------------------------


 Finite differences progress:
  Degree of freedom:   4/  4
  Displacement:        2/  2
  Total:               8/  8


--------------------------------------------------------------------------------------------------------


 INTERNAL STRAIN TENSORS FROM DISPLACED ATOMS
 ============================================

 INTERNAL STRAIN TENSOR FOR ION    1 for displacements in x,y,z  (eV/Angst):
          X           Y           Z          XY          YZ          ZX
  --------------------------------------------------------------------------------
  x   128.56638     0.22695     0.22695     0.00000     0.00000     0.00000
  y     0.00000     0.00000     0.00000     0.16125     0.00000     0.00000
  z     0.00000     0.00000     0.00000     0.00000     0.00000     0.16123

 INTERNAL STRAIN TENSOR FOR ION    2 for displacements in x,y,z  (eV/Angst):
          X           Y           Z          XY          YZ          ZX
  --------------------------------------------------------------------------------
  x  -128.51727    -0.20635    -0.20635     0.00000     0.00000     0.00000
  y     0.00000     0.00000     0.00000    -0.13430     0.00000     0.00000
  z     0.00000     0.00000     0.00000     0.00000     0.00000    -0.13426


--------------------------------------------------------------------------------------------------------


 
 SECOND DERIVATIVES (NOT SYMMETRIZED)
 ------------------------------------
               1X          1Y          1Z          2X          2Y          2Z 
  1X  -112.548646    0.000000    0.000000  112.495262    0.000000    0.000000
  1Y     0.000000   -0.011718    0.000000    0.000000    0.035304    0.000000
  1Z     0.000000    0.000000   -0.011718    0.000000    0.000000    0.035304
  2X   112.548646    0.000000    0.000000 -112.495262    0.000000    0.000000
  2Y     0.000000    0.011718    0.000000    0.000000   -0.035304    0.000000
  2Z     0.000000    0.000000    0.011718    0.000000    0.000000   -0.035304
 
 
 Eigenvectors and eigenvalues of the dynamical matrix
 ----------------------------------------------------
 
 
   1 f  =   63.312785 THz   397.805963 2PiTHz 2111.887131 cm-1   261.840727 meV
             X         Y         Z           dx          dy          dz
      4.428198  5.000000  5.000000    -0.755857    0.000000    0.000000  
      5.571802  5.000000  5.000000     0.654736    0.000000    0.000000  
 
   2 f  =    0.910934 THz     5.723569 2PiTHz   30.385497 cm-1     3.767323 meV
             X         Y         Z           dx          dy          dz
      4.428198  5.000000  5.000000     0.000000   -0.573974   -0.000173  
      5.571802  5.000000  5.000000     0.000000    0.818874    0.000248  
 
   3 f  =    0.910934 THz     5.723569 2PiTHz   30.385497 cm-1     3.767323 meV
             X         Y         Z           dx          dy          dz
      4.428198  5.000000  5.000000     0.000000    0.000173   -0.573974  
      5.571802  5.000000  5.000000     0.000000   -0.000248    0.818874  
 
   4 f/i=    0.007433 THz     0.046700 2PiTHz    0.247923 cm-1     0.030739 meV
             X         Y         Z           dx          dy          dz
      4.428198  5.000000  5.000000     0.654736    0.000000    0.000000  
      5.571802  5.000000  5.000000     0.755857    0.000000    0.000000  
 
   5 f/i=    0.228233 THz     1.434033 2PiTHz    7.613049 cm-1     0.943898 meV
             X         Y         Z           dx          dy          dz
      4.428198  5.000000  5.000000     0.000000    0.818874   -0.000197  
      5.571802  5.000000  5.000000     0.000000    0.573974   -0.000138  
 
   6 f/i=    0.228233 THz     1.434033 2PiTHz    7.613049 cm-1     0.943898 meV
             X         Y         Z           dx          dy          dz
      4.428198  5.000000  5.000000     0.000000    0.000197    0.818874  
      5.571802  5.000000  5.000000     0.000000    0.000138    0.573974  
 


--------------------------------------------------------------------------------------------------------


  LATTYP: Found a simple cubic cell.
 ALAT       =    10.0000000000
  
  Lattice vectors:
  
 A1 = (  10.0000000000,   0.0000000000,   0.0000000000)
 A2 = (   0.0000000000,  10.0000000000,   0.0000000000)
 A3 = (   0.0000000000,   0.0000000000,  10.0000000000)
 Subroutine PRICEL returns:
 Original cell was already a primitive cell.
 

Analysis of symmetry for initial positions (statically):

 Routine SETGRP: Setting up the symmetry group for a 
 simple cubic supercell.


 Subroutine GETGRP returns: Found  8 space group operations
 (whereof  8 operations were pure point group operations)
 out of a pool of 48 trial point group operations.


The static configuration has the point symmetry C_4v.

Analysis of symmetry for dynamics (positions and initial velocities):

 Subroutine DYNSYM returns: Found  8 space group operations
 (whereof  8 operations were pure point group operations)
 out of a pool of  8 trial space group operations
 (whereof  8 operations were pure point group operations)
 and found also     1 'primitive' translations


The dynamic configuration has the point symmetry C_4v.
 
 KPOINTS: KPOINTS created by Atomic Simulation Env

Automatic generation of k-mesh.
 
 Subroutine IBZKPT returns following result:
 ===========================================
 
 Found      1 irreducible k-points:
 
 Following reciprocal coordinates:
            Coordinates               Weight
  0.000000  0.000000  0.000000      1.000000
 
 Following cartesian coordinates:
            Coordinates               Weight
  0.000000  0.000000  0.000000      1.000000
 
 writing wavefunctions
     LOOP+:  cpu time  121.66: real time  159.26
    4ORBIT:  cpu time    0.00: real time    0.00

 total amount of memory used by VASP on root node   236283. kBytes
========================================================================

   base      :      30000. kBytes
   nonl-proj :       2367. kBytes
   fftplans  :      72476. kBytes
   grid      :     129302. kBytes
   one-center:          6. kBytes
   wavefun   :       2132. kBytes
 
  
  
 General timing and accounting informations for this job:
 ========================================================
  
                  Total CPU time used (sec):     1228.711
                            User time (sec):     1212.566
                          System time (sec):       16.146
                         Elapsed time (sec):     1606.947
  
                   Maximum memory used (kb):           0.
                   Average memory used (kb):           0.
  
                          Minor page faults:      5600996
                          Major page faults:           24
                 Voluntary context switches:         2309
