<?xml version="1.0" encoding="ISO-8859-1"?>
<modeling>
 <generator>
  <i name="program" type="string">vasp </i>
  <i name="version" type="string">5.2.12  </i>
  <i name="subversion" type="string">11Nov11 complex                                                      parallel </i>
  <i name="platform" type="string">LinuxIFC </i>
  <i name="date" type="string">2012 10 09 </i>
  <i name="time" type="string">22:30:09 </i>
 </generator>
 <incar>
  <i type="string" name="PREC">accurate</i>
  <i type="int" name="IBRION">     6</i>
  <i type="int" name="NFREE">     2</i>
  <i name="EDIFF">      0.00000001</i>
  <i type="int" name="NSW">     1</i>
  <i name="ENCUT">    350.00000000</i>
  <i name="POTIM">      0.01500000</i>
  <i type="logical" name="LREAL"> F  </i>
  <i type="int" name="ISMEAR">     0</i>
  <i name="SIGMA">      0.05000000</i>
 </incar>
 <kpoints>
  <generation param="Monkhorst-Pack">
   <v type="int" name="divisions">       1        1        1 </v>
   <v name="usershift">      0.00000000       0.00000000       0.00000000 </v>
   <v name="genvec1">      1.00000000       0.00000000       0.00000000 </v>
   <v name="genvec2">      0.00000000       1.00000000       0.00000000 </v>
   <v name="genvec3">      0.00000000       0.00000000       1.00000000 </v>
   <v name="shift">      0.00000000       0.00000000       0.00000000 </v>
  </generation>
  <varray name="kpointlist" >
   <v>       0.00000000       0.00000000       0.00000000 </v>
  </varray>
  <varray name="weights" >
   <v>       1.00000000 </v>
  </varray>
 </kpoints>
 <parameters>
  <separator name="general" >
   <i type="string" name="SYSTEM">unknown system</i>
   <i type="logical" name="LCOMPAT"> F  </i>
  </separator>
  <separator name="electronic" >
   <i type="string" name="PREC">accura</i>
   <i name="ENMAX">    350.00000000</i>
   <i name="ENAUG">    644.87300000</i>
   <i name="EDIFF">      0.00000001</i>
   <i type="int" name="IALGO">    38</i>
   <i type="int" name="IWAVPR">    11</i>
   <i type="int" name="NBANDS">     9</i>
   <i name="NELECT">     10.00000000</i>
   <i type="int" name="TURBO">     0</i>
   <i type="int" name="IRESTART">     0</i>
   <i type="int" name="NREBOOT">     0</i>
   <i type="int" name="NMIN">     0</i>
   <i name="EREF">      0.00000000</i>
   <separator name="electronic smearing" >
    <i type="int" name="ISMEAR">     0</i>
    <i name="SIGMA">      0.05000000</i>
    <i name="KSPACING">      0.50000000</i>
    <i type="logical" name="KGAMMA"> T  </i>
   </separator>
   <separator name="electronic projectors" >
    <i type="logical" name="LREAL"> F  </i>
    <v name="ROPT">      0.00000000      0.00000000</v>
    <i type="int" name="LMAXPAW">  -100</i>
    <i type="int" name="LMAXMIX">     2</i>
    <i type="logical" name="NLSPLINE"> F  </i>
   </separator>
   <separator name="electronic startup" >
    <i type="int" name="ISTART">     0</i>
    <i type="int" name="ICHARG">     2</i>
    <i type="int" name="INIWAV">     1</i>
   </separator>
   <separator name="electronic spin" >
    <i type="int" name="ISPIN">     1</i>
    <i type="logical" name="LNONCOLLINEAR"> F  </i>
    <v name="MAGMOM">      1.00000000      1.00000000</v>
    <i name="NUPDOWN">     -1.00000000</i>
    <i type="logical" name="LSORBIT"> F  </i>
    <v name="SAXIS">      0.00000000      0.00000000      1.00000000</v>
    <i type="logical" name="LSPIRAL"> F  </i>
    <v name="QSPIRAL">      0.00000000      0.00000000      0.00000000</v>
    <i type="logical" name="LZEROZ"> F  </i>
   </separator>
   <separator name="electronic exchange-correlation" >
    <i type="logical" name="LASPH"> F  </i>
    <i type="logical" name="LMETAGGA"> F  </i>
   </separator>
   <separator name="electronic convergence" >
    <i type="int" name="NELM">    60</i>
    <i type="int" name="NELMDL">    -5</i>
    <i type="int" name="NELMIN">     2</i>
    <i name="ENINI">    350.00000000</i>
    <separator name="electronic convergence detail" >
     <i type="logical" name="LDIAG"> T  </i>
     <i type="logical" name="LSUBROT"> T  </i>
     <i name="WEIMIN">      0.00100000</i>
     <i name="EBREAK">      0.00000000</i>
     <i name="DEPER">      0.30000000</i>
     <i type="int" name="NRMM">     4</i>
     <i name="TIME">      0.40000000</i>
    </separator>
   </separator>
   <separator name="electronic mixer" >
    <i name="AMIX">      0.40000000</i>
    <i name="BMIX">      1.00000000</i>
    <i name="AMIN">      0.10000000</i>
    <i name="AMIX_MAG">      1.60000000</i>
    <i name="BMIX_MAG">      1.00000000</i>
    <separator name="electronic mixer details" >
     <i type="int" name="IMIX">     4</i>
     <i type="int" name="MAXMIX">   -45</i>
     <i name="WC">    100.00000000</i>
     <i type="int" name="INIMIX">     1</i>
     <i type="int" name="MIXPRE">     1</i>
     <i type="int" name="MREMOVE">     5</i>
    </separator>
   </separator>
   <separator name="electronic dipolcorrection" >
    <i type="logical" name="LDIPOL"> F  </i>
    <i type="logical" name="LMONO"> F  </i>
    <i type="int" name="IDIPOL">     0</i>
    <i name="EPSILON">      1.00000000</i>
    <v name="DIPOL">   -100.00000000   -100.00000000   -100.00000000</v>
    <i name="EFIELD">      0.00000000</i>
   </separator>
  </separator>
  <separator name="grids" >
   <i type="int" name="NGX">    64</i>
   <i type="int" name="NGY">    64</i>
   <i type="int" name="NGZ">    64</i>
   <i type="int" name="NGXF">   128</i>
   <i type="int" name="NGYF">   128</i>
   <i type="int" name="NGZF">   128</i>
   <i type="logical" name="ADDGRID"> F  </i>
  </separator>
  <separator name="ionic" >
   <i type="int" name="NSW">    61</i>
   <i type="int" name="IBRION">     6</i>
   <i type="int" name="ISIF">     2</i>
   <i name="PSTRESS">      0.00000000</i>
   <i name="EDIFFG">      0.00000010</i>
   <i type="int" name="NFREE">     2</i>
   <i name="POTIM">      0.01500000</i>
   <i name="SMASS">     -3.00000000</i>
   <i name="SCALEE">      1.00000000</i>
  </separator>
  <separator name="ionic md" >
   <i name="TEBEG">      0.00010000</i>
   <i name="TEEND">      0.00010000</i>
   <i type="int" name="NBLOCK">     1</i>
   <i type="int" name="KBLOCK">     1</i>
   <i type="int" name="NPACO">   256</i>
   <i name="APACO">     16.00000000</i>
  </separator>
  <separator name="symmetry" >
   <i type="int" name="ISYM">     2</i>
   <i name="SYMPREC">      0.00001000</i>
  </separator>
  <separator name="dos" >
   <i type="logical" name="LORBIT"> F  </i>
   <v name="RWIGS">     -1.00000000     -1.00000000</v>
   <i type="int" name="NEDOS">   301</i>
   <i name="EMIN">     10.00000000</i>
   <i name="EMAX">    -10.00000000</i>
   <i name="EFERMI">      0.00000000</i>
  </separator>
  <separator name="writing" >
   <i type="int" name="NWRITE">     2</i>
   <i type="logical" name="LWAVE"> T  </i>
   <i type="logical" name="LCHARG"> T  </i>
   <i type="logical" name="LPARD"> F  </i>
   <i type="logical" name="LVTOT"> F  </i>
   <i type="logical" name="LVHAR"> F  </i>
   <i type="logical" name="LELF"> F  </i>
   <i type="logical" name="LOPTICS"> F  </i>
   <v name="STM">      0.00000000      0.00000000      0.00000000      0.00000000      0.00000000      0.00000000      0.00000000</v>
  </separator>
  <separator name="performance" >
   <i type="int" name="NPAR">     1</i>
   <i type="int" name="NSIM">     4</i>
   <i type="int" name="NBLK">    -1</i>
   <i type="logical" name="LPLANE"> T  </i>
   <i type="logical" name="LSCALAPACK"> F  </i>
   <i type="logical" name="LSCAAWARE"> F  </i>
   <i type="logical" name="LSCALU"> F  </i>
   <i type="logical" name="LASYNC"> F  </i>
   <i type="logical" name="LORBITALREAL"> F  </i>
  </separator>
  <separator name="miscellaneous" >
   <i type="int" name="IDIOT">     3</i>
   <i type="logical" name="LMUSIC"> F  </i>
   <v name="POMASS">     12.01100000     16.00000000</v>
   <v name="DARWINR">      0.00000000      0.00000000</v>
   <v name="DARWINV">      1.00000000      1.00000000</v>
   <i type="logical" name="LCORR"> T  </i>
  </separator>
  <i type="logical" name="GGA_COMPAT"> T  </i>
  <i type="logical" name="LBERRY"> F  </i>
  <i type="int" name="ICORELEVEL">     0</i>
  <i type="logical" name="LDAU"> F  </i>
  <i type="int" name="I_CONSTRAINED_M">     0</i>
  <separator name="electronic exchange-correlation" >
   <i type="string" name="GGA">--</i>
   <i type="int" name="VOSKOWN">     0</i>
   <i type="logical" name="LHFCALC"> F  </i>
   <i type="string" name="PRECFOCK"></i>
   <i type="logical" name="LHFONE"> F  </i>
   <i type="logical" name="LRHFCALC"> F  </i>
   <i type="logical" name="LTHOMAS"> F  </i>
   <i type="logical" name="LMODELHF"> F  </i>
   <i name="ENCUT4O">     -1.00000000</i>
   <i type="int" name="EXXOEP">     0</i>
   <i type="int" name="FOURORBIT">     0</i>
   <i name="AEXX">      0.00000000</i>
   <i name="HFALPHA">      0.00000000</i>
   <i name="ALDAX">      1.00000000</i>
   <i name="AGGAX">      1.00000000</i>
   <i name="ALDAC">      1.00000000</i>
   <i name="AGGAC">      1.00000000</i>
   <i type="int" name="NKREDX">     1</i>
   <i type="int" name="NKREDY">     1</i>
   <i type="int" name="NKREDZ">     1</i>
   <i type="logical" name="SHIFTRED"> F  </i>
   <i type="logical" name="ODDONLY"> F  </i>
   <i type="logical" name="EVENONLY"> F  </i>
   <i type="int" name="LMAXFOCK">     0</i>
   <i type="int" name="NMAXFOCKAE">     0</i>
   <i type="logical" name="LFOCKAEDFT"> F  </i>
   <i name="HFSCREEN">      0.00000000</i>
   <i name="HFSCREENC">      0.00000000</i>
  </separator>
  <separator name="vdW DFT" >
   <i type="logical" name="LUSE_VDW"> F  </i>
   <i name="Zab_VDW">     -0.84910000</i>
   <i name="PARAM1">      0.12340000</i>
   <i name="PARAM2">      1.00000000</i>
   <i name="PARAM3">      0.00000000</i>
  </separator>
  <separator name="model GW" >
   <i type="int" name="MODEL_GW">     0</i>
   <i name="MODEL_EPS0">    300.00000000</i>
   <i name="MODEL_ALPHA">      1.00000000</i>
  </separator>
  <separator name="linear response parameters" >
   <i type="logical" name="LEPSILON"> F  </i>
   <i type="logical" name="LRPA"> F  </i>
   <i type="logical" name="LNABLA"> F  </i>
   <i type="logical" name="LVEL"> F  </i>
   <i type="int" name="KINTER">     0</i>
   <i name="CSHIFT">      0.10000000</i>
   <i name="OMEGAMAX">     -1.00000000</i>
  </separator>
  <separator name="orbital magnetization" >
   <i type="logical" name="NUCIND"> F  </i>
   <v name="MAGPOS">      0.00000000      0.00000000      0.00000000</v>
   <i type="logical" name="LNICSALL"> T  </i>
   <i type="logical" name="ORBITALMAG"> F  </i>
   <i type="logical" name="LMAGBLOCH"> F  </i>
   <i type="logical" name="LCHIMAG"> F  </i>
   <i type="logical" name="LGAUGE"> T  </i>
   <i type="int" name="MAGATOM">     0</i>
   <v name="MAGDIPOL">      0.00000000      0.00000000      0.00000000</v>
   <v name="AVECCONST">      0.00000000      0.00000000      0.00000000</v>
  </separator>
  <separator name="response functions" >
   <i type="logical" name="LADDER"> F  </i>
   <i type="logical" name="LHARTREE"> T  </i>
   <i type="int" name="IBSE">     0</i>
   <i type="logical" name="LTCTE"> F  </i>
   <i type="logical" name="LTETE"> F  </i>
   <i type="logical" name="LFXCEPS"> F  </i>
   <i type="logical" name="L2ORDER"> F  </i>
   <i type="logical" name="LUSEW"> F  </i>
   <i name="ENCUTGW">     -2.00000000</i>
   <i name="ENCUTGWSOFT">     -2.00000000</i>
   <i name="ENCUTLF">     -1.00000000</i>
   <i type="int" name="LMAXMP2">    -1</i>
   <i name="SCISSOR">      0.00000000</i>
   <i type="int" name="NOMEGA">     0</i>
   <i type="int" name="NOMEGAR">     0</i>
   <i type="int" name="NBANDSGW">    -1</i>
   <i type="int" name="NBANDSO">    -1</i>
   <i type="int" name="NBANDSV">    -1</i>
   <i name="OPTEMAX">      0.00000000</i>
   <i type="int" name="NELM">     1</i>
   <i type="int" name="DIM">     3</i>
   <i type="int" name="ANTIRES">     0</i>
   <i name="OMEGAMAX">    -30.00000000</i>
   <i name="OMEGATL">   -200.00000000</i>
   <i type="int" name="OMEGAGRID">     0</i>
   <i name="CSHIFT">     -0.10000000</i>
   <i type="logical" name="SELFENERGY"> F  </i>
   <i type="logical" name="LSPECTRAL"> F  </i>
   <i type="logical" name="ODDONLYGW"> F  </i>
   <i type="logical" name="EVENONLYGW"> F  </i>
   <i type="int" name="NKREDLFX">     1</i>
   <i type="int" name="NKREDLFY">     1</i>
   <i type="int" name="NKREDLFZ">     1</i>
   <i type="int" name="MAXMEM">  1800</i>
   <i type="int" name="TELESCOPE">     0</i>
  </separator>
 </parameters>
 <atominfo>
  <atoms>       2 </atoms>
  <types>       2 </types>
  <array name="atoms" >
   <dimension dim="1">ion</dimension>
   <field type="string">element</field>
   <field type="int">atomtype</field>
   <set>
    <rc><c>C </c><c>   1</c></rc>
    <rc><c>O </c><c>   2</c></rc>
   </set>
  </array>
  <array name="atomtypes" >
   <dimension dim="1">type</dimension>
   <field type="int">atomspertype</field>
   <field type="string">element</field>
   <field>mass</field>
   <field>valence</field>
   <field type="string">pseudopotential</field>
   <set>
    <rc><c>   1</c><c>C </c><c>     12.01100000</c><c>      4.00000000</c><c> PAW_PBE C 08Apr2002                    </c></rc>
    <rc><c>   1</c><c>O </c><c>     16.00000000</c><c>      6.00000000</c><c> PAW_PBE O 08Apr2002                    </c></rc>
   </set>
  </array>
 </atominfo>
 <structure name="initialpos" >
  <crystal>
   <varray name="basis" >
    <v>      10.00000000       0.00000000       0.00000000 </v>
    <v>       0.00000000      10.00000000       0.00000000 </v>
    <v>       0.00000000       0.00000000      10.00000000 </v>
   </varray>
   <i name="volume">   1000.00000000 </i>
   <varray name="rec_basis" >
    <v>       0.10000000       0.00000000       0.00000000 </v>
    <v>       0.00000000       0.10000000       0.00000000 </v>
    <v>       0.00000000       0.00000000       0.10000000 </v>
   </varray>
  </crystal>
  <varray name="positions" >
   <v>       0.44281976       0.50000000       0.50000000 </v>
   <v>       0.55718024       0.50000000       0.50000000 </v>
  </varray>
 </structure>
 <calculation>
  <scstep>
   <time name="dav">    2.94    4.47</time>
   <time name="total">    7.37   10.68</time>
   <energy>
    <i name="alphaZ">      0.43525486 </i>
    <i name="ewald">     98.88049534 </i>
    <i name="hartreedc">   -560.47833715 </i>
    <i name="XCdc">     39.84553385 </i>
    <i name="pawpsdc">    283.82984571 </i>
    <i name="pawaedc">   -286.83001101 </i>
    <i name="eentropy">      0.00000000 </i>
    <i name="bandstr">    -97.18669506 </i>
    <i name="atom">    579.07123046 </i>
    <i name="e_fr_energy">     57.56731701 </i>
    <i name="e_wo_entrp">     57.56731701 </i>
    <i name="e_0_energy">     57.56731701 </i>
   </energy>
  </scstep>
  <scstep>
   <time name="dav">    3.11    4.21</time>
   <time name="total">    3.11    4.26</time>
   <energy>
    <i name="e_fr_energy">     -9.76819605 </i>
    <i name="e_wo_entrp">     -9.76819605 </i>
    <i name="e_0_energy">     -9.76819605 </i>
   </energy>
  </scstep>
  <scstep>
   <time name="dav">    4.13    5.57</time>
   <time name="total">    4.13    5.58</time>
   <energy>
    <i name="e_fr_energy">    -15.53178453 </i>
    <i name="e_wo_entrp">    -15.53178453 </i>
    <i name="e_0_energy">    -15.53178453 </i>
   </energy>
  </scstep>
  <scstep>
   <time name="dav">    3.68    4.79</time>
   <time name="total">    3.68    4.82</time>
   <energy>
    <i name="e_fr_energy">    -15.54263041 </i>
    <i name="e_wo_entrp">    -15.54263041 </i>
    <i name="e_0_energy">    -15.54263041 </i>
   </energy>
  </scstep>
  <scstep>
   <time name="dav">    3.41    5.20</time>
   <time name="total">    4.49    6.50</time>
   <energy>
    <i name="e_fr_energy">    -15.54264204 </i>
    <i name="e_wo_entrp">    -15.54264204 </i>
    <i name="e_0_energy">    -15.54264204 </i>
   </energy>
  </scstep>
  <scstep>
   <time name="dav">    2.29    3.36</time>
   <time name="total">    7.63   10.87</time>
   <energy>
    <i name="e_fr_energy">    -14.95658278 </i>
    <i name="e_wo_entrp">    -14.95658278 </i>
    <i name="e_0_energy">    -14.95658278 </i>
   </energy>
  </scstep>
  <scstep>
   <time name="dav">    3.17    3.43</time>
   <time name="total">    8.56    9.87</time>
   <energy>
    <i name="e_fr_energy">    -14.83580457 </i>
    <i name="e_wo_entrp">    -14.83580457 </i>
    <i name="e_0_energy">    -14.83580457 </i>
   </energy>
  </scstep>
  <scstep>
   <time name="dav">    2.43    2.94</time>
   <time name="total">    7.75    8.98</time>
   <energy>
    <i name="e_fr_energy">    -14.80059558 </i>
    <i name="e_wo_entrp">    -14.80059558 </i>
    <i name="e_0_energy">    -14.80059558 </i>
   </energy>
  </scstep>
  <scstep>
   <time name="dav">    2.60    3.05</time>
   <time name="total">    8.29   10.03</time>
   <energy>
    <i name="e_fr_energy">    -14.80025979 </i>
    <i name="e_wo_entrp">    -14.80025979 </i>
    <i name="e_0_energy">    -14.80025979 </i>
   </energy>
  </scstep>
  <scstep>
   <time name="dav">    2.38    3.06</time>
   <time name="total">    7.97    9.92</time>
   <energy>
    <i name="e_fr_energy">    -14.80104078 </i>
    <i name="e_wo_entrp">    -14.80104078 </i>
    <i name="e_0_energy">    -14.80104078 </i>
   </energy>
  </scstep>
  <scstep>
   <time name="dav">    2.32    3.00</time>
   <time name="total">    7.41    9.85</time>
   <energy>
    <i name="e_fr_energy">    -14.80283552 </i>
    <i name="e_wo_entrp">    -14.80283552 </i>
    <i name="e_0_energy">    -14.80283552 </i>
   </energy>
  </scstep>
  <scstep>
   <time name="dav">    2.51    3.03</time>
   <time name="total">    7.45    9.67</time>
   <energy>
    <i name="e_fr_energy">    -14.80347303 </i>
    <i name="e_wo_entrp">    -14.80347303 </i>
    <i name="e_0_energy">    -14.80347303 </i>
   </energy>
  </scstep>
  <scstep>
   <time name="dav">    2.32    3.26</time>
   <time name="total">    7.48    9.49</time>
   <energy>
    <i name="e_fr_energy">    -14.80451035 </i>
    <i name="e_wo_entrp">    -14.80451035 </i>
    <i name="e_0_energy">    -14.80451035 </i>
   </energy>
  </scstep>
  <scstep>
   <time name="dav">    2.46    2.93</time>
   <time name="total">    7.33    8.92</time>
   <energy>
    <i name="e_fr_energy">    -14.80478601 </i>
    <i name="e_wo_entrp">    -14.80478601 </i>
    <i name="e_0_energy">    -14.80478601 </i>
   </energy>
  </scstep>
  <scstep>
   <time name="dav">    2.15    2.69</time>
   <time name="total">    7.00    8.34</time>
   <energy>
    <i name="e_fr_energy">    -14.80496074 </i>
    <i name="e_wo_entrp">    -14.80496074 </i>
    <i name="e_0_energy">    -14.80496074 </i>
   </energy>
  </scstep>
  <scstep>
   <time name="dav">    2.50    3.16</time>
   <time name="total">    7.70    9.06</time>
   <energy>
    <i name="e_fr_energy">    -14.80499717 </i>
    <i name="e_wo_entrp">    -14.80499717 </i>
    <i name="e_0_energy">    -14.80499717 </i>
   </energy>
  </scstep>
  <scstep>
   <time name="dav">    2.27    2.46</time>
   <time name="total">    7.67    9.21</time>
   <energy>
    <i name="e_fr_energy">    -14.80501436 </i>
    <i name="e_wo_entrp">    -14.80501436 </i>
    <i name="e_0_energy">    -14.80501436 </i>
   </energy>
  </scstep>
  <scstep>
   <time name="dav">    2.35    2.64</time>
   <time name="total">    8.14   10.41</time>
   <energy>
    <i name="e_fr_energy">    -14.80501944 </i>
    <i name="e_wo_entrp">    -14.80501944 </i>
    <i name="e_0_energy">    -14.80501944 </i>
   </energy>
  </scstep>
  <scstep>
   <time name="dav">    2.33    3.10</time>
   <time name="total">    7.25   10.11</time>
   <energy>
    <i name="e_fr_energy">    -14.80502003 </i>
    <i name="e_wo_entrp">    -14.80502003 </i>
    <i name="e_0_energy">    -14.80502003 </i>
   </energy>
  </scstep>
  <scstep>
   <time name="dav">    2.50    2.82</time>
   <time name="total">    8.11   10.89</time>
   <energy>
    <i name="e_fr_energy">    -14.80502056 </i>
    <i name="e_wo_entrp">    -14.80502056 </i>
    <i name="e_0_energy">    -14.80502056 </i>
   </energy>
  </scstep>
  <scstep>
   <time name="dav">    2.52    3.37</time>
   <time name="total">    8.23   11.03</time>
   <energy>
    <i name="e_fr_energy">    -14.80502065 </i>
    <i name="e_wo_entrp">    -14.80502065 </i>
    <i name="e_0_energy">    -14.80502065 </i>
   </energy>
  </scstep>
  <scstep>
   <time name="dav">    2.33    2.97</time>
   <time name="total">    8.10   11.56</time>
   <energy>
    <i name="e_fr_energy">    -14.80502072 </i>
    <i name="e_wo_entrp">    -14.80502072 </i>
    <i name="e_0_energy">    -14.80502072 </i>
   </energy>
  </scstep>
  <scstep>
   <time name="dav">    2.51    3.89</time>
   <time name="total">    7.94   10.38</time>
   <energy>
    <i name="e_fr_energy">    -14.80502074 </i>
    <i name="e_wo_entrp">    -14.80502074 </i>
    <i name="e_0_energy">    -14.80502074 </i>
   </energy>
  </scstep>
  <scstep>
   <time name="dav">    2.61    3.79</time>
   <time name="total">    8.48   12.18</time>
   <energy>
    <i name="e_fr_energy">    -14.80502075 </i>
    <i name="e_wo_entrp">    -14.80502075 </i>
    <i name="e_0_energy">    -14.80502075 </i>
   </energy>
  </scstep>
  <scstep>
   <time name="dav">    2.15    2.98</time>
   <time name="total">    6.65    9.02</time>
   <energy>
    <i name="alphaZ">      0.43525486 </i>
    <i name="ewald">     98.88049534 </i>
    <i name="hartreedc">   -580.57129989 </i>
    <i name="XCdc">     41.02848838 </i>
    <i name="pawpsdc">    381.58386898 </i>
    <i name="pawaedc">   -384.57392343 </i>
    <i name="eentropy">      0.00000000 </i>
    <i name="bandstr">   -150.65913545 </i>
    <i name="atom">    579.07123046 </i>
    <i name="e_fr_energy">    -14.80502075 </i>
    <i name="e_wo_entrp">    -14.80502075 </i>
    <i name="e_0_energy">    -14.80502075 </i>
   </energy>
  </scstep>
  <parameters_embedded>
   <separator name="dft+d2" >
    <i type="logical" name="LVDW"> F  </i>
   </separator>
  </parameters_embedded>
  <structure>
   <crystal>
    <varray name="basis" >
     <v>      10.00000000       0.00000000       0.00000000 </v>
     <v>       0.00000000      10.00000000       0.00000000 </v>
     <v>       0.00000000       0.00000000      10.00000000 </v>
    </varray>
    <i name="volume">   1000.00000000 </i>
    <varray name="rec_basis" >
     <v>       0.10000000       0.00000000       0.00000000 </v>
     <v>       0.00000000       0.10000000       0.00000000 </v>
     <v>       0.00000000       0.00000000       0.10000000 </v>
    </varray>
   </crystal>
   <varray name="positions" >
    <v>       0.44281976       0.50000000       0.50000000 </v>
    <v>       0.55718024       0.50000000       0.50000000 </v>
   </varray>
  </structure>
  <varray name="forces" >
   <v>       0.00761410       0.00000000       0.00000000 </v>
   <v>      -0.00761410       0.00000000       0.00000000 </v>
  </varray>
  <varray name="stress" >
   <v>      -4.06492464       0.00000000       0.00000000 </v>
   <v>       0.00000000      -3.76081031       0.00000000 </v>
   <v>       0.00000000       0.00000000      -3.76081031 </v>
  </varray>
  <energy>
   <i name="e_fr_energy">    -14.80502075 </i>
   <i name="e_wo_entrp">    -14.80502075 </i>
   <i name="e_0_energy">      0.00000000 </i>
  </energy>
  <kpoints>
   <generation param="Monkhorst-Pack">
    <v type="int" name="divisions">       1        1        1 </v>
    <v name="usershift">      0.00000000       0.00000000       0.00000000 </v>
    <v name="genvec1">      1.00000000       0.00000000       0.00000000 </v>
    <v name="genvec2">      0.00000000       1.00000000       0.00000000 </v>
    <v name="genvec3">      0.00000000       0.00000000       1.00000000 </v>
    <v name="shift">      0.00000000       0.00000000       0.00000000 </v>
   </generation>
   <varray name="kpointlist" >
    <v>       0.00000000       0.00000000       0.00000000 </v>
   </varray>
   <varray name="weights" >
    <v>       1.00000000 </v>
   </varray>
  </kpoints>
  <time name="totalsc">  191.05  250.22</time>
 </calculation>
 <calculation>
  <scstep>
   <time name="dav">    2.22    2.94</time>
   <time name="total">    7.47    9.43</time>
   <energy>
    <i name="alphaZ">      0.43525486 </i>
    <i name="ewald">    102.87131187 </i>
    <i name="hartreedc">   -582.86811184 </i>
    <i name="XCdc">     41.09397211 </i>
    <i name="pawpsdc">    381.58385160 </i>
    <i name="pawaedc">   -384.57390563 </i>
    <i name="eentropy">      0.00000000 </i>
    <i name="bandstr">   -152.40700091 </i>
    <i name="atom">    579.07123046 </i>
    <i name="e_fr_energy">    -14.79339747 </i>
    <i name="e_wo_entrp">    -14.79339747 </i>
    <i name="e_0_energy">    -14.79339747 </i>
   </energy>
  </scstep>
  <scstep>
   <time name="dav">    2.14    3.14</time>
   <time name="total">    7.51   10.22</time>
   <energy>
    <i name="e_fr_energy">    -14.79221081 </i>
    <i name="e_wo_entrp">    -14.79221081 </i>
    <i name="e_0_energy">    -14.79221081 </i>
   </energy>
  </scstep>
  <scstep>
   <time name="dav">    2.25    2.51</time>
   <time name="total">    7.27    9.32</time>
   <energy>
    <i name="e_fr_energy">    -14.79189950 </i>
    <i name="e_wo_entrp">    -14.79189950 </i>
    <i name="e_0_energy">    -14.79189950 </i>
   </energy>
  </scstep>
  <scstep>
   <time name="dav">    2.40    2.48</time>
   <time name="total">    7.57    9.26</time>
   <energy>
    <i name="e_fr_energy">    -14.79188097 </i>
    <i name="e_wo_entrp">    -14.79188097 </i>
    <i name="e_0_energy">    -14.79188097 </i>
   </energy>
  </scstep>
  <scstep>
   <time name="dav">    2.19    2.29</time>
   <time name="total">    7.10    8.58</time>
   <energy>
    <i name="e_fr_energy">    -14.79189864 </i>
    <i name="e_wo_entrp">    -14.79189864 </i>
    <i name="e_0_energy">    -14.79189864 </i>
   </energy>
  </scstep>
  <scstep>
   <time name="dav">    2.18    2.89</time>
   <time name="total">    7.30    9.69</time>
   <energy>
    <i name="e_fr_energy">    -14.79191205 </i>
    <i name="e_wo_entrp">    -14.79191205 </i>
    <i name="e_0_energy">    -14.79191205 </i>
   </energy>
  </scstep>
  <scstep>
   <time name="dav">    2.04    2.57</time>
   <time name="total">    7.31    9.55</time>
   <energy>
    <i name="e_fr_energy">    -14.79193999 </i>
    <i name="e_wo_entrp">    -14.79193999 </i>
    <i name="e_0_energy">    -14.79193999 </i>
   </energy>
  </scstep>
  <scstep>
   <time name="dav">    2.27    2.90</time>
   <time name="total">    7.70    9.14</time>
   <energy>
    <i name="e_fr_energy">    -14.79196139 </i>
    <i name="e_wo_entrp">    -14.79196139 </i>
    <i name="e_0_energy">    -14.79196139 </i>
   </energy>
  </scstep>
  <scstep>
   <time name="dav">    2.36    3.15</time>
   <time name="total">    7.87   10.82</time>
   <energy>
    <i name="e_fr_energy">    -14.79197760 </i>
    <i name="e_wo_entrp">    -14.79197760 </i>
    <i name="e_0_energy">    -14.79197760 </i>
   </energy>
  </scstep>
  <scstep>
   <time name="dav">    2.54    3.32</time>
   <time name="total">    8.04    9.89</time>
   <energy>
    <i name="e_fr_energy">    -14.79198942 </i>
    <i name="e_wo_entrp">    -14.79198942 </i>
    <i name="e_0_energy">    -14.79198942 </i>
   </energy>
  </scstep>
  <scstep>
   <time name="dav">    2.18    2.71</time>
   <time name="total">    7.97   10.18</time>
   <energy>
    <i name="e_fr_energy">    -14.79199371 </i>
    <i name="e_wo_entrp">    -14.79199371 </i>
    <i name="e_0_energy">    -14.79199371 </i>
   </energy>
  </scstep>
  <scstep>
   <time name="dav">    2.07    3.17</time>
   <time name="total">    7.09    9.17</time>
   <energy>
    <i name="e_fr_energy">    -14.79199535 </i>
    <i name="e_wo_entrp">    -14.79199535 </i>
    <i name="e_0_energy">    -14.79199535 </i>
   </energy>
  </scstep>
  <scstep>
   <time name="dav">    2.23    2.74</time>
   <time name="total">    7.30    9.41</time>
   <energy>
    <i name="e_fr_energy">    -14.79199576 </i>
    <i name="e_wo_entrp">    -14.79199576 </i>
    <i name="e_0_energy">    -14.79199576 </i>
   </energy>
  </scstep>
  <scstep>
   <time name="dav">    2.38    3.44</time>
   <time name="total">    8.20   11.44</time>
   <energy>
    <i name="e_fr_energy">    -14.79199586 </i>
    <i name="e_wo_entrp">    -14.79199586 </i>
    <i name="e_0_energy">    -14.79199586 </i>
   </energy>
  </scstep>
  <scstep>
   <time name="dav">    2.86    3.63</time>
   <time name="total">    8.47   11.52</time>
   <energy>
    <i name="e_fr_energy">    -14.79199587 </i>
    <i name="e_wo_entrp">    -14.79199587 </i>
    <i name="e_0_energy">    -14.79199587 </i>
   </energy>
  </scstep>
  <scstep>
   <time name="dav">    2.19    3.69</time>
   <time name="total">    6.86   10.29</time>
   <energy>
    <i name="alphaZ">      0.43525486 </i>
    <i name="ewald">    102.87131187 </i>
    <i name="hartreedc">   -583.76061805 </i>
    <i name="XCdc">     41.14779509 </i>
    <i name="pawpsdc">    386.68055765 </i>
    <i name="pawaedc">   -389.69453046 </i>
    <i name="eentropy">      0.00000000 </i>
    <i name="bandstr">   -151.54299729 </i>
    <i name="atom">    579.07123046 </i>
    <i name="e_fr_energy">    -14.79199587 </i>
    <i name="e_wo_entrp">    -14.79199587 </i>
    <i name="e_0_energy">    -14.79199587 </i>
   </energy>
  </scstep>
  <structure>
   <crystal>
    <varray name="basis" >
     <v>      10.00000000       0.00000000       0.00000000 </v>
     <v>       0.00000000      10.00000000       0.00000000 </v>
     <v>       0.00000000       0.00000000      10.00000000 </v>
    </varray>
    <i name="volume">   1000.00000000 </i>
    <varray name="rec_basis" >
     <v>       0.10000000       0.00000000       0.00000000 </v>
     <v>       0.00000000       0.10000000       0.00000000 </v>
     <v>       0.00000000       0.00000000       0.10000000 </v>
    </varray>
   </crystal>
   <varray name="positions" >
    <v>       0.44431976       0.50000000       0.50000000 </v>
    <v>       0.55718024       0.50000000       0.50000000 </v>
   </varray>
  </structure>
  <varray name="forces" >
   <v>      -1.77208034       0.00000000       0.00000000 </v>
   <v>       1.77208034       0.00000000       0.00000000 </v>
  </varray>
  <varray name="stress" >
   <v>      -0.84241600       0.00000000       0.00000000 </v>
   <v>       0.00000000      -3.75565037       0.00000000 </v>
   <v>       0.00000000       0.00000000      -3.75565037 </v>
  </varray>
  <energy>
   <i name="e_fr_energy">    -14.79199587 </i>
   <i name="e_wo_entrp">    -14.79199587 </i>
   <i name="e_0_energy">      0.00000000 </i>
  </energy>
  <kpoints>
   <generation param="Monkhorst-Pack">
    <v type="int" name="divisions">       1        1        1 </v>
    <v name="usershift">      0.00000000       0.00000000       0.00000000 </v>
    <v name="genvec1">      1.00000000       0.00000000       0.00000000 </v>
    <v name="genvec2">      0.00000000       1.00000000       0.00000000 </v>
    <v name="genvec3">      0.00000000       0.00000000       1.00000000 </v>
    <v name="shift">      0.00000000       0.00000000       0.00000000 </v>
   </generation>
   <varray name="kpointlist" >
    <v>       0.00000000       0.00000000       0.00000000 </v>
   </varray>
   <varray name="weights" >
    <v>       1.00000000 </v>
   </varray>
  </kpoints>
  <time name="totalsc">  129.94  169.57</time>
 </calculation>
 <calculation>
  <scstep>
   <time name="dav">    2.06    2.23</time>
   <time name="total">    7.64    8.67</time>
   <energy>
    <i name="alphaZ">      0.43525486 </i>
    <i name="ewald">     94.99404113 </i>
    <i name="hartreedc">   -579.18481223 </i>
    <i name="XCdc">     41.01834062 </i>
    <i name="pawpsdc">    386.68052275 </i>
    <i name="pawaedc">   -389.69449516 </i>
    <i name="eentropy">      0.00000000 </i>
    <i name="bandstr">   -148.11837699 </i>
    <i name="atom">    579.07123046 </i>
    <i name="e_fr_energy">    -14.79829455 </i>
    <i name="e_wo_entrp">    -14.79829455 </i>
    <i name="e_0_energy">    -14.79829455 </i>
   </energy>
  </scstep>
  <scstep>
   <time name="dav">    2.65    3.44</time>
   <time name="total">    7.80    9.75</time>
   <energy>
    <i name="e_fr_energy">    -14.79370894 </i>
    <i name="e_wo_entrp">    -14.79370894 </i>
    <i name="e_0_energy">    -14.79370894 </i>
   </energy>
  </scstep>
  <scstep>
   <time name="dav">    3.07    3.99</time>
   <time name="total">    8.25   10.50</time>
   <energy>
    <i name="e_fr_energy">    -14.79247779 </i>
    <i name="e_wo_entrp">    -14.79247779 </i>
    <i name="e_0_energy">    -14.79247779 </i>
   </energy>
  </scstep>
  <scstep>
   <time name="dav">    2.10    2.56</time>
   <time name="total">    7.24    9.74</time>
   <energy>
    <i name="e_fr_energy">    -14.79244343 </i>
    <i name="e_wo_entrp">    -14.79244343 </i>
    <i name="e_0_energy">    -14.79244343 </i>
   </energy>
  </scstep>
  <scstep>
   <time name="dav">    2.08    2.97</time>
   <time name="total">    7.20    9.65</time>
   <energy>
    <i name="e_fr_energy">    -14.79254275 </i>
    <i name="e_wo_entrp">    -14.79254275 </i>
    <i name="e_0_energy">    -14.79254275 </i>
   </energy>
  </scstep>
  <scstep>
   <time name="dav">    2.05    2.54</time>
   <time name="total">    7.55    9.26</time>
   <energy>
    <i name="e_fr_energy">    -14.79258263 </i>
    <i name="e_wo_entrp">    -14.79258263 </i>
    <i name="e_0_energy">    -14.79258263 </i>
   </energy>
  </scstep>
  <scstep>
   <time name="dav">    2.24    2.26</time>
   <time name="total">    7.17    8.07</time>
   <energy>
    <i name="e_fr_energy">    -14.79262564 </i>
    <i name="e_wo_entrp">    -14.79262564 </i>
    <i name="e_0_energy">    -14.79262564 </i>
   </energy>
  </scstep>
  <scstep>
   <time name="dav">    2.15    2.64</time>
   <time name="total">    7.51    8.85</time>
   <energy>
    <i name="e_fr_energy">    -14.79268489 </i>
    <i name="e_wo_entrp">    -14.79268489 </i>
    <i name="e_0_energy">    -14.79268489 </i>
   </energy>
  </scstep>
  <scstep>
   <time name="dav">    2.70    3.24</time>
   <time name="total">    8.10    9.67</time>
   <energy>
    <i name="e_fr_energy">    -14.79271899 </i>
    <i name="e_wo_entrp">    -14.79271899 </i>
    <i name="e_0_energy">    -14.79271899 </i>
   </energy>
  </scstep>
  <scstep>
   <time name="dav">    2.22    2.75</time>
   <time name="total">    7.46    8.67</time>
   <energy>
    <i name="e_fr_energy">    -14.79273224 </i>
    <i name="e_wo_entrp">    -14.79273224 </i>
    <i name="e_0_energy">    -14.79273224 </i>
   </energy>
  </scstep>
  <scstep>
   <time name="dav">    2.09    2.94</time>
   <time name="total">    7.42   10.11</time>
   <energy>
    <i name="e_fr_energy">    -14.79273806 </i>
    <i name="e_wo_entrp">    -14.79273806 </i>
    <i name="e_0_energy">    -14.79273806 </i>
   </energy>
  </scstep>
  <scstep>
   <time name="dav">    2.72    2.90</time>
   <time name="total">    7.71    8.35</time>
   <energy>
    <i name="e_fr_energy">    -14.79274168 </i>
    <i name="e_wo_entrp">    -14.79274168 </i>
    <i name="e_0_energy">    -14.79274168 </i>
   </energy>
  </scstep>
  <scstep>
   <time name="dav">    2.25    2.86</time>
   <time name="total">    7.63    9.46</time>
   <energy>
    <i name="e_fr_energy">    -14.79274230 </i>
    <i name="e_wo_entrp">    -14.79274230 </i>
    <i name="e_0_energy">    -14.79274230 </i>
   </energy>
  </scstep>
  <scstep>
   <time name="dav">    2.42    2.96</time>
   <time name="total">    8.00    9.19</time>
   <energy>
    <i name="e_fr_energy">    -14.79274265 </i>
    <i name="e_wo_entrp">    -14.79274265 </i>
    <i name="e_0_energy">    -14.79274265 </i>
   </energy>
  </scstep>
  <scstep>
   <time name="dav">    2.55    3.00</time>
   <time name="total">    7.94    9.70</time>
   <energy>
    <i name="e_fr_energy">    -14.79274267 </i>
    <i name="e_wo_entrp">    -14.79274267 </i>
    <i name="e_0_energy">    -14.79274267 </i>
   </energy>
  </scstep>
  <scstep>
   <time name="dav">    2.28    2.93</time>
   <time name="total">    7.50    8.97</time>
   <energy>
    <i name="e_fr_energy">    -14.79274269 </i>
    <i name="e_wo_entrp">    -14.79274269 </i>
    <i name="e_0_energy">    -14.79274269 </i>
   </energy>
  </scstep>
  <scstep>
   <time name="dav">    2.21    3.16</time>
   <time name="total">    6.71    8.72</time>
   <energy>
    <i name="alphaZ">      0.43525486 </i>
    <i name="ewald">     94.99404113 </i>
    <i name="hartreedc">   -577.44732402 </i>
    <i name="XCdc">     40.91253332 </i>
    <i name="pawpsdc">    376.72147303 </i>
    <i name="pawaedc">   -379.68953269 </i>
    <i name="eentropy">      0.00000000 </i>
    <i name="bandstr">   -149.79041878 </i>
    <i name="atom">    579.07123046 </i>
    <i name="e_fr_energy">    -14.79274269 </i>
    <i name="e_wo_entrp">    -14.79274269 </i>
    <i name="e_0_energy">    -14.79274269 </i>
   </energy>
  </scstep>
  <structure>
   <crystal>
    <varray name="basis" >
     <v>      10.00000000       0.00000000       0.00000000 </v>
     <v>       0.00000000      10.00000000       0.00000000 </v>
     <v>       0.00000000       0.00000000      10.00000000 </v>
    </varray>
    <i name="volume">   1000.00000000 </i>
    <varray name="rec_basis" >
     <v>       0.10000000       0.00000000       0.00000000 </v>
     <v>       0.00000000       0.10000000       0.00000000 </v>
     <v>       0.00000000       0.00000000       0.10000000 </v>
    </varray>
   </crystal>
   <varray name="positions" >
    <v>       0.44131976       0.50000000       0.50000000 </v>
    <v>       0.55718024       0.50000000       0.50000000 </v>
   </varray>
  </structure>
  <varray name="forces" >
   <v>       1.60437903       0.00000000       0.00000000 </v>
   <v>      -1.60437903       0.00000000       0.00000000 </v>
  </varray>
  <varray name="stress" >
   <v>      -7.02200018       0.00000000       0.00000000 </v>
   <v>       0.00000000      -3.76655886       0.00000000 </v>
   <v>       0.00000000       0.00000000      -3.76655886 </v>
  </varray>
  <energy>
   <i name="e_fr_energy">    -14.79274269 </i>
   <i name="e_wo_entrp">    -14.79274269 </i>
   <i name="e_0_energy">      0.00000000 </i>
  </energy>
  <kpoints>
   <generation param="Monkhorst-Pack">
    <v type="int" name="divisions">       1        1        1 </v>
    <v name="usershift">      0.00000000       0.00000000       0.00000000 </v>
    <v name="genvec1">      1.00000000       0.00000000       0.00000000 </v>
    <v name="genvec2">      0.00000000       1.00000000       0.00000000 </v>
    <v name="genvec3">      0.00000000       0.00000000       1.00000000 </v>
    <v name="shift">      0.00000000       0.00000000       0.00000000 </v>
   </generation>
   <varray name="kpointlist" >
    <v>       0.00000000       0.00000000       0.00000000 </v>
   </varray>
   <varray name="weights" >
    <v>       1.00000000 </v>
   </varray>
  </kpoints>
  <time name="totalsc">  138.65  169.92</time>
 </calculation>
 <calculation>
  <scstep>
   <time name="dav">    2.18    3.01</time>
   <time name="total">    7.46   10.20</time>
   <energy>
    <i name="alphaZ">      0.43525486 </i>
    <i name="ewald">     98.85465687 </i>
    <i name="hartreedc">   -579.70806724 </i>
    <i name="XCdc">     40.97620362 </i>
    <i name="pawpsdc">    376.72146823 </i>
    <i name="pawaedc">   -379.68952781 </i>
    <i name="eentropy">      0.00000000 </i>
    <i name="bandstr">   -151.46742115 </i>
    <i name="atom">    579.07123046 </i>
    <i name="e_fr_energy">    -14.80620216 </i>
    <i name="e_wo_entrp">    -14.80620216 </i>
    <i name="e_0_energy">    -14.80620216 </i>
   </energy>
  </scstep>
  <scstep>
   <time name="dav">    2.65    3.60</time>
   <time name="total">    7.94   10.87</time>
   <energy>
    <i name="e_fr_energy">    -14.80516197 </i>
    <i name="e_wo_entrp">    -14.80516197 </i>
    <i name="e_0_energy">    -14.80516197 </i>
   </energy>
  </scstep>
  <scstep>
   <time name="dav">    2.35    2.70</time>
   <time name="total">    7.62    9.99</time>
   <energy>
    <i name="e_fr_energy">    -14.80489470 </i>
    <i name="e_wo_entrp">    -14.80489470 </i>
    <i name="e_0_energy">    -14.80489470 </i>
   </energy>
  </scstep>
  <scstep>
   <time name="dav">    2.38    2.71</time>
   <time name="total">    7.71   10.02</time>
   <energy>
    <i name="e_fr_energy">    -14.80488955 </i>
    <i name="e_wo_entrp">    -14.80488955 </i>
    <i name="e_0_energy">    -14.80488955 </i>
   </energy>
  </scstep>
  <scstep>
   <time name="dav">    2.39    3.14</time>
   <time name="total">    7.89   11.29</time>
   <energy>
    <i name="e_fr_energy">    -14.80491678 </i>
    <i name="e_wo_entrp">    -14.80491678 </i>
    <i name="e_0_energy">    -14.80491678 </i>
   </energy>
  </scstep>
  <scstep>
   <time name="dav">    2.37    3.49</time>
   <time name="total">    7.44   10.84</time>
   <energy>
    <i name="e_fr_energy">    -14.80493546 </i>
    <i name="e_wo_entrp">    -14.80493546 </i>
    <i name="e_0_energy">    -14.80493546 </i>
   </energy>
  </scstep>
  <scstep>
   <time name="dav">    2.21    3.01</time>
   <time name="total">    7.62   10.13</time>
   <energy>
    <i name="e_fr_energy">    -14.80495601 </i>
    <i name="e_wo_entrp">    -14.80495601 </i>
    <i name="e_0_energy">    -14.80495601 </i>
   </energy>
  </scstep>
  <scstep>
   <time name="dav">    2.21    2.65</time>
   <time name="total">    6.94    9.27</time>
   <energy>
    <i name="e_fr_energy">    -14.80498377 </i>
    <i name="e_wo_entrp">    -14.80498377 </i>
    <i name="e_0_energy">    -14.80498377 </i>
   </energy>
  </scstep>
  <scstep>
   <time name="dav">    2.24    3.11</time>
   <time name="total">    7.57   10.55</time>
   <energy>
    <i name="e_fr_energy">    -14.80500085 </i>
    <i name="e_wo_entrp">    -14.80500085 </i>
    <i name="e_0_energy">    -14.80500085 </i>
   </energy>
  </scstep>
  <scstep>
   <time name="dav">    2.14    2.69</time>
   <time name="total">    7.73    9.79</time>
   <energy>
    <i name="e_fr_energy">    -14.80501133 </i>
    <i name="e_wo_entrp">    -14.80501133 </i>
    <i name="e_0_energy">    -14.80501133 </i>
   </energy>
  </scstep>
  <scstep>
   <time name="dav">    2.36    2.86</time>
   <time name="total">    7.76   10.92</time>
   <energy>
    <i name="e_fr_energy">    -14.80501642 </i>
    <i name="e_wo_entrp">    -14.80501642 </i>
    <i name="e_0_energy">    -14.80501642 </i>
   </energy>
  </scstep>
  <scstep>
   <time name="dav">    2.23    3.27</time>
   <time name="total">    7.80   10.36</time>
   <energy>
    <i name="e_fr_energy">    -14.80501856 </i>
    <i name="e_wo_entrp">    -14.80501856 </i>
    <i name="e_0_energy">    -14.80501856 </i>
   </energy>
  </scstep>
  <scstep>
   <time name="dav">    2.29    3.02</time>
   <time name="total">    7.62    9.98</time>
   <energy>
    <i name="e_fr_energy">    -14.80501904 </i>
    <i name="e_wo_entrp">    -14.80501904 </i>
    <i name="e_0_energy">    -14.80501904 </i>
   </energy>
  </scstep>
  <scstep>
   <time name="dav">    2.25    3.13</time>
   <time name="total">    7.27    9.06</time>
   <energy>
    <i name="e_fr_energy">    -14.80501923 </i>
    <i name="e_wo_entrp">    -14.80501923 </i>
    <i name="e_0_energy">    -14.80501923 </i>
   </energy>
  </scstep>
  <scstep>
   <time name="dav">    2.22    2.74</time>
   <time name="total">    7.10    9.12</time>
   <energy>
    <i name="e_fr_energy">    -14.80501925 </i>
    <i name="e_wo_entrp">    -14.80501925 </i>
    <i name="e_0_energy">    -14.80501925 </i>
   </energy>
  </scstep>
  <scstep>
   <time name="dav">    2.44    2.93</time>
   <time name="total">    6.95    9.01</time>
   <energy>
    <i name="alphaZ">      0.43525486 </i>
    <i name="ewald">     98.85465687 </i>
    <i name="hartreedc">   -580.55057490 </i>
    <i name="XCdc">     41.02771568 </i>
    <i name="pawpsdc">    381.55126138 </i>
    <i name="pawaedc">   -384.54116623 </i>
    <i name="eentropy">      0.00000000 </i>
    <i name="bandstr">   -150.65339739 </i>
    <i name="atom">    579.07123046 </i>
    <i name="e_fr_energy">    -14.80501926 </i>
    <i name="e_wo_entrp">    -14.80501926 </i>
    <i name="e_0_energy">    -14.80501926 </i>
   </energy>
  </scstep>
  <structure>
   <crystal>
    <varray name="basis" >
     <v>      10.00000000       0.00000000       0.00000000 </v>
     <v>       0.00000000      10.00000000       0.00000000 </v>
     <v>       0.00000000       0.00000000      10.00000000 </v>
    </varray>
    <i name="volume">   1000.00000000 </i>
    <varray name="rec_basis" >
     <v>       0.10000000       0.00000000       0.00000000 </v>
     <v>       0.00000000       0.10000000       0.00000000 </v>
     <v>       0.00000000       0.00000000       0.10000000 </v>
    </varray>
   </crystal>
   <varray name="positions" >
    <v>       0.44281976       0.50150000       0.50000000 </v>
    <v>       0.55718024       0.50000000       0.50000000 </v>
   </varray>
  </structure>
  <varray name="forces" >
   <v>       0.01869277      -0.00017568       0.00000000 </v>
   <v>      -0.01869277       0.00017568       0.00000000 </v>
  </varray>
  <varray name="stress" >
   <v>      -4.08513305       0.00387480       0.00000000 </v>
   <v>       0.00387574      -3.76104966       0.00000000 </v>
   <v>       0.00000000       0.00000000      -3.76083435 </v>
  </varray>
  <energy>
   <i name="e_fr_energy">    -14.80501926 </i>
   <i name="e_wo_entrp">    -14.80501926 </i>
   <i name="e_0_energy">      0.00000000 </i>
  </energy>
  <kpoints>
   <generation param="Monkhorst-Pack">
    <v type="int" name="divisions">       1        1        1 </v>
    <v name="usershift">      0.00000000       0.00000000       0.00000000 </v>
    <v name="genvec1">      1.00000000       0.00000000       0.00000000 </v>
    <v name="genvec2">      0.00000000       1.00000000       0.00000000 </v>
    <v name="genvec3">      0.00000000       0.00000000       1.00000000 </v>
    <v name="shift">      0.00000000       0.00000000       0.00000000 </v>
   </generation>
   <varray name="kpointlist" >
    <v>       0.00000000       0.00000000       0.00000000 </v>
   </varray>
   <varray name="weights" >
    <v>       1.00000000 </v>
   </varray>
  </kpoints>
  <time name="totalsc">  128.82  172.28</time>
 </calculation>
 <calculation>
  <scstep>
   <time name="dav">    2.14    3.63</time>
   <time name="total">    7.38   10.39</time>
   <energy>
    <i name="alphaZ">      0.43525486 </i>
    <i name="ewald">     98.85465687 </i>
    <i name="hartreedc">   -580.54446461 </i>
    <i name="XCdc">     41.02737889 </i>
    <i name="pawpsdc">    381.55123693 </i>
    <i name="pawaedc">   -384.54114133 </i>
    <i name="eentropy">      0.00000000 </i>
    <i name="bandstr">   -150.65949717 </i>
    <i name="atom">    579.07123046 </i>
    <i name="e_fr_energy">    -14.80534509 </i>
    <i name="e_wo_entrp">    -14.80534509 </i>
    <i name="e_0_energy">    -14.80534509 </i>
   </energy>
  </scstep>
  <scstep>
   <time name="dav">    3.01    4.43</time>
   <time name="total">    8.00   11.78</time>
   <energy>
    <i name="e_fr_energy">    -14.80472051 </i>
    <i name="e_wo_entrp">    -14.80472051 </i>
    <i name="e_0_energy">    -14.80472051 </i>
   </energy>
  </scstep>
  <scstep>
   <time name="dav">    2.24    2.81</time>
   <time name="total">    7.40    9.86</time>
   <energy>
    <i name="e_fr_energy">    -14.80491266 </i>
    <i name="e_wo_entrp">    -14.80491266 </i>
    <i name="e_0_energy">    -14.80491266 </i>
   </energy>
  </scstep>
  <scstep>
   <time name="dav">    2.23    2.49</time>
   <time name="total">    7.41    8.99</time>
   <energy>
    <i name="e_fr_energy">    -14.80495904 </i>
    <i name="e_wo_entrp">    -14.80495904 </i>
    <i name="e_0_energy">    -14.80495904 </i>
   </energy>
  </scstep>
  <scstep>
   <time name="dav">    2.43    3.46</time>
   <time name="total">    7.59   10.12</time>
   <energy>
    <i name="e_fr_energy">    -14.80499158 </i>
    <i name="e_wo_entrp">    -14.80499158 </i>
    <i name="e_0_energy">    -14.80499158 </i>
   </energy>
  </scstep>
  <scstep>
   <time name="dav">    2.46    3.73</time>
   <time name="total">    8.30   11.95</time>
   <energy>
    <i name="e_fr_energy">    -14.80499823 </i>
    <i name="e_wo_entrp">    -14.80499823 </i>
    <i name="e_0_energy">    -14.80499823 </i>
   </energy>
  </scstep>
  <scstep>
   <time name="dav">    2.41    3.24</time>
   <time name="total">    7.84   10.92</time>
   <energy>
    <i name="e_fr_energy">    -14.80500541 </i>
    <i name="e_wo_entrp">    -14.80500541 </i>
    <i name="e_0_energy">    -14.80500541 </i>
   </energy>
  </scstep>
  <scstep>
   <time name="dav">    2.69    3.40</time>
   <time name="total">    8.22   10.49</time>
   <energy>
    <i name="e_fr_energy">    -14.80501181 </i>
    <i name="e_wo_entrp">    -14.80501181 </i>
    <i name="e_0_energy">    -14.80501181 </i>
   </energy>
  </scstep>
  <scstep>
   <time name="dav">    2.32    3.59</time>
   <time name="total">    7.79   11.38</time>
   <energy>
    <i name="e_fr_energy">    -14.80501740 </i>
    <i name="e_wo_entrp">    -14.80501740 </i>
    <i name="e_0_energy">    -14.80501740 </i>
   </energy>
  </scstep>
  <scstep>
   <time name="dav">    2.62    3.34</time>
   <time name="total">    7.82   10.22</time>
   <energy>
    <i name="e_fr_energy">    -14.80501838 </i>
    <i name="e_wo_entrp">    -14.80501838 </i>
    <i name="e_0_energy">    -14.80501838 </i>
   </energy>
  </scstep>
  <scstep>
   <time name="dav">    2.59    2.90</time>
   <time name="total">    8.62   10.06</time>
   <energy>
    <i name="e_fr_energy">    -14.80501905 </i>
    <i name="e_wo_entrp">    -14.80501905 </i>
    <i name="e_0_energy">    -14.80501905 </i>
   </energy>
  </scstep>
  <scstep>
   <time name="dav">    2.39    3.09</time>
   <time name="total">    8.13   10.75</time>
   <energy>
    <i name="e_fr_energy">    -14.80501919 </i>
    <i name="e_wo_entrp">    -14.80501919 </i>
    <i name="e_0_energy">    -14.80501919 </i>
   </energy>
  </scstep>
  <scstep>
   <time name="dav">    2.36    3.25</time>
   <time name="total">    7.62    9.70</time>
   <energy>
    <i name="e_fr_energy">    -14.80501926 </i>
    <i name="e_wo_entrp">    -14.80501926 </i>
    <i name="e_0_energy">    -14.80501926 </i>
   </energy>
  </scstep>
  <scstep>
   <time name="dav">    2.28    2.67</time>
   <time name="total">    6.44    8.73</time>
   <energy>
    <i name="alphaZ">      0.43525486 </i>
    <i name="ewald">     98.85465687 </i>
    <i name="hartreedc">   -580.55057505 </i>
    <i name="XCdc">     41.02771575 </i>
    <i name="pawpsdc">    381.55124095 </i>
    <i name="pawaedc">   -384.54114538 </i>
    <i name="eentropy">      0.00000000 </i>
    <i name="bandstr">   -150.65339773 </i>
    <i name="atom">    579.07123046 </i>
    <i name="e_fr_energy">    -14.80501926 </i>
    <i name="e_wo_entrp">    -14.80501926 </i>
    <i name="e_0_energy">    -14.80501926 </i>
   </energy>
  </scstep>
  <structure>
   <crystal>
    <varray name="basis" >
     <v>      10.00000000       0.00000000       0.00000000 </v>
     <v>       0.00000000      10.00000000       0.00000000 </v>
     <v>       0.00000000       0.00000000      10.00000000 </v>
    </varray>
    <i name="volume">   1000.00000000 </i>
    <varray name="rec_basis" >
     <v>       0.10000000       0.00000000       0.00000000 </v>
     <v>       0.00000000       0.10000000       0.00000000 </v>
     <v>       0.00000000       0.00000000       0.10000000 </v>
    </varray>
   </crystal>
   <varray name="positions" >
    <v>       0.44281976       0.49850000       0.50000000 </v>
    <v>       0.55718024       0.50000000       0.50000000 </v>
   </varray>
  </structure>
  <varray name="forces" >
   <v>       0.01869369       0.00017587       0.00000000 </v>
   <v>      -0.01869369      -0.00017587       0.00000000 </v>
  </varray>
  <varray name="stress" >
   <v>      -4.08513800      -0.00387489       0.00000000 </v>
   <v>      -0.00387480      -3.76104294       0.00000000 </v>
   <v>       0.00000000       0.00000000      -3.76083198 </v>
  </varray>
  <energy>
   <i name="e_fr_energy">    -14.80501926 </i>
   <i name="e_wo_entrp">    -14.80501926 </i>
   <i name="e_0_energy">      0.00000000 </i>
  </energy>
  <kpoints>
   <generation param="Monkhorst-Pack">
    <v type="int" name="divisions">       1        1        1 </v>
    <v name="usershift">      0.00000000       0.00000000       0.00000000 </v>
    <v name="genvec1">      1.00000000       0.00000000       0.00000000 </v>
    <v name="genvec2">      0.00000000       1.00000000       0.00000000 </v>
    <v name="genvec3">      0.00000000       0.00000000       1.00000000 </v>
    <v name="shift">      0.00000000       0.00000000       0.00000000 </v>
   </generation>
   <varray name="kpointlist" >
    <v>       0.00000000       0.00000000       0.00000000 </v>
   </varray>
   <varray name="weights" >
    <v>       1.00000000 </v>
   </varray>
  </kpoints>
  <time name="totalsc">  116.80  157.35</time>
 </calculation>
 <calculation>
  <scstep>
   <time name="dav">    2.08    2.62</time>
   <time name="total">    7.36   10.04</time>
   <energy>
    <i name="alphaZ">      0.43525486 </i>
    <i name="ewald">     94.99404113 </i>
    <i name="hartreedc">   -578.23599200 </i>
    <i name="XCdc">     40.95764186 </i>
    <i name="pawpsdc">    381.55123486 </i>
    <i name="pawaedc">   -384.54113922 </i>
    <i name="eentropy">      0.00000000 </i>
    <i name="bandstr">   -149.02449719 </i>
    <i name="atom">    579.07123046 </i>
    <i name="e_fr_energy">    -14.79222524 </i>
    <i name="e_wo_entrp">    -14.79222524 </i>
    <i name="e_0_energy">    -14.79222524 </i>
   </energy>
  </scstep>
  <scstep>
   <time name="dav">    2.36    3.26</time>
   <time name="total">    7.57    9.35</time>
   <energy>
    <i name="e_fr_energy">    -14.79279823 </i>
    <i name="e_wo_entrp">    -14.79279823 </i>
    <i name="e_0_energy">    -14.79279823 </i>
   </energy>
  </scstep>
  <scstep>
   <time name="dav">    2.44    2.76</time>
   <time name="total">    7.21    9.49</time>
   <energy>
    <i name="e_fr_energy">    -14.79250750 </i>
    <i name="e_wo_entrp">    -14.79250750 </i>
    <i name="e_0_energy">    -14.79250750 </i>
   </energy>
  </scstep>
  <scstep>
   <time name="dav">    2.28    3.53</time>
   <time name="total">    7.65   10.67</time>
   <energy>
    <i name="e_fr_energy">    -14.79258817 </i>
    <i name="e_wo_entrp">    -14.79258817 </i>
    <i name="e_0_energy">    -14.79258817 </i>
   </energy>
  </scstep>
  <scstep>
   <time name="dav">    2.44    2.54</time>
   <time name="total">    8.12   10.07</time>
   <energy>
    <i name="e_fr_energy">    -14.79261490 </i>
    <i name="e_wo_entrp">    -14.79261490 </i>
    <i name="e_0_energy">    -14.79261490 </i>
   </energy>
  </scstep>
  <scstep>
   <time name="dav">    2.45    3.10</time>
   <time name="total">    7.67    9.67</time>
   <energy>
    <i name="e_fr_energy">    -14.79263820 </i>
    <i name="e_wo_entrp">    -14.79263820 </i>
    <i name="e_0_energy">    -14.79263820 </i>
   </energy>
  </scstep>
  <scstep>
   <time name="dav">    2.15    3.03</time>
   <time name="total">    7.28    9.36</time>
   <energy>
    <i name="e_fr_energy">    -14.79265308 </i>
    <i name="e_wo_entrp">    -14.79265308 </i>
    <i name="e_0_energy">    -14.79265308 </i>
   </energy>
  </scstep>
  <scstep>
   <time name="dav">    2.94    4.36</time>
   <time name="total">    8.25   11.36</time>
   <energy>
    <i name="e_fr_energy">    -14.79267842 </i>
    <i name="e_wo_entrp">    -14.79267842 </i>
    <i name="e_0_energy">    -14.79267842 </i>
   </energy>
  </scstep>
  <scstep>
   <time name="dav">    2.36    3.50</time>
   <time name="total">    7.95   11.66</time>
   <energy>
    <i name="e_fr_energy">    -14.79269070 </i>
    <i name="e_wo_entrp">    -14.79269070 </i>
    <i name="e_0_energy">    -14.79269070 </i>
   </energy>
  </scstep>
  <scstep>
   <time name="dav">    2.12    3.45</time>
   <time name="total">    7.45   11.04</time>
   <energy>
    <i name="e_fr_energy">    -14.79269688 </i>
    <i name="e_wo_entrp">    -14.79269688 </i>
    <i name="e_0_energy">    -14.79269688 </i>
   </energy>
  </scstep>
  <scstep>
   <time name="dav">    2.60    3.17</time>
   <time name="total">    8.10   10.31</time>
   <energy>
    <i name="e_fr_energy">    -14.79270153 </i>
    <i name="e_wo_entrp">    -14.79270153 </i>
    <i name="e_0_energy">    -14.79270153 </i>
   </energy>
  </scstep>
  <scstep>
   <time name="dav">    2.55    3.29</time>
   <time name="total">    7.73   10.26</time>
   <energy>
    <i name="e_fr_energy">    -14.79270318 </i>
    <i name="e_wo_entrp">    -14.79270318 </i>
    <i name="e_0_energy">    -14.79270318 </i>
   </energy>
  </scstep>
  <scstep>
   <time name="dav">    2.23    3.03</time>
   <time name="total">    7.95    9.69</time>
   <energy>
    <i name="e_fr_energy">    -14.79270384 </i>
    <i name="e_wo_entrp">    -14.79270384 </i>
    <i name="e_0_energy">    -14.79270384 </i>
   </energy>
  </scstep>
  <scstep>
   <time name="dav">    2.70    3.46</time>
   <time name="total">    8.19   10.59</time>
   <energy>
    <i name="e_fr_energy">    -14.79270398 </i>
    <i name="e_wo_entrp">    -14.79270398 </i>
    <i name="e_0_energy">    -14.79270398 </i>
   </energy>
  </scstep>
  <scstep>
   <time name="dav">    2.49    3.76</time>
   <time name="total">    7.59   10.61</time>
   <energy>
    <i name="e_fr_energy">    -14.79270400 </i>
    <i name="e_wo_entrp">    -14.79270400 </i>
    <i name="e_0_energy">    -14.79270400 </i>
   </energy>
  </scstep>
  <scstep>
   <time name="dav">    2.45    3.63</time>
   <time name="total">    7.27   10.23</time>
   <energy>
    <i name="alphaZ">      0.43525486 </i>
    <i name="ewald">     94.99404113 </i>
    <i name="hartreedc">   -577.44717237 </i>
    <i name="XCdc">     40.91252557 </i>
    <i name="pawpsdc">    376.72143771 </i>
    <i name="pawaedc">   -379.68949480 </i>
    <i name="eentropy">      0.00000000 </i>
    <i name="bandstr">   -149.79052656 </i>
    <i name="atom">    579.07123046 </i>
    <i name="e_fr_energy">    -14.79270400 </i>
    <i name="e_wo_entrp">    -14.79270400 </i>
    <i name="e_0_energy">    -14.79270400 </i>
   </energy>
  </scstep>
  <structure>
   <crystal>
    <varray name="basis" >
     <v>      10.00000000       0.00000000       0.00000000 </v>
     <v>       0.00000000      10.00000000       0.00000000 </v>
     <v>       0.00000000       0.00000000      10.00000000 </v>
    </varray>
    <i name="volume">   1000.00000000 </i>
    <varray name="rec_basis" >
     <v>       0.10000000       0.00000000       0.00000000 </v>
     <v>       0.00000000       0.10000000       0.00000000 </v>
     <v>       0.00000000       0.00000000       0.10000000 </v>
    </varray>
   </crystal>
   <varray name="positions" >
    <v>       0.44281976       0.50000000       0.50000000 </v>
    <v>       0.55868024       0.50000000       0.50000000 </v>
   </varray>
  </structure>
  <varray name="forces" >
   <v>       1.60192780       0.00000000       0.00000000 </v>
   <v>      -1.60192780       0.00000000       0.00000000 </v>
  </varray>
  <varray name="stress" >
   <v>      -7.01835962       0.00000000       0.00000000 </v>
   <v>       0.00000000      -3.76611880       0.00000000 </v>
   <v>       0.00000000       0.00000000      -3.76611880 </v>
  </varray>
  <energy>
   <i name="e_fr_energy">    -14.79270400 </i>
   <i name="e_wo_entrp">    -14.79270400 </i>
   <i name="e_0_energy">      0.00000000 </i>
  </energy>
  <kpoints>
   <generation param="Monkhorst-Pack">
    <v type="int" name="divisions">       1        1        1 </v>
    <v name="usershift">      0.00000000       0.00000000       0.00000000 </v>
    <v name="genvec1">      1.00000000       0.00000000       0.00000000 </v>
    <v name="genvec2">      0.00000000       1.00000000       0.00000000 </v>
    <v name="genvec3">      0.00000000       0.00000000       1.00000000 </v>
    <v name="shift">      0.00000000       0.00000000       0.00000000 </v>
   </generation>
   <varray name="kpointlist" >
    <v>       0.00000000       0.00000000       0.00000000 </v>
   </varray>
   <varray name="weights" >
    <v>       1.00000000 </v>
   </varray>
  </kpoints>
  <time name="totalsc">  131.71  174.82</time>
 </calculation>
 <calculation>
  <scstep>
   <time name="dav">    2.34    2.82</time>
   <time name="total">    7.51    9.48</time>
   <energy>
    <i name="alphaZ">      0.43525486 </i>
    <i name="ewald">    102.87131187 </i>
    <i name="hartreedc">   -582.09812282 </i>
    <i name="XCdc">     41.05404917 </i>
    <i name="pawpsdc">    376.72142688 </i>
    <i name="pawaedc">   -379.68948375 </i>
    <i name="eentropy">      0.00000000 </i>
    <i name="bandstr">   -153.15753720 </i>
    <i name="atom">    579.07123046 </i>
    <i name="e_fr_energy">    -14.79187054 </i>
    <i name="e_wo_entrp">    -14.79187054 </i>
    <i name="e_0_energy">    -14.79187054 </i>
   </energy>
  </scstep>
  <scstep>
   <time name="dav">    2.24    2.25</time>
   <time name="total">    7.44    8.31</time>
   <energy>
    <i name="e_fr_energy">    -14.79348939 </i>
    <i name="e_wo_entrp">    -14.79348939 </i>
    <i name="e_0_energy">    -14.79348939 </i>
   </energy>
  </scstep>
  <scstep>
   <time name="dav">    2.46    2.68</time>
   <time name="total">    7.65    9.15</time>
   <energy>
    <i name="e_fr_energy">    -14.79159990 </i>
    <i name="e_wo_entrp">    -14.79159990 </i>
    <i name="e_0_energy">    -14.79159990 </i>
   </energy>
  </scstep>
  <scstep>
   <time name="dav">    2.31    2.85</time>
   <time name="total">    7.49    8.86</time>
   <energy>
    <i name="e_fr_energy">    -14.79171437 </i>
    <i name="e_wo_entrp">    -14.79171437 </i>
    <i name="e_0_energy">    -14.79171437 </i>
   </energy>
  </scstep>
  <scstep>
   <time name="dav">    2.62    3.43</time>
   <time name="total">    7.83   10.30</time>
   <energy>
    <i name="e_fr_energy">    -14.79175687 </i>
    <i name="e_wo_entrp">    -14.79175687 </i>
    <i name="e_0_energy">    -14.79175687 </i>
   </energy>
  </scstep>
  <scstep>
   <time name="dav">    2.13    3.08</time>
   <time name="total">    7.63   10.50</time>
   <energy>
    <i name="e_fr_energy">    -14.79183000 </i>
    <i name="e_wo_entrp">    -14.79183000 </i>
    <i name="e_0_energy">    -14.79183000 </i>
   </energy>
  </scstep>
  <scstep>
   <time name="dav">    2.41    2.80</time>
   <time name="total">    7.30    9.43</time>
   <energy>
    <i name="e_fr_energy">    -14.79189675 </i>
    <i name="e_wo_entrp">    -14.79189675 </i>
    <i name="e_0_energy">    -14.79189675 </i>
   </energy>
  </scstep>
  <scstep>
   <time name="dav">    2.37    2.93</time>
   <time name="total">    7.36    9.04</time>
   <energy>
    <i name="e_fr_energy">    -14.79197100 </i>
    <i name="e_wo_entrp">    -14.79197100 </i>
    <i name="e_0_energy">    -14.79197100 </i>
   </energy>
  </scstep>
  <scstep>
   <time name="dav">    2.30    3.26</time>
   <time name="total">    7.68   10.05</time>
   <energy>
    <i name="e_fr_energy">    -14.79201128 </i>
    <i name="e_wo_entrp">    -14.79201128 </i>
    <i name="e_0_energy">    -14.79201128 </i>
   </energy>
  </scstep>
  <scstep>
   <time name="dav">    2.60    3.69</time>
   <time name="total">    7.85   10.33</time>
   <energy>
    <i name="e_fr_energy">    -14.79203700 </i>
    <i name="e_wo_entrp">    -14.79203700 </i>
    <i name="e_0_energy">    -14.79203700 </i>
   </energy>
  </scstep>
  <scstep>
   <time name="dav">    2.43    3.27</time>
   <time name="total">    7.74   10.25</time>
   <energy>
    <i name="e_fr_energy">    -14.79205389 </i>
    <i name="e_wo_entrp">    -14.79205389 </i>
    <i name="e_0_energy">    -14.79205389 </i>
   </energy>
  </scstep>
  <scstep>
   <time name="dav">    2.33    3.43</time>
   <time name="total">    7.72   10.95</time>
   <energy>
    <i name="e_fr_energy">    -14.79205851 </i>
    <i name="e_wo_entrp">    -14.79205851 </i>
    <i name="e_0_energy">    -14.79205851 </i>
   </energy>
  </scstep>
  <scstep>
   <time name="dav">    2.06    3.24</time>
   <time name="total">    7.48   10.64</time>
   <energy>
    <i name="e_fr_energy">    -14.79206159 </i>
    <i name="e_wo_entrp">    -14.79206159 </i>
    <i name="e_0_energy">    -14.79206159 </i>
   </energy>
  </scstep>
  <scstep>
   <time name="dav">    2.34    3.53</time>
   <time name="total">    7.83   11.39</time>
   <energy>
    <i name="e_fr_energy">    -14.79206189 </i>
    <i name="e_wo_entrp">    -14.79206189 </i>
    <i name="e_0_energy">    -14.79206189 </i>
   </energy>
  </scstep>
  <scstep>
   <time name="dav">    2.40    3.48</time>
   <time name="total">    7.61   10.64</time>
   <energy>
    <i name="e_fr_energy">    -14.79206198 </i>
    <i name="e_wo_entrp">    -14.79206198 </i>
    <i name="e_0_energy">    -14.79206198 </i>
   </energy>
  </scstep>
  <scstep>
   <time name="dav">    2.44    3.04</time>
   <time name="total">    8.03   10.53</time>
   <energy>
    <i name="e_fr_energy">    -14.79206199 </i>
    <i name="e_wo_entrp">    -14.79206199 </i>
    <i name="e_0_energy">    -14.79206199 </i>
   </energy>
  </scstep>
  <scstep>
   <time name="dav">    2.17    3.52</time>
   <time name="total">    6.60    8.76</time>
   <energy>
    <i name="alphaZ">      0.43525486 </i>
    <i name="ewald">    102.87131187 </i>
    <i name="hartreedc">   -583.76083464 </i>
    <i name="XCdc">     41.14780033 </i>
    <i name="pawpsdc">    386.68079470 </i>
    <i name="pawaedc">   -389.69477327 </i>
    <i name="eentropy">      0.00000000 </i>
    <i name="bandstr">   -151.54284631 </i>
    <i name="atom">    579.07123046 </i>
    <i name="e_fr_energy">    -14.79206200 </i>
    <i name="e_wo_entrp">    -14.79206200 </i>
    <i name="e_0_energy">    -14.79206200 </i>
   </energy>
  </scstep>
  <structure>
   <crystal>
    <varray name="basis" >
     <v>      10.00000000       0.00000000       0.00000000 </v>
     <v>       0.00000000      10.00000000       0.00000000 </v>
     <v>       0.00000000       0.00000000      10.00000000 </v>
    </varray>
    <i name="volume">   1000.00000000 </i>
    <varray name="rec_basis" >
     <v>       0.10000000       0.00000000       0.00000000 </v>
     <v>       0.00000000       0.10000000       0.00000000 </v>
     <v>       0.00000000       0.00000000       0.10000000 </v>
    </varray>
   </crystal>
   <varray name="positions" >
    <v>       0.44281976       0.50000000       0.50000000 </v>
    <v>       0.55568024       0.50000000       0.50000000 </v>
   </varray>
  </structure>
  <varray name="forces" >
   <v>      -1.77293006       0.00000000       0.00000000 </v>
   <v>       1.77293006       0.00000000       0.00000000 </v>
  </varray>
  <varray name="stress" >
   <v>      -0.84113586       0.00000000       0.00000000 </v>
   <v>       0.00000000      -3.75620055       0.00000000 </v>
   <v>       0.00000000       0.00000000      -3.75620055 </v>
  </varray>
  <energy>
   <i name="e_fr_energy">    -14.79206200 </i>
   <i name="e_wo_entrp">    -14.79206200 </i>
   <i name="e_0_energy">      0.00000000 </i>
  </energy>
  <kpoints>
   <generation param="Monkhorst-Pack">
    <v type="int" name="divisions">       1        1        1 </v>
    <v name="usershift">      0.00000000       0.00000000       0.00000000 </v>
    <v name="genvec1">      1.00000000       0.00000000       0.00000000 </v>
    <v name="genvec2">      0.00000000       1.00000000       0.00000000 </v>
    <v name="genvec3">      0.00000000       0.00000000       1.00000000 </v>
    <v name="shift">      0.00000000       0.00000000       0.00000000 </v>
   </generation>
   <varray name="kpointlist" >
    <v>       0.00000000       0.00000000       0.00000000 </v>
   </varray>
   <varray name="weights" >
    <v>       1.00000000 </v>
   </varray>
  </kpoints>
  <time name="totalsc">  137.34  180.81</time>
 </calculation>
 <calculation>
  <scstep>
   <time name="dav">    2.36    2.92</time>
   <time name="total">    7.70    9.48</time>
   <energy>
    <i name="alphaZ">      0.43525486 </i>
    <i name="ewald">     98.85465687 </i>
    <i name="hartreedc">   -581.38084266 </i>
    <i name="XCdc">     41.07474843 </i>
    <i name="pawpsdc">    386.68078318 </i>
    <i name="pawaedc">   -389.69476149 </i>
    <i name="eentropy">      0.00000000 </i>
    <i name="bandstr">   -149.84557337 </i>
    <i name="atom">    579.07123046 </i>
    <i name="e_fr_energy">    -14.80450371 </i>
    <i name="e_wo_entrp">    -14.80450371 </i>
    <i name="e_0_energy">    -14.80450371 </i>
   </energy>
  </scstep>
  <scstep>
   <time name="dav">    2.23    2.84</time>
   <time name="total">    6.84    7.84</time>
   <energy>
    <i name="e_fr_energy">    -14.80524151 </i>
    <i name="e_wo_entrp">    -14.80524151 </i>
    <i name="e_0_energy">    -14.80524151 </i>
   </energy>
  </scstep>
  <scstep>
   <time name="dav">    2.19    2.57</time>
   <time name="total">    6.99    9.27</time>
   <energy>
    <i name="e_fr_energy">    -14.80480691 </i>
    <i name="e_wo_entrp">    -14.80480691 </i>
    <i name="e_0_energy">    -14.80480691 </i>
   </energy>
  </scstep>
  <scstep>
   <time name="dav">    2.20    2.79</time>
   <time name="total">    7.29   10.26</time>
   <energy>
    <i name="e_fr_energy">    -14.80489185 </i>
    <i name="e_wo_entrp">    -14.80489185 </i>
    <i name="e_0_energy">    -14.80489185 </i>
   </energy>
  </scstep>
  <scstep>
   <time name="dav">    2.30    3.06</time>
   <time name="total">    7.20    9.66</time>
   <energy>
    <i name="e_fr_energy">    -14.80491959 </i>
    <i name="e_wo_entrp">    -14.80491959 </i>
    <i name="e_0_energy">    -14.80491959 </i>
   </energy>
  </scstep>
  <scstep>
   <time name="dav">    2.29    3.23</time>
   <time name="total">    6.88    9.47</time>
   <energy>
    <i name="e_fr_energy">    -14.80494745 </i>
    <i name="e_wo_entrp">    -14.80494745 </i>
    <i name="e_0_energy">    -14.80494745 </i>
   </energy>
  </scstep>
  <scstep>
   <time name="dav">    2.34    3.46</time>
   <time name="total">    7.22    9.89</time>
   <energy>
    <i name="e_fr_energy">    -14.80496147 </i>
    <i name="e_wo_entrp">    -14.80496147 </i>
    <i name="e_0_energy">    -14.80496147 </i>
   </energy>
  </scstep>
  <scstep>
   <time name="dav">    2.34    3.10</time>
   <time name="total">    6.98    9.51</time>
   <energy>
    <i name="e_fr_energy">    -14.80498617 </i>
    <i name="e_wo_entrp">    -14.80498617 </i>
    <i name="e_0_energy">    -14.80498617 </i>
   </energy>
  </scstep>
  <scstep>
   <time name="dav">    2.51    2.78</time>
   <time name="total">    7.14    8.52</time>
   <energy>
    <i name="e_fr_energy">    -14.80499835 </i>
    <i name="e_wo_entrp">    -14.80499835 </i>
    <i name="e_0_energy">    -14.80499835 </i>
   </energy>
  </scstep>
  <scstep>
   <time name="dav">    2.11    2.97</time>
   <time name="total">    6.51    8.20</time>
   <energy>
    <i name="e_fr_energy">    -14.80500387 </i>
    <i name="e_wo_entrp">    -14.80500387 </i>
    <i name="e_0_energy">    -14.80500387 </i>
   </energy>
  </scstep>
  <scstep>
   <time name="dav">    2.35    2.55</time>
   <time name="total">    7.68    9.84</time>
   <energy>
    <i name="e_fr_energy">    -14.80500950 </i>
    <i name="e_wo_entrp">    -14.80500950 </i>
    <i name="e_0_energy">    -14.80500950 </i>
   </energy>
  </scstep>
  <scstep>
   <time name="dav">    2.44    2.81</time>
   <time name="total">    8.04    9.90</time>
   <energy>
    <i name="e_fr_energy">    -14.80501124 </i>
    <i name="e_wo_entrp">    -14.80501124 </i>
    <i name="e_0_energy">    -14.80501124 </i>
   </energy>
  </scstep>
  <scstep>
   <time name="dav">    2.33    3.22</time>
   <time name="total">    8.07   10.08</time>
   <energy>
    <i name="e_fr_energy">    -14.80501208 </i>
    <i name="e_wo_entrp">    -14.80501208 </i>
    <i name="e_0_energy">    -14.80501208 </i>
   </energy>
  </scstep>
  <scstep>
   <time name="dav">    2.80    3.51</time>
   <time name="total">    8.12   10.69</time>
   <energy>
    <i name="e_fr_energy">    -14.80501218 </i>
    <i name="e_wo_entrp">    -14.80501218 </i>
    <i name="e_0_energy">    -14.80501218 </i>
   </energy>
  </scstep>
  <scstep>
   <time name="dav">    2.49    3.00</time>
   <time name="total">    7.95   10.48</time>
   <energy>
    <i name="e_fr_energy">    -14.80501223 </i>
    <i name="e_wo_entrp">    -14.80501223 </i>
    <i name="e_0_energy">    -14.80501223 </i>
   </energy>
  </scstep>
  <scstep>
   <time name="dav">    2.46    2.97</time>
   <time name="total">    6.73    8.48</time>
   <energy>
    <i name="alphaZ">      0.43525486 </i>
    <i name="ewald">     98.85465687 </i>
    <i name="hartreedc">   -580.55051661 </i>
    <i name="XCdc">     41.02771524 </i>
    <i name="pawpsdc">    381.55122512 </i>
    <i name="pawaedc">   -384.54112852 </i>
    <i name="eentropy">      0.00000000 </i>
    <i name="bandstr">   -150.65344965 </i>
    <i name="atom">    579.07123046 </i>
    <i name="e_fr_energy">    -14.80501224 </i>
    <i name="e_wo_entrp">    -14.80501224 </i>
    <i name="e_0_energy">    -14.80501224 </i>
   </energy>
  </scstep>
  <structure>
   <crystal>
    <varray name="basis" >
     <v>      10.00000000       0.00000000       0.00000000 </v>
     <v>       0.00000000      10.00000000       0.00000000 </v>
     <v>       0.00000000       0.00000000      10.00000000 </v>
    </varray>
    <i name="volume">   1000.00000000 </i>
    <varray name="rec_basis" >
     <v>       0.10000000       0.00000000       0.00000000 </v>
     <v>       0.00000000       0.10000000       0.00000000 </v>
     <v>       0.00000000       0.00000000       0.10000000 </v>
    </varray>
   </crystal>
   <varray name="positions" >
    <v>       0.44281976       0.50000000       0.50000000 </v>
    <v>       0.55718024       0.50150000       0.50000000 </v>
   </varray>
  </structure>
  <varray name="forces" >
   <v>       0.01860001       0.00052982       0.00000000 </v>
   <v>      -0.01860001      -0.00052982       0.00000000 </v>
  </varray>
  <varray name="stress" >
   <v>      -4.08512463      -0.00322605       0.00000000 </v>
   <v>      -0.00322619      -3.76076882       0.00000000 </v>
   <v>       0.00000000       0.00000000      -3.76066385 </v>
  </varray>
  <energy>
   <i name="e_fr_energy">    -14.80501224 </i>
   <i name="e_wo_entrp">    -14.80501224 </i>
   <i name="e_0_energy">      0.00000000 </i>
  </energy>
  <kpoints>
   <generation param="Monkhorst-Pack">
    <v type="int" name="divisions">       1        1        1 </v>
    <v name="usershift">      0.00000000       0.00000000       0.00000000 </v>
    <v name="genvec1">      1.00000000       0.00000000       0.00000000 </v>
    <v name="genvec2">      0.00000000       1.00000000       0.00000000 </v>
    <v name="genvec3">      0.00000000       0.00000000       1.00000000 </v>
    <v name="shift">      0.00000000       0.00000000       0.00000000 </v>
   </generation>
   <varray name="kpointlist" >
    <v>       0.00000000       0.00000000       0.00000000 </v>
   </varray>
   <varray name="weights" >
    <v>       1.00000000 </v>
   </varray>
  </kpoints>
  <time name="totalsc">  125.38  162.51</time>
 </calculation>
 <calculation>
  <scstep>
   <time name="dav">    2.59    3.77</time>
   <time name="total">    8.37   11.65</time>
   <energy>
    <i name="alphaZ">      0.43525486 </i>
    <i name="ewald">     98.85465687 </i>
    <i name="hartreedc">   -580.53281481 </i>
    <i name="XCdc">     41.02667067 </i>
    <i name="pawpsdc">    381.55124313 </i>
    <i name="pawaedc">   -384.54114665 </i>
    <i name="eentropy">      0.00000000 </i>
    <i name="bandstr">   -150.66468238 </i>
    <i name="atom">    579.07123046 </i>
    <i name="e_fr_energy">    -14.79958785 </i>
    <i name="e_wo_entrp">    -14.79958785 </i>
    <i name="e_0_energy">    -14.79958785 </i>
   </energy>
  </scstep>
  <scstep>
   <time name="dav">    2.44    2.76</time>
   <time name="total">    7.77    9.34</time>
   <energy>
    <i name="e_fr_energy">    -14.80513732 </i>
    <i name="e_wo_entrp">    -14.80513732 </i>
    <i name="e_0_energy">    -14.80513732 </i>
   </energy>
  </scstep>
  <scstep>
   <time name="dav">    2.79    4.16</time>
   <time name="total">    8.05   11.36</time>
   <energy>
    <i name="e_fr_energy">    -14.80473929 </i>
    <i name="e_wo_entrp">    -14.80473929 </i>
    <i name="e_0_energy">    -14.80473929 </i>
   </energy>
  </scstep>
  <scstep>
   <time name="dav">    2.24    3.03</time>
   <time name="total">    7.64    9.58</time>
   <energy>
    <i name="e_fr_energy">    -14.80495368 </i>
    <i name="e_wo_entrp">    -14.80495368 </i>
    <i name="e_0_energy">    -14.80495368 </i>
   </energy>
  </scstep>
  <scstep>
   <time name="dav">    2.41    2.88</time>
   <time name="total">    7.69    9.69</time>
   <energy>
    <i name="e_fr_energy">    -14.80497953 </i>
    <i name="e_wo_entrp">    -14.80497953 </i>
    <i name="e_0_energy">    -14.80497953 </i>
   </energy>
  </scstep>
  <scstep>
   <time name="dav">    2.32    2.83</time>
   <time name="total">    7.71   10.02</time>
   <energy>
    <i name="e_fr_energy">    -14.80499205 </i>
    <i name="e_wo_entrp">    -14.80499205 </i>
    <i name="e_0_energy">    -14.80499205 </i>
   </energy>
  </scstep>
  <scstep>
   <time name="dav">    2.23    3.25</time>
   <time name="total">    7.96   10.86</time>
   <energy>
    <i name="e_fr_energy">    -14.80499824 </i>
    <i name="e_wo_entrp">    -14.80499824 </i>
    <i name="e_0_energy">    -14.80499824 </i>
   </energy>
  </scstep>
  <scstep>
   <time name="dav">    2.35    2.35</time>
   <time name="total">    6.87    8.00</time>
   <energy>
    <i name="e_fr_energy">    -14.80500316 </i>
    <i name="e_wo_entrp">    -14.80500316 </i>
    <i name="e_0_energy">    -14.80500316 </i>
   </energy>
  </scstep>
  <scstep>
   <time name="dav">    2.35    3.07</time>
   <time name="total">    7.53    9.53</time>
   <energy>
    <i name="e_fr_energy">    -14.80500795 </i>
    <i name="e_wo_entrp">    -14.80500795 </i>
    <i name="e_0_energy">    -14.80500795 </i>
   </energy>
  </scstep>
  <scstep>
   <time name="dav">    2.06    2.46</time>
   <time name="total">    6.83    8.47</time>
   <energy>
    <i name="e_fr_energy">    -14.80501097 </i>
    <i name="e_wo_entrp">    -14.80501097 </i>
    <i name="e_0_energy">    -14.80501097 </i>
   </energy>
  </scstep>
  <scstep>
   <time name="dav">    2.37    3.07</time>
   <time name="total">    7.91   10.54</time>
   <energy>
    <i name="e_fr_energy">    -14.80501185 </i>
    <i name="e_wo_entrp">    -14.80501185 </i>
    <i name="e_0_energy">    -14.80501185 </i>
   </energy>
  </scstep>
  <scstep>
   <time name="dav">    2.20    3.08</time>
   <time name="total">    7.81   10.45</time>
   <energy>
    <i name="e_fr_energy">    -14.80501215 </i>
    <i name="e_wo_entrp">    -14.80501215 </i>
    <i name="e_0_energy">    -14.80501215 </i>
   </energy>
  </scstep>
  <scstep>
   <time name="dav">    2.28    2.61</time>
   <time name="total">    7.73   10.27</time>
   <energy>
    <i name="e_fr_energy">    -14.80501220 </i>
    <i name="e_wo_entrp">    -14.80501220 </i>
    <i name="e_0_energy">    -14.80501220 </i>
   </energy>
  </scstep>
  <scstep>
   <time name="dav">    2.40    3.24</time>
   <time name="total">    7.37    9.57</time>
   <energy>
    <i name="e_fr_energy">    -14.80501223 </i>
    <i name="e_wo_entrp">    -14.80501223 </i>
    <i name="e_0_energy">    -14.80501223 </i>
   </energy>
  </scstep>
  <scstep>
   <time name="dav">    2.04    2.73</time>
[...]
    <varray name="rec_basis" >
     <v>       0.10000000       0.00000000       0.00000000 </v>
     <v>       0.00000000       0.10000000       0.00000000 </v>
     <v>       0.00000000       0.00000000       0.10000000 </v>
    </varray>
   </crystal>
   <varray name="positions" >
    <v>       0.44281976       0.50000000       0.50000000 </v>
    <v>       0.55718024       0.49850000       0.50000000 </v>
   </varray>
  </structure>
  <varray name="forces" >
   <v>       0.01859774      -0.00052930       0.00000000 </v>
   <v>      -0.01859774       0.00052930       0.00000000 </v>
  </varray>
  <varray name="stress" >
   <v>      -4.08512637       0.00322720       0.00000000 </v>
   <v>       0.00322894      -3.76078406       0.00000000 </v>
   <v>       0.00000000       0.00000000      -3.76067234 </v>
  </varray>
  <energy>
   <i name="e_fr_energy">    -14.80501224 </i>
   <i name="e_wo_entrp">    -14.80501224 </i>
   <i name="e_0_energy">      0.00000000 </i>
  </energy>
  <dynmat>
   <varray name="hessian" >
    <v>      -9.37046422       0.00000000       0.00000000       8.11685318       0.00000000       0.00000000 </v>
    <v>       0.00000000      -0.00097563       0.00000000       0.00000000       0.00169599       0.00000000 </v>
    <v>       0.00000000       0.00000000      -0.00097563       0.00000000       0.00000000       0.00169599 </v>
    <v>       8.11685318       0.00000000       0.00000000      -7.03095389       0.00000000       0.00000000 </v>
    <v>       0.00000000       0.00169599       0.00000000       0.00000000      -0.00220649       0.00000000 </v>
    <v>       0.00000000       0.00000000       0.00169599       0.00000000       0.00000000      -0.00220649 </v>
   </varray>
   <v name="eigenvalues"> -1.64014183E+01 -3.39525733E-03 -3.39525733E-03  2.26034075E-07  2.13136218E-04  2.13136218E-04</v>
   <varray name="eigenvectors" >
    <v>  -7.55857371E-01 -3.53423968E-17  2.35098870E-37  6.54736309E-01 -1.77242025E-17  7.34683969E-40</v>
    <v>  -7.50738465E-14 -5.73973551E-01 -1.73488413E-04 -8.66650476E-14  8.18873783E-01  2.47511603E-04</v>
    <v>   2.26917120E-17  1.73488413E-04 -5.73973551E-01  2.61952517E-17 -2.47511603E-04  8.18873783E-01</v>
    <v>   6.54736309E-01 -1.78264207E-13 -9.95936674E-30  7.55857371E-01  1.50467775E-14 -7.65435339E-30</v>
    <v>   8.99186694E-14  8.18873796E-01 -1.96740018E-04  1.03848208E-13  5.73973560E-01 -1.37901065E-04</v>
    <v>   2.16035740E-17  1.96740018E-04  8.18873796E-01  2.49502406E-17  1.37901065E-04  5.73973560E-01</v>
   </varray>
  </dynmat>
  <kpoints>
   <generation param="Monkhorst-Pack">
    <v type="int" name="divisions">       1        1        1 </v>
    <v name="usershift">      0.00000000       0.00000000       0.00000000 </v>
    <v name="genvec1">      1.00000000       0.00000000       0.00000000 </v>
    <v name="genvec2">      0.00000000       1.00000000       0.00000000 </v>
    <v name="genvec3">      0.00000000       0.00000000       1.00000000 </v>
    <v name="shift">      0.00000000       0.00000000       0.00000000 </v>
   </generation>
   <varray name="kpointlist" >
    <v>       0.00000000       0.00000000       0.00000000 </v>
   </varray>
   <varray name="weights" >
    <v>       1.00000000 </v>
   </varray>
  </kpoints>
  <time name="totalsc">  121.66  159.26</time>
  <eigenvalues>
   <array>
    <dimension dim="1">band</dimension>
    <dimension dim="2">kpoint</dimension>
    <dimension dim="3">spin</dimension>
    <field>eigene</field>
    <field>occ</field>
    <set>
     <set comment="spin 1">
      <set comment="kpoint 1">
       <r>  -29.1841    1.0000 </r>
       <r>  -13.9535    1.0000 </r>
       <r>  -11.6314    1.0000 </r>
       <r>  -11.6314    1.0000 </r>
       <r>   -8.9262    1.0000 </r>
       <r>   -2.0060    0.0000 </r>
       <r>   -2.0060    0.0000 </r>
       <r>   -0.2273    0.0000 </r>
       <r>    1.0447    0.0000 </r>
      </set>
     </set>
    </set>
   </array>
  </eigenvalues>
  <separator name="orbital magnetization" >
   <v name="MAGDIPOLOUT">      0.00000000      0.00000000      0.00000000</v>
  </separator>
  <dos>
   <i name="efermi">     -8.62475542 </i>
   <total>
    <array>
     <dimension dim="1">gridpoints</dimension>
     <dimension dim="2">spin</dimension>
     <field>energy</field>
     <field>total</field>
     <field>integrated</field>
     <set>
      <set comment="spin 1">
       <r>   -30.6956     0.0000     0.0000 </r>
       <r>   -30.5847     0.0000     0.0000 </r>
       <r>   -30.4739     0.0000     0.0000 </r>
       <r>   -30.3631     0.0000     0.0000 </r>
       <r>   -30.2522     0.0000     0.0000 </r>
       <r>   -30.1414     0.0000     0.0000 </r>
       <r>   -30.0305     0.0000     0.0000 </r>
       <r>   -29.9197     0.0000     0.0000 </r>
       <r>   -29.8089     0.0000     0.0000 </r>
       <r>   -29.6980     0.0000     0.0000 </r>
       <r>   -29.5872     0.0000     0.0000 </r>
       <r>   -29.4764     0.0000     0.0000 </r>
       <r>   -29.3655     0.0000     0.0000 </r>
       <r>   -29.2547     0.4154     0.0460 </r>
       <r>   -29.1438    15.3346     1.7457 </r>
       <r>   -29.0330     2.2940     2.0000 </r>
       <r>   -28.9222     0.0002     2.0000 </r>
       <r>   -28.8113     0.0000     2.0000 </r>
       <r>   -28.7005     0.0000     2.0000 </r>
       <r>   -28.5896     0.0000     2.0000 </r>
       <r>   -28.4788     0.0000     2.0000 </r>
       <r>   -28.3680     0.0000     2.0000 </r>
       <r>   -28.2571     0.0000     2.0000 </r>
       <r>   -28.1463     0.0000     2.0000 </r>
       <r>   -28.0354     0.0000     2.0000 </r>
       <r>   -27.9246     0.0000     2.0000 </r>
       <r>   -27.8138     0.0000     2.0000 </r>
       <r>   -27.7029     0.0000     2.0000 </r>
       <r>   -27.5921     0.0000     2.0000 </r>
       <r>   -27.4812     0.0000     2.0000 </r>
       <r>   -27.3704     0.0000     2.0000 </r>
       <r>   -27.2596     0.0000     2.0000 </r>
       <r>   -27.1487     0.0000     2.0000 </r>
       <r>   -27.0379     0.0000     2.0000 </r>
       <r>   -26.9271     0.0000     2.0000 </r>
       <r>   -26.8162     0.0000     2.0000 </r>
       <r>   -26.7054     0.0000     2.0000 </r>
       <r>   -26.5945     0.0000     2.0000 </r>
       <r>   -26.4837     0.0000     2.0000 </r>
       <r>   -26.3729     0.0000     2.0000 </r>
       <r>   -26.2620     0.0000     2.0000 </r>
       <r>   -26.1512     0.0000     2.0000 </r>
       <r>   -26.0403     0.0000     2.0000 </r>
       <r>   -25.9295     0.0000     2.0000 </r>
       <r>   -25.8187     0.0000     2.0000 </r>
       <r>   -25.7078     0.0000     2.0000 </r>
       <r>   -25.5970     0.0000     2.0000 </r>
       <r>   -25.4861     0.0000     2.0000 </r>
       <r>   -25.3753     0.0000     2.0000 </r>
       <r>   -25.2645     0.0000     2.0000 </r>
       <r>   -25.1536     0.0000     2.0000 </r>
       <r>   -25.0428     0.0000     2.0000 </r>
       <r>   -24.9320     0.0000     2.0000 </r>
       <r>   -24.8211     0.0000     2.0000 </r>
       <r>   -24.7103     0.0000     2.0000 </r>
       <r>   -24.5994     0.0000     2.0000 </r>
       <r>   -24.4886     0.0000     2.0000 </r>
       <r>   -24.3778     0.0000     2.0000 </r>
       <r>   -24.2669     0.0000     2.0000 </r>
       <r>   -24.1561     0.0000     2.0000 </r>
       <r>   -24.0452     0.0000     2.0000 </r>
       <r>   -23.9344     0.0000     2.0000 </r>
       <r>   -23.8236     0.0000     2.0000 </r>
       <r>   -23.7127     0.0000     2.0000 </r>
       <r>   -23.6019     0.0000     2.0000 </r>
       <r>   -23.4910     0.0000     2.0000 </r>
       <r>   -23.3802     0.0000     2.0000 </r>
       <r>   -23.2694     0.0000     2.0000 </r>
       <r>   -23.1585     0.0000     2.0000 </r>
       <r>   -23.0477     0.0000     2.0000 </r>
       <r>   -22.9368     0.0000     2.0000 </r>
       <r>   -22.8260     0.0000     2.0000 </r>
       <r>   -22.7152     0.0000     2.0000 </r>
       <r>   -22.6043     0.0000     2.0000 </r>
       <r>   -22.4935     0.0000     2.0000 </r>
       <r>   -22.3827     0.0000     2.0000 </r>
       <r>   -22.2718     0.0000     2.0000 </r>
       <r>   -22.1610     0.0000     2.0000 </r>
       <r>   -22.0501     0.0000     2.0000 </r>
       <r>   -21.9393     0.0000     2.0000 </r>
       <r>   -21.8285     0.0000     2.0000 </r>
       <r>   -21.7176     0.0000     2.0000 </r>
       <r>   -21.6068     0.0000     2.0000 </r>
       <r>   -21.4959     0.0000     2.0000 </r>
       <r>   -21.3851     0.0000     2.0000 </r>
       <r>   -21.2743     0.0000     2.0000 </r>
       <r>   -21.1634     0.0000     2.0000 </r>
       <r>   -21.0526     0.0000     2.0000 </r>
       <r>   -20.9417     0.0000     2.0000 </r>
       <r>   -20.8309     0.0000     2.0000 </r>
       <r>   -20.7201     0.0000     2.0000 </r>
       <r>   -20.6092     0.0000     2.0000 </r>
       <r>   -20.4984     0.0000     2.0000 </r>
       <r>   -20.3875     0.0000     2.0000 </r>
       <r>   -20.2767     0.0000     2.0000 </r>
       <r>   -20.1659     0.0000     2.0000 </r>
       <r>   -20.0550     0.0000     2.0000 </r>
       <r>   -19.9442     0.0000     2.0000 </r>
       <r>   -19.8334     0.0000     2.0000 </r>
       <r>   -19.7225     0.0000     2.0000 </r>
       <r>   -19.6117     0.0000     2.0000 </r>
       <r>   -19.5008     0.0000     2.0000 </r>
       <r>   -19.3900     0.0000     2.0000 </r>
       <r>   -19.2792     0.0000     2.0000 </r>
       <r>   -19.1683     0.0000     2.0000 </r>
       <r>   -19.0575     0.0000     2.0000 </r>
       <r>   -18.9466     0.0000     2.0000 </r>
       <r>   -18.8358     0.0000     2.0000 </r>
       <r>   -18.7250     0.0000     2.0000 </r>
       <r>   -18.6141     0.0000     2.0000 </r>
       <r>   -18.5033     0.0000     2.0000 </r>
       <r>   -18.3924     0.0000     2.0000 </r>
       <r>   -18.2816     0.0000     2.0000 </r>
       <r>   -18.1708     0.0000     2.0000 </r>
       <r>   -18.0599     0.0000     2.0000 </r>
       <r>   -17.9491     0.0000     2.0000 </r>
       <r>   -17.8383     0.0000     2.0000 </r>
       <r>   -17.7274     0.0000     2.0000 </r>
       <r>   -17.6166     0.0000     2.0000 </r>
       <r>   -17.5057     0.0000     2.0000 </r>
       <r>   -17.3949     0.0000     2.0000 </r>
       <r>   -17.2841     0.0000     2.0000 </r>
       <r>   -17.1732     0.0000     2.0000 </r>
       <r>   -17.0624     0.0000     2.0000 </r>
       <r>   -16.9515     0.0000     2.0000 </r>
       <r>   -16.8407     0.0000     2.0000 </r>
       <r>   -16.7299     0.0000     2.0000 </r>
       <r>   -16.6190     0.0000     2.0000 </r>
       <r>   -16.5082     0.0000     2.0000 </r>
       <r>   -16.3973     0.0000     2.0000 </r>
       <r>   -16.2865     0.0000     2.0000 </r>
       <r>   -16.1757     0.0000     2.0000 </r>
       <r>   -16.0648     0.0000     2.0000 </r>
       <r>   -15.9540     0.0000     2.0000 </r>
       <r>   -15.8431     0.0000     2.0000 </r>
       <r>   -15.7323     0.0000     2.0000 </r>
       <r>   -15.6215     0.0000     2.0000 </r>
       <r>   -15.5106     0.0000     2.0000 </r>
       <r>   -15.3998     0.0000     2.0000 </r>
       <r>   -15.2890     0.0000     2.0000 </r>
       <r>   -15.1781     0.0000     2.0000 </r>
       <r>   -15.0673     0.0000     2.0000 </r>
       <r>   -14.9564     0.0000     2.0000 </r>
       <r>   -14.8456     0.0000     2.0000 </r>
       <r>   -14.7348     0.0000     2.0000 </r>
       <r>   -14.6239     0.0000     2.0000 </r>
       <r>   -14.5131     0.0000     2.0000 </r>
       <r>   -14.4022     0.0000     2.0000 </r>
       <r>   -14.2914     0.0000     2.0000 </r>
       <r>   -14.1806     0.0000     2.0000 </r>
       <r>   -14.0697     0.0091     2.0010 </r>
       <r>   -13.9589     7.9252     2.8794 </r>
       <r>   -13.8480    10.0841     3.9971 </r>
       <r>   -13.7372     0.0257     4.0000 </r>
       <r>   -13.6264     0.0000     4.0000 </r>
       <r>   -13.5155     0.0000     4.0000 </r>
       <r>   -13.4047     0.0000     4.0000 </r>
       <r>   -13.2939     0.0000     4.0000 </r>
       <r>   -13.1830     0.0000     4.0000 </r>
       <r>   -13.0722     0.0000     4.0000 </r>
       <r>   -12.9613     0.0000     4.0000 </r>
       <r>   -12.8505     0.0000     4.0000 </r>
       <r>   -12.7397     0.0000     4.0000 </r>
       <r>   -12.6288     0.0000     4.0000 </r>
       <r>   -12.5180     0.0000     4.0000 </r>
       <r>   -12.4071     0.0000     4.0000 </r>
       <r>   -12.2963     0.0000     4.0000 </r>
       <r>   -12.1855     0.0000     4.0000 </r>
       <r>   -12.0746     0.0000     4.0000 </r>
       <r>   -11.9638     0.0000     4.0000 </r>
       <r>   -11.8529     0.0000     4.0000 </r>
       <r>   -11.7421     0.0315     4.0035 </r>
       <r>   -11.6313    18.0767     6.0071 </r>
       <r>   -11.5204    17.9496     7.9966 </r>
       <r>   -11.4096     0.0305     8.0000 </r>
       <r>   -11.2987     0.0000     8.0000 </r>
       <r>   -11.1879     0.0000     8.0000 </r>
       <r>   -11.0771     0.0000     8.0000 </r>
       <r>   -10.9662     0.0000     8.0000 </r>
       <r>   -10.8554     0.0000     8.0000 </r>
       <r>   -10.7446     0.0000     8.0000 </r>
       <r>   -10.6337     0.0000     8.0000 </r>
       <r>   -10.5229     0.0000     8.0000 </r>
       <r>   -10.4120     0.0000     8.0000 </r>
       <r>   -10.3012     0.0000     8.0000 </r>
       <r>   -10.1904     0.0000     8.0000 </r>
       <r>   -10.0795     0.0000     8.0000 </r>
       <r>    -9.9687     0.0000     8.0000 </r>
       <r>    -9.8578     0.0000     8.0000 </r>
       <r>    -9.7470     0.0000     8.0000 </r>
       <r>    -9.6362     0.0000     8.0000 </r>
       <r>    -9.5253     0.0000     8.0000 </r>
       <r>    -9.4145     0.0000     8.0000 </r>
       <r>    -9.3036     0.0000     8.0000 </r>
       <r>    -9.1928     0.0000     8.0000 </r>
       <r>    -9.0820     0.0001     8.0000 </r>
       <r>    -8.9711     1.8404     8.2040 </r>
       <r>    -8.8603    15.6424     9.9378 </r>
       <r>    -8.7494     0.5613    10.0000 </r>
       <r>    -8.6386     0.0000    10.0000 </r>
       <r>    -8.5278     0.0000    10.0000 </r>
       <r>    -8.4169     0.0000    10.0000 </r>
       <r>    -8.3061     0.0000    10.0000 </r>
       <r>    -8.1953     0.0000    10.0000 </r>
       <r>    -8.0844     0.0000    10.0000 </r>
       <r>    -7.9736     0.0000    10.0000 </r>
       <r>    -7.8627     0.0000    10.0000 </r>
       <r>    -7.7519     0.0000    10.0000 </r>
       <r>    -7.6411     0.0000    10.0000 </r>
       <r>    -7.5302     0.0000    10.0000 </r>
       <r>    -7.4194     0.0000    10.0000 </r>
       <r>    -7.3085     0.0000    10.0000 </r>
       <r>    -7.1977     0.0000    10.0000 </r>
       <r>    -7.0869     0.0000    10.0000 </r>
       <r>    -6.9760     0.0000    10.0000 </r>
       <r>    -6.8652     0.0000    10.0000 </r>
       <r>    -6.7543     0.0000    10.0000 </r>
       <r>    -6.6435     0.0000    10.0000 </r>
       <r>    -6.5327     0.0000    10.0000 </r>
       <r>    -6.4218     0.0000    10.0000 </r>
       <r>    -6.3110     0.0000    10.0000 </r>
       <r>    -6.2002     0.0000    10.0000 </r>
       <r>    -6.0893     0.0000    10.0000 </r>
       <r>    -5.9785     0.0000    10.0000 </r>
       <r>    -5.8676     0.0000    10.0000 </r>
       <r>    -5.7568     0.0000    10.0000 </r>
       <r>    -5.6460     0.0000    10.0000 </r>
       <r>    -5.5351     0.0000    10.0000 </r>
       <r>    -5.4243     0.0000    10.0000 </r>
       <r>    -5.3134     0.0000    10.0000 </r>
       <r>    -5.2026     0.0000    10.0000 </r>
       <r>    -5.0918     0.0000    10.0000 </r>
       <r>    -4.9809     0.0000    10.0000 </r>
       <r>    -4.8701     0.0000    10.0000 </r>
       <r>    -4.7592     0.0000    10.0000 </r>
       <r>    -4.6484     0.0000    10.0000 </r>
       <r>    -4.5376     0.0000    10.0000 </r>
       <r>    -4.4267     0.0000    10.0000 </r>
       <r>    -4.3159     0.0000    10.0000 </r>
       <r>    -4.2050     0.0000    10.0000 </r>
       <r>    -4.0942     0.0000    10.0000 </r>
       <r>    -3.9834     0.0000    10.0000 </r>
       <r>    -3.8725     0.0000    10.0000 </r>
       <r>    -3.7617     0.0000    10.0000 </r>
       <r>    -3.6509     0.0000    10.0000 </r>
       <r>    -3.5400     0.0000    10.0000 </r>
       <r>    -3.4292     0.0000    10.0000 </r>
       <r>    -3.3183     0.0000    10.0000 </r>
       <r>    -3.2075     0.0000    10.0000 </r>
       <r>    -3.0967     0.0000    10.0000 </r>
       <r>    -2.9858     0.0000    10.0000 </r>
       <r>    -2.8750     0.0000    10.0000 </r>
       <r>    -2.7641     0.0000    10.0000 </r>
       <r>    -2.6533     0.0000    10.0000 </r>
       <r>    -2.5425     0.0000    10.0000 </r>
       <r>    -2.4316     0.0000    10.0000 </r>
       <r>    -2.3208     0.0000    10.0000 </r>
       <r>    -2.2099     0.0000    10.0000 </r>
       <r>    -2.0991     0.1526    10.0169 </r>
       <r>    -1.9883    24.8245    12.7684 </r>
       <r>    -1.8774    11.1063    13.9994 </r>
       <r>    -1.7666     0.0050    14.0000 </r>
       <r>    -1.6558     0.0000    14.0000 </r>
       <r>    -1.5449     0.0000    14.0000 </r>
       <r>    -1.4341     0.0000    14.0000 </r>
       <r>    -1.3232     0.0000    14.0000 </r>
       <r>    -1.2124     0.0000    14.0000 </r>
       <r>    -1.1016     0.0000    14.0000 </r>
       <r>    -0.9907     0.0000    14.0000 </r>
       <r>    -0.8799     0.0000    14.0000 </r>
       <r>    -0.7690     0.0000    14.0000 </r>
       <r>    -0.6582     0.0000    14.0000 </r>
       <r>    -0.5474     0.0000    14.0000 </r>
       <r>    -0.4365     0.0000    14.0000 </r>
       <r>    -0.3257     0.0485    14.0054 </r>
       <r>    -0.2148    11.4527    15.2748 </r>
       <r>    -0.1040     6.5386    15.9995 </r>
       <r>     0.0068     0.0044    16.0000 </r>
       <r>     0.1177     0.0000    16.0000 </r>
       <r>     0.2285     0.0000    16.0000 </r>
       <r>     0.3394     0.0000    16.0000 </r>
       <r>     0.4502     0.0000    16.0000 </r>
       <r>     0.5610     0.0000    16.0000 </r>
       <r>     0.6719     0.0000    16.0000 </r>
       <r>     0.7827     0.0000    16.0000 </r>
       <r>     0.8935     0.0002    16.0000 </r>
       <r>     1.0044     2.2940    16.2543 </r>
       <r>     1.1152    15.3346    17.9540 </r>
       <r>     1.2261     0.4154    18.0000 </r>
       <r>     1.3369     0.0000    18.0000 </r>
       <r>     1.4477     0.0000    18.0000 </r>
       <r>     1.5586     0.0000    18.0000 </r>
       <r>     1.6694     0.0000    18.0000 </r>
       <r>     1.7803     0.0000    18.0000 </r>
       <r>     1.8911     0.0000    18.0000 </r>
       <r>     2.0019     0.0000    18.0000 </r>
       <r>     2.1128     0.0000    18.0000 </r>
       <r>     2.2236     0.0000    18.0000 </r>
       <r>     2.3345     0.0000    18.0000 </r>
       <r>     2.4453     0.0000    18.0000 </r>
       <r>     2.5561     0.0000    18.0000 </r>
      </set>
     </set>
    </array>
   </total>
  </dos>
 </calculation>
 <structure name="finalpos" >
  <crystal>
   <varray name="basis" >
    <v>      10.00000000       0.00000000       0.00000000 </v>
    <v>       0.00000000      10.00000000       0.00000000 </v>
    <v>       0.00000000       0.00000000      10.00000000 </v>
   </varray>
   <i name="volume">   1000.00000000 </i>
   <varray name="rec_basis" >
    <v>       0.10000000       0.00000000       0.00000000 </v>
    <v>       0.00000000       0.10000000       0.00000000 </v>
    <v>       0.00000000       0.00000000       0.10000000 </v>
   </varray>
  </crystal>
  <varray name="positions" >
   <v>       0.44281976       0.50000000       0.50000000 </v>
   <v>       0.55718024       0.49850000       0.50000000 </v>
  </varray>
 </structure>
</modeling>
