unknown system                          
           1
    10.000000    0.000000    0.000000
     0.000000   10.000000    0.000000
     0.000000    0.000000   10.000000
   C    O 
   1   1
Direct configuration=     1
   0.44281976  0.50000000  0.50000000
   0.55718024  0.50000000  0.50000000
Direct configuration=     2
   0.44431976  0.50000000  0.50000000
   0.55718024  0.50000000  0.50000000
Direct configuration=     3
   0.44131976  0.50000000  0.50000000
   0.55718024  0.50000000  0.50000000
Direct configuration=     4
   0.44281976  0.50150000  0.50000000
   0.55718024  0.50000000  0.50000000
Direct configuration=     5
   0.44281976  0.49850000  0.50000000
   0.55718024  0.50000000  0.50000000
Direct configuration=     6
   0.44281976  0.50000000  0.50000000
   0.55868024  0.50000000  0.50000000
Direct configuration=     7
   0.44281976  0.50000000  0.50000000
   0.55568024  0.50000000  0.50000000
Direct configuration=     8
   0.44281976  0.50000000  0.50000000
   0.55718024  0.50150000  0.50000000
Direct configuration=     9
   0.44281976  0.50000000  0.50000000
   0.55718024  0.49850000  0.50000000
