   1   1   1   0
  0.1813235E+02  0.2866544E-09  0.2866544E-09  0.2866544E-09  0.5000000E-15
  1.000000000000000E-004
  CAR 
 unknown system                          
     16.51825326     -2.84685100  301      5.67578685      1.00000000
     -2.847  0.0000E+00  0.0000E+00  0.0000E+00  0.0000E+00
     -2.782  0.0000E+00  0.0000E+00  0.0000E+00  0.0000E+00
     -2.718  0.0000E+00  0.0000E+00  0.0000E+00  0.0000E+00
     -2.653  0.0000E+00  0.0000E+00  0.0000E+00  0.0000E+00
     -2.589  0.0000E+00  0.0000E+00  0.0000E+00  0.0000E+00
     -2.524  0.0000E+00  0.0000E+00  0.0000E+00  0.0000E+00
     -2.460  0.0000E+00  0.0000E+00  0.0000E+00  0.0000E+00
     -2.395 -0.4726E-33 -0.2970E-32 -0.3051E-34 -0.1917E-33
     -2.330 -0.4058E-24 -0.1929E-23 -0.2619E-25 -0.1245E-24
     -2.266 -0.1205E-16 -0.4327E-16 -0.7778E-18 -0.2793E-17
     -2.201 -0.1167E-10 -0.3156E-10 -0.7535E-12 -0.2037E-11
     -2.137 -0.3762E-06 -0.7620E-06 -0.2429E-07 -0.4919E-07
     -2.072 -0.3425E-03 -0.5072E-03 -0.2213E-04 -0.3279E-04
     -2.008 -0.1152E-02  0.9395E-03 -0.9650E-04  0.2786E-04
     -1.943  0.7449E-01  0.7884E-01  0.4712E-02  0.5117E-02
     -1.879  0.2187E-01  0.1516E-01  0.6124E-02  0.6096E-02
     -1.814 -0.1906E-02 -0.1480E-02  0.6001E-02  0.6000E-02
     -1.749 -0.1183E-04 -0.6509E-05  0.6000E-02  0.6000E-02
     -1.685 -0.3562E-04 -0.6100E-04  0.5998E-02  0.5996E-02
     -1.620 -0.3395E-02 -0.3913E-02  0.5779E-02  0.5743E-02
     -1.556  0.4407E-01  0.5543E-01  0.8623E-02  0.9321E-02
     -1.491  0.8722E-01  0.7685E-01  0.1425E-01  0.1428E-01
     -1.427 -0.3684E-02 -0.4215E-02  0.1402E-01  0.1401E-01
     -1.362 -0.2474E-03 -0.1559E-03  0.1400E-01  0.1400E-01
     -1.298 -0.2557E-04 -0.4634E-04  0.1400E-01  0.1400E-01
     -1.233 -0.5863E-02 -0.7557E-02  0.1362E-01  0.1351E-01
     -1.169  0.5976E-01  0.8641E-01  0.1748E-01  0.1909E-01
     -1.104  0.3159E+00  0.2987E+00  0.3787E-01  0.3837E-01
     -1.039  0.4132E-02 -0.4360E-02  0.3813E-01  0.3809E-01
     -0.975 -0.2057E-02 -0.1391E-02  0.3800E-01  0.3800E-01
     -0.910 -0.3126E-05 -0.1546E-05  0.3800E-01  0.3800E-01
     -0.846 -0.1308E-09 -0.4848E-10  0.3800E-01  0.3800E-01
     -0.781 -0.1651E-15 -0.8256E-16  0.3800E-01  0.3800E-01
     -0.717 -0.5769E-15 -0.2020E-14  0.3800E-01  0.3800E-01
     -0.652 -0.3291E-09 -0.8593E-09  0.3800E-01  0.3800E-01
     -0.588 -0.5972E-05 -0.1162E-04  0.3800E-01  0.3800E-01
     -0.523 -0.2908E-02 -0.4073E-02  0.3781E-01  0.3774E-01
     -0.458  0.1456E-01  0.3099E-01  0.3875E-01  0.3974E-01
     -0.394  0.3371E+00  0.3444E+00  0.6051E-01  0.6197E-01
     -0.329  0.1187E+00  0.9724E-01  0.6818E-01  0.6825E-01
     -0.265 -0.2104E-02 -0.3383E-02  0.6804E-01  0.6803E-01
     -0.200 -0.7534E-03 -0.6474E-03  0.6799E-01  0.6799E-01
     -0.136 -0.1076E-01 -0.1215E-01  0.6730E-01  0.6720E-01
     -0.071  0.1436E+00  0.1780E+00  0.7657E-01  0.7869E-01
     -0.007  0.2515E+00  0.2194E+00  0.9280E-01  0.9285E-01
      0.058 -0.1254E-01 -0.1392E-01  0.9199E-01  0.9195E-01
      0.122 -0.1178E-01 -0.7659E-02  0.9123E-01  0.9146E-01
      0.187  0.2606E+00  0.2879E+00  0.1081E+00  0.1100E+00
      0.252  0.1335E+00  0.1008E+00  0.1167E+00  0.1165E+00
      0.316 -0.1025E-01 -0.8431E-02  0.1160E+00  0.1160E+00
      0.381 -0.1091E-03 -0.6142E-04  0.1160E+00  0.1160E+00
      0.445 -0.2428E-07 -0.1011E-07  0.1160E+00  0.1160E+00
      0.510 -0.1659E-12 -0.5168E-13  0.1160E+00  0.1160E+00
      0.574 -0.5553E-13 -0.1830E-12  0.1160E+00  0.1160E+00
      0.639 -0.1068E-07 -0.2613E-07  0.1160E+00  0.1160E+00
      0.703 -0.6388E-04 -0.1148E-03  0.1160E+00  0.1160E+00
      0.768 -0.9066E-02 -0.1125E-01  0.1154E+00  0.1153E+00
      0.833  0.7863E-01  0.1116E+00  0.1205E+00  0.1225E+00
      0.897  0.6557E+00  0.6959E+00  0.1628E+00  0.1674E+00
      0.962  0.4168E+00  0.3442E+00  0.1897E+00  0.1896E+00
      1.026 -0.2582E-01 -0.2455E-01  0.1881E+00  0.1880E+00
      1.091 -0.1285E-02 -0.1320E-02  0.1880E+00  0.1879E+00
      1.155 -0.2578E-01 -0.2784E-01  0.1863E+00  0.1861E+00
      1.220  0.3669E+00  0.4602E+00  0.2100E+00  0.2159E+00
      1.284  0.7899E+00  0.7107E+00  0.2610E+00  0.2617E+00
      1.349 -0.1289E-01 -0.2658E-01  0.2601E+00  0.2600E+00
      1.413 -0.8017E-02  0.3075E-02  0.2596E+00  0.2602E+00
      1.478  0.2886E+00  0.3099E+00  0.2783E+00  0.2802E+00
      1.543  0.3329E+00  0.3393E+00  0.2997E+00  0.3021E+00
      1.607  0.2780E+00  0.2546E+00  0.3177E+00  0.3185E+00
      1.672  0.4018E-01  0.2586E-01  0.3203E+00  0.3202E+00
      1.736 -0.4385E-02 -0.3332E-02  0.3200E+00  0.3200E+00
      1.801 -0.6889E-02 -0.9784E-02  0.3196E+00  0.3194E+00
      1.865  0.2869E-01  0.6656E-01  0.3214E+00  0.3237E+00
      1.930  0.8258E+00  0.8799E+00  0.3747E+00  0.3805E+00
      1.994  0.8513E+00  0.8359E+00  0.4297E+00  0.4344E+00
      2.059  0.8221E+00  0.7945E+00  0.4827E+00  0.4857E+00
      2.124  0.3572E+00  0.3242E+00  0.5058E+00  0.5066E+00
      2.188  0.3198E+00  0.3272E+00  0.5264E+00  0.5278E+00
      2.253  0.1572E+00  0.1705E+00  0.5366E+00  0.5388E+00
      2.317  0.6407E+00  0.6661E+00  0.5779E+00  0.5818E+00
      2.382  0.6111E+00  0.5855E+00  0.6174E+00  0.6196E+00
      2.446  0.1360E+00  0.9906E-01  0.6262E+00  0.6260E+00
      2.511  0.1350E+00  0.1525E+00  0.6349E+00  0.6358E+00
      2.575  0.2449E+00  0.2307E+00  0.6507E+00  0.6507E+00
      2.640 -0.8981E-02 -0.4804E-02  0.6501E+00  0.6504E+00
      2.704  0.2744E+00  0.2762E+00  0.6678E+00  0.6682E+00
      2.769  0.5685E+00  0.6657E+00  0.7045E+00  0.7112E+00
      2.834  0.1573E+01  0.1578E+01  0.8061E+00  0.8130E+00
      2.898  0.7552E+00  0.6825E+00  0.8548E+00  0.8571E+00
      2.963  0.6140E+00  0.6051E+00  0.8945E+00  0.8962E+00
      3.027  0.1042E+00  0.7370E-01  0.9012E+00  0.9009E+00
      3.092  0.6871E-01  0.1248E+00  0.9056E+00  0.9090E+00
      3.156  0.1067E+01  0.1098E+01  0.9745E+00  0.9799E+00
      3.221  0.6570E+00  0.5881E+00  0.1017E+01  0.1018E+01
      3.285  0.2766E+00  0.2636E+00  0.1035E+01  0.1035E+01
      3.350 -0.1063E-01 -0.1216E-01  0.1034E+01  0.1034E+01
      3.415 -0.3524E-02 -0.4265E-02  0.1034E+01  0.1034E+01
      3.479  0.2738E-01  0.4363E-01  0.1036E+01  0.1037E+01
      3.544  0.9879E-01  0.8514E-01  0.1042E+01  0.1042E+01
      3.608 -0.2791E-02  0.2797E-02  0.1042E+01  0.1042E+01
      3.673  0.3040E+00  0.3198E+00  0.1061E+01  0.1063E+01
      3.737  0.5472E+00  0.5900E+00  0.1097E+01  0.1101E+01
      3.802  0.6162E+00  0.5594E+00  0.1137E+01  0.1137E+01
      3.866  0.2663E+00  0.2705E+00  0.1154E+01  0.1155E+01
      3.931  0.1392E+00  0.1251E+00  0.1163E+01  0.1163E+01
      3.995 -0.1551E-01 -0.1605E-01  0.1162E+01  0.1162E+01
      4.060  0.4841E-01  0.6969E-01  0.1165E+01  0.1166E+01
      4.125  0.1746E+00  0.2162E+00  0.1176E+01  0.1180E+01
      4.189  0.1285E+01  0.1387E+01  0.1259E+01  0.1270E+01
      4.254  0.7508E+00  0.5885E+00  0.1307E+01  0.1308E+01
      4.318  0.6041E+00  0.7447E+00  0.1346E+01  0.1356E+01
      4.383  0.1700E+01  0.1832E+01  0.1456E+01  0.1474E+01
      4.447  0.1701E+01  0.1460E+01  0.1566E+01  0.1568E+01
      4.512  0.3658E+00  0.3948E+00  0.1590E+01  0.1594E+01
      4.576  0.7585E+00  0.7590E+00  0.1639E+01  0.1643E+01
      4.641  0.8929E+00  0.9276E+00  0.1696E+01  0.1703E+01
      4.706  0.4476E+00  0.3718E+00  0.1725E+01  0.1727E+01
      4.770  0.3558E+00  0.4228E+00  0.1748E+01  0.1754E+01
      4.835  0.7089E+00  0.6768E+00  0.1794E+01  0.1798E+01
      4.899  0.8371E+00  0.8907E+00  0.1848E+01  0.1855E+01
      4.964  0.1412E+01  0.1484E+01  0.1939E+01  0.1951E+01
      5.028  0.1223E+01  0.1080E+01  0.2018E+01  0.2021E+01
      5.093  0.7388E-01  0.2753E-01  0.2023E+01  0.2022E+01
      5.157 -0.5326E-01 -0.4142E-01  0.2019E+01  0.2020E+01
      5.222  0.6677E+00  0.8018E+00  0.2062E+01  0.2071E+01
      5.286  0.1630E+01  0.1633E+01  0.2168E+01  0.2177E+01
      5.351  0.1180E+01  0.1182E+01  0.2244E+01  0.2253E+01
      5.416  0.8285E+00  0.7349E+00  0.2297E+01  0.2301E+01
      5.480  0.2636E+00  0.2618E+00  0.2314E+01  0.2318E+01
      5.545  0.5731E+00  0.5551E+00  0.2351E+01  0.2353E+01
      5.609  0.1104E+01  0.1261E+01  0.2423E+01  0.2435E+01
      5.674  0.1156E+01  0.1022E+01  0.2497E+01  0.2501E+01
      5.738  0.8553E+00  0.9221E+00  0.2552E+01  0.2560E+01
      5.803  0.5506E+00  0.4282E+00  0.2588E+01  0.2588E+01
      5.867 -0.5272E-01 -0.5995E-01  0.2584E+01  0.2584E+01
      5.932  0.3011E+00  0.4088E+00  0.2604E+01  0.2610E+01
      5.997  0.9217E+00  0.8897E+00  0.2663E+01  0.2668E+01
      6.061  0.3202E+00  0.2916E+00  0.2684E+01  0.2687E+01
      6.126  0.8737E+00  0.9292E+00  0.2740E+01  0.2747E+01
      6.190  0.6661E+00  0.6310E+00  0.2783E+01  0.2787E+01
      6.255  0.1778E+00  0.1133E+00  0.2795E+01  0.2795E+01
      6.319 -0.2163E-01 -0.1500E-01  0.2794E+01  0.2794E+01
      6.384  0.1473E+00  0.1879E+00  0.2803E+01  0.2806E+01
      6.448  0.2259E+00  0.1909E+00  0.2818E+01  0.2818E+01
      6.513 -0.2298E-02 -0.7197E-02  0.2817E+01  0.2818E+01
      6.577  0.2242E+00  0.2811E+00  0.2832E+01  0.2836E+01
      6.642  0.2507E+00  0.1920E+00  0.2848E+01  0.2848E+01
      6.707  0.2446E+00  0.2650E+00  0.2864E+01  0.2865E+01
      6.771  0.1225E+00  0.9352E-01  0.2872E+01  0.2871E+01
      6.836  0.1323E+00  0.2261E+00  0.2880E+01  0.2886E+01
      6.900  0.6017E+00  0.5336E+00  0.2919E+01  0.2920E+01
      6.965  0.1405E+00  0.1634E+00  0.2928E+01  0.2931E+01
      7.029  0.4837E+00  0.4939E+00  0.2959E+01  0.2963E+01
      7.094  0.1413E+00  0.8543E-01  0.2969E+01  0.2968E+01
      7.158  0.5094E-02  0.1216E-01  0.2969E+01  0.2969E+01
      7.223  0.2442E+00  0.2939E+00  0.2985E+01  0.2988E+01
      7.288  0.3283E+00  0.2758E+00  0.3006E+01  0.3006E+01
      7.352  0.1232E+00  0.1926E+00  0.3014E+01  0.3018E+01
      7.417  0.3429E+00  0.2749E+00  0.3036E+01  0.3036E+01
      7.481  0.1024E+00  0.1572E+00  0.3043E+01  0.3046E+01
      7.546  0.5763E+00  0.5528E+00  0.3080E+01  0.3082E+01
      7.610  0.2455E+00  0.2596E+00  0.3096E+01  0.3099E+01
      7.675  0.2046E+00  0.1560E+00  0.3109E+01  0.3109E+01
      7.739 -0.1282E-01 -0.1154E-01  0.3108E+01  0.3108E+01
      7.804 -0.3583E-03 -0.1684E-03  0.3108E+01  0.3108E+01
      7.869 -0.3181E-04 -0.5863E-04  0.3108E+01  0.3108E+01
      7.933 -0.7689E-02 -0.1028E-01  0.3108E+01  0.3107E+01
      7.998  0.5131E-01  0.8816E-01  0.3111E+01  0.3113E+01
      8.062  0.7173E+00  0.7377E+00  0.3157E+01  0.3161E+01
      8.127  0.4711E+00  0.4974E+00  0.3188E+01  0.3193E+01
      8.191  0.9536E+00  0.9170E+00  0.3249E+01  0.3252E+01
      8.256  0.5328E-01  0.4767E-02  0.3253E+01  0.3252E+01
      8.320 -0.3318E-01 -0.2403E-01  0.3250E+01  0.3251E+01
      8.385  0.4950E+00  0.5505E+00  0.3282E+01  0.3286E+01
      8.449  0.3071E+00  0.2715E+00  0.3302E+01  0.3304E+01
      8.514  0.2955E+00  0.3111E+00  0.3321E+01  0.3324E+01
      8.579  0.3151E+00  0.3241E+00  0.3342E+01  0.3345E+01
      8.643  0.6294E+00  0.6401E+00  0.3382E+01  0.3386E+01
      8.708  0.7865E+00  0.7936E+00  0.3433E+01  0.3437E+01
      8.772  0.3426E+00  0.2843E+00  0.3455E+01  0.3456E+01
      8.837  0.1809E+00  0.2379E+00  0.3467E+01  0.3471E+01
      8.901  0.8125E+00  0.8313E+00  0.3519E+01  0.3525E+01
      8.966  0.7257E+00  0.7030E+00  0.3566E+01  0.3570E+01
      9.030  0.3227E+00  0.2855E+00  0.3587E+01  0.3588E+01
      9.095  0.4959E+00  0.5750E+00  0.3619E+01  0.3626E+01
      9.160  0.1113E+01  0.1110E+01  0.3691E+01  0.3697E+01
      9.224  0.9523E+00  0.8790E+00  0.3752E+01  0.3754E+01
      9.289  0.7656E-01  0.4832E-01  0.3757E+01  0.3757E+01
      9.353  0.6536E+00  0.7645E+00  0.3799E+01  0.3806E+01
      9.418  0.7753E+00  0.7112E+00  0.3849E+01  0.3852E+01
      9.482  0.4822E+00  0.4742E+00  0.3881E+01  0.3883E+01
      9.547  0.6498E+00  0.6309E+00  0.3922E+01  0.3924E+01
      9.611  0.1136E-01 -0.5958E-02  0.3923E+01  0.3923E+01
      9.676  0.3341E+00  0.3761E+00  0.3945E+01  0.3948E+01
      9.740  0.6743E+00  0.6819E+00  0.3988E+01  0.3992E+01
      9.805  0.7891E+00  0.7770E+00  0.4039E+01  0.4042E+01
      9.870  0.3611E+00  0.3259E+00  0.4063E+01  0.4063E+01
      9.934 -0.3431E-01 -0.3390E-01  0.4060E+01  0.4061E+01
      9.999  0.4555E+00  0.5101E+00  0.4090E+01  0.4094E+01
     10.063  0.9700E+00  0.9814E+00  0.4152E+01  0.4157E+01
     10.128  0.8778E+00  0.8342E+00  0.4209E+01  0.4211E+01
     10.192  0.3076E+00  0.3060E+00  0.4229E+01  0.4230E+01
     10.257  0.4891E+00  0.4920E+00  0.4260E+01  0.4262E+01
     10.321  0.6551E+00  0.7157E+00  0.4303E+01  0.4308E+01
     10.386  0.5061E+00  0.4631E+00  0.4335E+01  0.4338E+01
     10.451  0.1835E+01  0.1912E+01  0.4454E+01  0.4462E+01
     10.515  0.8456E+00  0.8419E+00  0.4508E+01  0.4516E+01
     10.580  0.1875E+01  0.1892E+01  0.4629E+01  0.4638E+01
     10.644  0.1428E+01  0.1423E+01  0.4722E+01  0.4730E+01
     10.709  0.2173E+01  0.2229E+01  0.4862E+01  0.4874E+01
     10.773  0.1764E+01  0.1658E+01  0.4976E+01  0.4981E+01
     10.838  0.1131E+01  0.1175E+01  0.5049E+01  0.5057E+01
     10.902  0.8340E+00  0.7492E+00  0.5103E+01  0.5105E+01
     10.967  0.4671E+00  0.4647E+00  0.5133E+01  0.5135E+01
     11.031  0.1492E+00  0.1062E+00  0.5142E+01  0.5142E+01
     11.096  0.6591E-01  0.1186E+00  0.5147E+01  0.5150E+01
     11.161  0.2949E+00  0.2535E+00  0.5166E+01  0.5166E+01
     11.225  0.1056E+00  0.1279E+00  0.5173E+01  0.5174E+01
     11.290  0.2740E+00  0.2501E+00  0.5190E+01  0.5190E+01
     11.354  0.1039E+00  0.1221E+00  0.5197E+01  0.5198E+01
     11.419  0.1128E+00  0.1133E+00  0.5204E+01  0.5206E+01
     11.483  0.2089E+00  0.1950E+00  0.5218E+01  0.5218E+01
     11.548  0.6308E-02 -0.4085E-02  0.5218E+01  0.5218E+01
     11.612 -0.1330E-01 -0.6714E-02  0.5217E+01  0.5218E+01
     11.677  0.2489E+00  0.2858E+00  0.5233E+01  0.5236E+01
     11.742  0.2030E+00  0.1931E+00  0.5246E+01  0.5248E+01
     11.806  0.3034E+00  0.2802E+00  0.5266E+01  0.5267E+01
     11.871  0.2132E-02 -0.8023E-02  0.5266E+01  0.5266E+01
     11.935 -0.1457E-01 -0.1200E-01  0.5265E+01  0.5265E+01
     12.000  0.2318E+00  0.2638E+00  0.5280E+01  0.5282E+01
     12.064  0.1649E+00  0.1298E+00  0.5291E+01  0.5291E+01
     12.129 -0.1184E-01 -0.1040E-01  0.5290E+01  0.5290E+01
     12.193 -0.1300E-01 -0.1519E-01  0.5289E+01  0.5289E+01
     12.258  0.1708E+00  0.2343E+00  0.5300E+01  0.5304E+01
     12.322  0.3212E+00  0.2619E+00  0.5321E+01  0.5321E+01
     12.387 -0.1340E-01 -0.1558E-01  0.5320E+01  0.5320E+01
     12.452 -0.4029E-02 -0.5459E-02  0.5320E+01  0.5320E+01
     12.516  0.1868E-01  0.4653E-01  0.5321E+01  0.5323E+01
     12.581  0.3141E+00  0.3037E+00  0.5341E+01  0.5342E+01
     12.645  0.8627E-01  0.1555E+00  0.5347E+01  0.5352E+01
     12.710  0.1428E+01  0.1494E+01  0.5439E+01  0.5449E+01
     12.774  0.6512E+00  0.5547E+00  0.5481E+01  0.5485E+01
     12.839  0.5652E+00  0.5830E+00  0.5518E+01  0.5522E+01
     12.903  0.6814E+00  0.7295E+00  0.5562E+01  0.5569E+01
     12.968  0.8709E+00  0.7700E+00  0.5618E+01  0.5619E+01
     13.033  0.3398E-01  0.5824E-01  0.5620E+01  0.5623E+01
     13.097  0.6316E+00  0.6373E+00  0.5661E+01  0.5664E+01
     13.162  0.9193E-01  0.3878E-01  0.5667E+01  0.5666E+01
     13.226 -0.9858E-02 -0.6249E-02  0.5666E+01  0.5666E+01
     13.291 -0.3983E-04 -0.1571E-04  0.5666E+01  0.5666E+01
     13.355 -0.1451E-07 -0.3758E-07  0.5666E+01  0.5666E+01
     13.420 -0.3822E-04 -0.8528E-04  0.5666E+01  0.5666E+01
     13.484 -0.2815E-02 -0.3196E-02  0.5666E+01  0.5666E+01
     13.549  0.3780E-01  0.5041E-01  0.5668E+01  0.5669E+01
     13.613  0.5013E-01  0.4747E-01  0.5671E+01  0.5672E+01
     13.678  0.2663E+00  0.3065E+00  0.5689E+01  0.5692E+01
     13.743  0.1177E+00  0.6382E-01  0.5696E+01  0.5696E+01
     13.807  0.6183E-01  0.8831E-01  0.5700E+01  0.5702E+01
     13.872  0.1183E+00  0.9401E-01  0.5708E+01  0.5708E+01
     13.936  0.7995E-01  0.1193E+00  0.5713E+01  0.5715E+01
     14.001  0.2988E+00  0.2672E+00  0.5732E+01  0.5733E+01
     14.065 -0.4226E-02 -0.1048E-01  0.5732E+01  0.5732E+01
     14.130 -0.1402E-02 -0.8109E-03  0.5732E+01  0.5732E+01
     14.194 -0.2068E-05 -0.2377E-05  0.5732E+01  0.5732E+01
     14.259 -0.7533E-03 -0.1589E-02  0.5732E+01  0.5732E+01
     14.324 -0.1725E-01 -0.1074E-01  0.5731E+01  0.5731E+01
     14.388  0.3340E+00  0.4076E+00  0.5752E+01  0.5758E+01
     14.453  0.2437E+00  0.1559E+00  0.5768E+01  0.5768E+01
     14.517  0.1397E+00  0.2209E+00  0.5777E+01  0.5782E+01
     14.582  0.8594E+00  0.8348E+00  0.5833E+01  0.5836E+01
     14.646  0.1341E+00  0.9235E-01  0.5841E+01  0.5842E+01
     14.711  0.9571E-01  0.9644E-01  0.5847E+01  0.5848E+01
     14.775  0.9653E-02  0.2124E-02  0.5848E+01  0.5848E+01
     14.840 -0.1822E-02 -0.1687E-02  0.5848E+01  0.5848E+01
     14.904 -0.2379E-01 -0.2398E-01  0.5846E+01  0.5846E+01
     14.969  0.3605E+00  0.4335E+00  0.5870E+01  0.5874E+01
     15.034  0.4948E+00  0.4695E+00  0.5902E+01  0.5905E+01
     15.098  0.6271E+00  0.6067E+00  0.5942E+01  0.5944E+01
     15.163  0.3416E-01  0.4533E-02  0.5944E+01  0.5944E+01
     15.227 -0.1388E-01 -0.1413E-02  0.5943E+01  0.5944E+01
     15.292  0.2786E+00  0.3045E+00  0.5961E+01  0.5964E+01
     15.356  0.1818E+00  0.1805E+00  0.5973E+01  0.5975E+01
     15.421  0.2959E+00  0.2685E+00  0.5992E+01  0.5993E+01
     15.485 -0.3347E-02 -0.9631E-02  0.5992E+01  0.5992E+01
     15.550  0.4715E-02 -0.2883E-02  0.5992E+01  0.5992E+01
     15.615  0.1086E+00  0.2022E-01  0.5999E+01  0.5993E+01
     15.679  0.1147E-01  0.1051E+00  0.6000E+01  0.6000E+01
     15.744 -0.1394E-02  0.1253E-02  0.6000E+01  0.6000E+01
     15.808 -0.4105E-05 -0.6762E-03  0.6000E+01  0.6000E+01
     15.873 -0.3119E-09 -0.1016E-05  0.6000E+01  0.6000E+01
     15.937 -0.7430E-15 -0.4208E-10  0.6000E+01  0.6000E+01
     16.002  0.0000E+00 -0.5504E-16  0.6000E+01  0.6000E+01
     16.066  0.0000E+00  0.0000E+00  0.6000E+01  0.6000E+01
     16.131  0.0000E+00  0.0000E+00  0.6000E+01  0.6000E+01
     16.196  0.0000E+00  0.0000E+00  0.6000E+01  0.6000E+01
     16.260  0.0000E+00  0.0000E+00  0.6000E+01  0.6000E+01
     16.325  0.0000E+00  0.0000E+00  0.6000E+01  0.6000E+01
     16.389  0.0000E+00  0.0000E+00  0.6000E+01  0.6000E+01
     16.454  0.0000E+00  0.0000E+00  0.6000E+01  0.6000E+01
     16.518  0.0000E+00  0.0000E+00  0.6000E+01  0.6000E+01
     16.51825326     -2.84685100  301      5.67578685      1.00000000
     -2.847  0.0000E+00  0.0000E+00  0.0000E+00  0.0000E+00  0.0000E+00  0.0000E+00  0.0000E+00  0.0000E+00  0.0000E+00  0.0000E+00  0.0000E+00  0.0000E+00  0.0000E+00  0.0000E+00  0.0000E+00  0.0000E+00  0.0000E+00  0.0000E+00
     -2.782  0.0000E+00  0.0000E+00  0.0000E+00  0.0000E+00  0.0000E+00  0.0000E+00  0.0000E+00  0.0000E+00  0.0000E+00  0.0000E+00  0.0000E+00  0.0000E+00  0.0000E+00  0.0000E+00  0.0000E+00  0.0000E+00  0.0000E+00  0.0000E+00
     -2.718  0.0000E+00  0.0000E+00  0.0000E+00  0.0000E+00  0.0000E+00  0.0000E+00  0.0000E+00  0.0000E+00  0.0000E+00  0.0000E+00  0.0000E+00  0.0000E+00  0.0000E+00  0.0000E+00  0.0000E+00  0.0000E+00  0.0000E+00  0.0000E+00
     -2.653  0.0000E+00  0.0000E+00  0.0000E+00  0.0000E+00  0.0000E+00  0.0000E+00  0.0000E+00  0.0000E+00  0.0000E+00  0.0000E+00  0.0000E+00  0.0000E+00  0.0000E+00  0.0000E+00  0.0000E+00  0.0000E+00  0.0000E+00  0.0000E+00
     -2.589  0.0000E+00  0.0000E+00  0.0000E+00  0.0000E+00  0.0000E+00  0.0000E+00  0.0000E+00  0.0000E+00  0.0000E+00  0.0000E+00  0.0000E+00  0.0000E+00  0.0000E+00  0.0000E+00  0.0000E+00  0.0000E+00  0.0000E+00  0.0000E+00
     -2.524  0.0000E+00  0.0000E+00  0.0000E+00  0.0000E+00  0.0000E+00  0.0000E+00  0.0000E+00  0.0000E+00  0.0000E+00  0.0000E+00  0.0000E+00  0.0000E+00  0.0000E+00  0.0000E+00  0.0000E+00  0.0000E+00  0.0000E+00  0.0000E+00
     -2.460  0.0000E+00  0.0000E+00  0.0000E+00  0.0000E+00  0.0000E+00  0.0000E+00  0.0000E+00  0.0000E+00  0.0000E+00  0.0000E+00  0.0000E+00  0.0000E+00  0.0000E+00  0.0000E+00  0.0000E+00  0.0000E+00  0.0000E+00  0.0000E+00
     -2.395 -0.3975E-33 -0.2500E-32 -0.1324E-35 -0.8321E-35 -0.3972E-35 -0.2496E-34 -0.2648E-35 -0.1664E-34 -0.1825E-37 -0.1146E-36 -0.2738E-37 -0.1719E-36 -0.6845E-38 -0.4297E-37 -0.5475E-37 -0.3438E-36 -0.2281E-38 -0.1432E-37
     -2.330 -0.3414E-24 -0.1624E-23 -0.1137E-26 -0.5404E-26 -0.3411E-26 -0.1621E-25 -0.2274E-26 -0.1081E-25 -0.1567E-28 -0.7442E-28 -0.2351E-28 -0.1116E-27 -0.5877E-29 -0.2791E-28 -0.4702E-28 -0.2233E-27 -0.1959E-29 -0.9303E-29
     -2.266 -0.1014E-16 -0.3643E-16 -0.3376E-19 -0.1213E-18 -0.1013E-18 -0.3638E-18 -0.6752E-19 -0.2425E-18 -0.4654E-21 -0.1670E-20 -0.6981E-21 -0.2505E-20 -0.1745E-21 -0.6262E-21 -0.1396E-20 -0.5009E-20 -0.5817E-22 -0.2087E-21
     -2.201 -0.9819E-11 -0.2657E-10 -0.3271E-13 -0.8842E-13 -0.9812E-13 -0.2653E-12 -0.6541E-13 -0.1768E-12 -0.4508E-15 -0.1218E-14 -0.6762E-15 -0.1827E-14 -0.1691E-15 -0.4566E-15 -0.1352E-14 -0.3653E-14 -0.5635E-16 -0.1522E-15
     -2.137 -0.3165E-06 -0.6415E-06 -0.1054E-08 -0.2135E-08 -0.3162E-08 -0.6405E-08 -0.2108E-08 -0.4270E-08 -0.1453E-10 -0.2940E-10 -0.2180E-10 -0.4410E-10 -0.5449E-11 -0.1103E-10 -0.4359E-10 -0.8821E-10 -0.1816E-11 -0.3675E-11
     -2.072 -0.2881E-03 -0.4270E-03 -0.9596E-06 -0.1421E-05 -0.2879E-05 -0.4263E-05 -0.1919E-05 -0.2842E-05 -0.1323E-07 -0.1957E-07 -0.1984E-07 -0.2936E-07 -0.4960E-08 -0.7339E-08 -0.3968E-07 -0.5871E-07 -0.1653E-08 -0.2446E-08
     -2.008 -0.9692E-03  0.7910E-03 -0.3228E-05  0.2632E-05 -0.9685E-05  0.7897E-05 -0.6456E-05  0.5265E-05 -0.4450E-07  0.3625E-07 -0.6675E-07  0.5438E-07 -0.1669E-07  0.1359E-07 -0.1335E-06  0.1088E-06 -0.5562E-08  0.4531E-08
     -1.943  0.6266E-01  0.6638E-01  0.2087E-03  0.2209E-03  0.6261E-03  0.6628E-03  0.4174E-03  0.4418E-03  0.2877E-05  0.3042E-05  0.4316E-05  0.4563E-05  0.1079E-05  0.1141E-05  0.8631E-05  0.9127E-05  0.3596E-06  0.3803E-06
     -1.879  0.1840E-01  0.1277E-01  0.6128E-04  0.4249E-04  0.1838E-03  0.1275E-03  0.1226E-03  0.8497E-04  0.8447E-06  0.5851E-06  0.1267E-05  0.8776E-06  0.3168E-06  0.2194E-06  0.2534E-05  0.1755E-05  0.1056E-06  0.7314E-07
     -1.814 -0.1603E-02 -0.1246E-02 -0.5340E-05 -0.4148E-05 -0.1602E-04 -0.1244E-04 -0.1068E-04 -0.8296E-05 -0.7360E-07 -0.5712E-07 -0.1104E-06 -0.8568E-07 -0.2760E-07 -0.2142E-07 -0.2208E-06 -0.1714E-06 -0.9201E-08 -0.7140E-08
     -1.749 -0.9950E-05 -0.5479E-05 -0.3320E-07 -0.1838E-07 -0.9961E-07 -0.5513E-07 -0.6628E-07 -0.3647E-07 -0.4588E-09 -0.2558E-09 -0.6987E-09 -0.4077E-09 -0.1790E-09 -0.1119E-09 -0.1377E-08 -0.7674E-09 -0.5735E-10 -0.3197E-10
     -1.685 -0.2903E-04 -0.4975E-04 -0.3741E-06 -0.6406E-06 -0.1122E-05 -0.1922E-05 -0.1870E-06 -0.3203E-06 -0.1049E-07 -0.1799E-07 -0.6296E-07 -0.1079E-06 -0.3541E-07 -0.6072E-07 -0.3148E-07 -0.5397E-07 -0.1312E-08 -0.2249E-08
     -1.620 -0.2767E-02 -0.3192E-02 -0.3566E-04 -0.4110E-04 -0.1070E-03 -0.1233E-03 -0.1783E-04 -0.2055E-04 -0.1000E-05 -0.1154E-05 -0.6001E-05 -0.6925E-05 -0.3376E-05 -0.3895E-05 -0.3001E-05 -0.3462E-05 -0.1250E-06 -0.1443E-06
     -1.556  0.3592E-01  0.4521E-01  0.4628E-03  0.5821E-03  0.1389E-02  0.1746E-02  0.2314E-03  0.2911E-03  0.1298E-04  0.1635E-04  0.7790E-04  0.9809E-04  0.4382E-04  0.5517E-04  0.3895E-04  0.4904E-04  0.1623E-05  0.2043E-05
     -1.491  0.7108E-01  0.6268E-01  0.9160E-03  0.8071E-03  0.2748E-02  0.2421E-02  0.4580E-03  0.4035E-03  0.2570E-04  0.2267E-04  0.1542E-03  0.1360E-03  0.8672E-04  0.7650E-04  0.7709E-04  0.6800E-04  0.3212E-05  0.2833E-05
     -1.427 -0.3002E-02 -0.3437E-02 -0.3869E-04 -0.4426E-04 -0.1161E-03 -0.1328E-03 -0.1934E-04 -0.2213E-04 -0.1085E-05 -0.1243E-05 -0.6511E-05 -0.7458E-05 -0.3662E-05 -0.4195E-05 -0.3256E-05 -0.3729E-05 -0.1356E-06 -0.1554E-06
     -1.362 -0.2016E-03 -0.1272E-03 -0.2598E-05 -0.1638E-05 -0.7795E-05 -0.4913E-05 -0.1299E-05 -0.8191E-06 -0.7290E-07 -0.4602E-07 -0.4373E-06 -0.2759E-06 -0.2460E-06 -0.1552E-06 -0.2187E-06 -0.1380E-06 -0.9112E-08 -0.5753E-08
     -1.298 -0.2012E-04 -0.3649E-04 -0.5789E-06 -0.1052E-05 -0.2192E-06 -0.3918E-06 -0.1155E-05 -0.2103E-05 -0.1355E-06 -0.2469E-06 -0.1345E-07 -0.2407E-07 -0.6101E-07 -0.1111E-06 -0.2644E-07 -0.4792E-07 -0.1694E-07 -0.3087E-07
     -1.233 -0.4614E-02 -0.5951E-02 -0.1333E-03 -0.1717E-03 -0.4934E-04 -0.6359E-04 -0.2665E-03 -0.3435E-03 -0.3129E-04 -0.4034E-04 -0.3035E-05 -0.3908E-05 -0.1405E-04 -0.1814E-04 -0.6070E-05 -0.7817E-05 -0.3911E-05 -0.5042E-05
     -1.169  0.4702E-01  0.6805E-01  0.1358E-02  0.1964E-02  0.5028E-03  0.7272E-03  0.2716E-02  0.3928E-02  0.3189E-03  0.4612E-03  0.3093E-04  0.4469E-04  0.1432E-03  0.2075E-03  0.6186E-04  0.8938E-04  0.3986E-04  0.5766E-04
     -1.104  0.2485E+00  0.2353E+00  0.7178E-02  0.6789E-02  0.2658E-02  0.2514E-02  0.1436E-01  0.1358E-01  0.1685E-02  0.1595E-02  0.1635E-03  0.1545E-03  0.7567E-03  0.7173E-03  0.3270E-03  0.3090E-03  0.2107E-03  0.1993E-03
     -1.039  0.3251E-02 -0.3433E-02  0.9390E-04 -0.9908E-04  0.3476E-04 -0.3669E-04  0.1878E-03 -0.1982E-03  0.2205E-04 -0.2327E-04  0.2139E-05 -0.2255E-05  0.9898E-05 -0.1047E-04  0.4277E-05 -0.4509E-05  0.2756E-05 -0.2909E-05
     -0.975 -0.1618E-02 -0.1095E-02 -0.4674E-04 -0.3161E-04 -0.1731E-04 -0.1170E-04 -0.9348E-04 -0.6322E-04 -0.1097E-04 -0.7424E-05 -0.1065E-05 -0.7193E-06 -0.4927E-05 -0.3339E-05 -0.2129E-05 -0.1439E-05 -0.1372E-05 -0.9280E-06
     -0.910 -0.2459E-05 -0.1217E-05 -0.7103E-07 -0.3513E-07 -0.2630E-07 -0.1301E-07 -0.1421E-06 -0.7026E-07 -0.1668E-07 -0.8251E-08 -0.1618E-08 -0.7994E-09 -0.7488E-08 -0.3711E-08 -0.3236E-08 -0.1599E-08 -0.2085E-08 -0.1031E-08
     -0.846 -0.1029E-09 -0.3817E-10 -0.2973E-11 -0.1102E-11 -0.1101E-11 -0.4079E-12 -0.5946E-11 -0.2203E-11 -0.6980E-12 -0.2587E-12 -0.6771E-13 -0.2507E-13 -0.3134E-12 -0.1164E-12 -0.1354E-12 -0.5014E-13 -0.8725E-13 -0.3234E-13
     -0.781 -0.1299E-15 -0.6501E-16 -0.3752E-17 -0.1876E-17 -0.1389E-17 -0.6947E-18 -0.7505E-17 -0.3752E-17 -0.8811E-18 -0.4407E-18 -0.8547E-19 -0.4270E-19 -0.3956E-18 -0.1982E-18 -0.1709E-18 -0.8540E-19 -0.1101E-18 -0.5508E-19
     -0.717 -0.4226E-15 -0.1480E-14 -0.1166E-16 -0.4082E-16 -0.3498E-16 -0.1225E-15 -0.2261E-16 -0.7917E-16 -0.3312E-17 -0.1160E-16 -0.5312E-17 -0.1863E-16 -0.7438E-18 -0.2608E-17 -0.9937E-17 -0.3481E-16 -0.1363E-17 -0.4781E-17
     -0.652 -0.2411E-09 -0.6299E-09 -0.6653E-11 -0.1737E-10 -0.1996E-10 -0.5210E-10 -0.1290E-10 -0.3368E-10 -0.1890E-11 -0.4937E-11 -0.3031E-11 -0.7926E-11 -0.4244E-12 -0.1110E-11 -0.5669E-11 -0.1481E-10 -0.7777E-12 -0.2034E-11
     -0.588 -0.4375E-05 -0.8515E-05 -0.1207E-06 -0.2348E-06 -0.3621E-06 -0.7043E-06 -0.2341E-06 -0.4553E-06 -0.3429E-07 -0.6672E-07 -0.5499E-07 -0.1071E-06 -0.7700E-08 -0.1500E-07 -0.1029E-06 -0.2002E-06 -0.1411E-07 -0.2750E-07
     -0.523 -0.2130E-02 -0.2986E-02 -0.5879E-04 -0.8234E-04 -0.1764E-03 -0.2470E-03 -0.1140E-03 -0.1597E-03 -0.1669E-04 -0.2338E-04 -0.2676E-04 -0.3753E-04 -0.3749E-05 -0.5259E-05 -0.5006E-04 -0.7013E-04 -0.6862E-05 -0.9625E-05
     -0.458  0.1067E-01  0.2273E-01  0.2908E-03  0.6219E-03  0.8724E-03  0.1866E-02  0.5622E-03  0.1204E-02  0.8680E-04  0.1822E-03  0.1396E-03  0.2932E-03  0.1886E-04  0.4015E-04  0.2604E-03  0.5467E-03  0.3692E-04  0.7667E-04
     -0.394  0.2469E+00  0.2524E+00  0.6847E-02  0.7010E-02  0.2054E-01  0.2103E-01  0.1330E-01  0.1362E-01  0.1905E-02  0.1933E-02  0.3051E-02  0.3098E-02  0.4338E-03  0.4434E-03  0.5716E-02  0.5799E-02  0.7727E-03  0.7796E-03
     -0.329  0.8658E-01  0.7090E-01  0.2616E-02  0.2173E-02  0.7848E-02  0.6519E-02  0.5185E-02  0.4321E-02  0.4814E-03  0.3662E-03  0.7450E-03  0.5615E-03  0.1473E-03  0.1198E-03  0.1444E-02  0.1098E-02  0.1234E-03  0.7916E-04
     -0.265 -0.1553E-02 -0.2479E-02 -0.3622E-04 -0.6883E-04 -0.1086E-03 -0.2065E-03 -0.6698E-04 -0.1337E-03 -0.1794E-04 -0.1901E-04 -0.2956E-04 -0.3046E-04 -0.2882E-05 -0.4356E-05 -0.5382E-04 -0.5701E-04 -0.9568E-05 -0.7673E-05
     -0.200 -0.5447E-03 -0.4654E-03 -0.2401E-04 -0.2634E-04 -0.4667E-04 -0.3599E-04 -0.3384E-04 -0.2864E-04 -0.4619E-05 -0.5747E-05 -0.5215E-05 -0.5703E-05 -0.1429E-05 -0.1657E-05 -0.6478E-05 -0.4717E-05 -0.5902E-06 -0.7136E-06
     -0.136 -0.7530E-02 -0.8511E-02 -0.8147E-03 -0.9204E-03 -0.3225E-03 -0.3644E-03 -0.4447E-03 -0.5024E-03 -0.2137E-03 -0.2415E-03 -0.1766E-03 -0.1996E-03 -0.5578E-04 -0.6316E-04 -0.2391E-04 -0.2692E-04 -0.2586E-04 -0.2926E-04
     -0.071  0.1005E+00  0.1247E+00  0.1088E-01  0.1348E-01  0.4305E-02  0.5337E-02  0.5937E-02  0.7360E-02  0.2853E-02  0.3539E-02  0.2357E-02  0.2923E-02  0.7447E-03  0.9252E-03  0.3191E-03  0.3944E-03  0.3452E-03  0.4287E-03
     -0.007  0.1761E+00  0.1537E+00  0.1906E-01  0.1662E-01  0.7541E-02  0.6578E-02  0.1040E-01  0.9071E-02  0.4998E-02  0.4361E-02  0.4130E-02  0.3603E-02  0.1305E-02  0.1140E-02  0.5590E-03  0.4860E-03  0.6048E-03  0.5283E-03
      0.058 -0.8755E-02 -0.9712E-02 -0.9277E-03 -0.1020E-02 -0.3603E-03 -0.3930E-03 -0.5542E-03 -0.6312E-03 -0.2780E-03 -0.3216E-03 -0.1948E-03 -0.2114E-03 -0.7947E-04 -0.9489E-04 -0.2801E-04 -0.3106E-04 -0.3381E-04 -0.3922E-04
      0.122 -0.7855E-02 -0.5108E-02 -0.5506E-03 -0.3573E-03 -0.1129E-03 -0.7305E-04 -0.1031E-02 -0.6708E-03 -0.6735E-03 -0.4385E-03 -0.2388E-04 -0.1527E-04 -0.2814E-03 -0.1836E-03 -0.2827E-04 -0.1836E-04 -0.8414E-04 -0.5479E-04
      0.187  0.1732E+00  0.1914E+00  0.1174E-01  0.1297E-01  0.2193E-02  0.2423E-02  0.2348E-01  0.2594E-01  0.1545E-01  0.1707E-01  0.3138E-03  0.3464E-03  0.6500E-02  0.7197E-02  0.6277E-03  0.6928E-03  0.1931E-02  0.2134E-02
      0.252  0.8871E-01  0.6705E-01  0.6014E-02  0.4543E-02  0.1123E-02  0.8487E-03  0.1203E-01  0.9086E-02  0.7912E-02  0.5979E-02  0.1607E-03  0.1213E-03  0.3329E-02  0.2521E-02  0.3215E-03  0.2427E-03  0.9890E-03  0.7474E-03
      0.316 -0.6813E-02 -0.5607E-02 -0.4619E-03 -0.3799E-03 -0.8626E-04 -0.7097E-04 -0.9238E-03 -0.7597E-03 -0.6077E-03 -0.5000E-03 -0.1235E-04 -0.1015E-04 -0.2557E-03 -0.2108E-03 -0.2469E-04 -0.2029E-04 -0.7596E-04 -0.6250E-04
      0.381 -0.7250E-04 -0.4084E-04 -0.4915E-05 -0.2767E-05 -0.9179E-06 -0.5169E-06 -0.9831E-05 -0.5534E-05 -0.6467E-05 -0.3642E-05 -0.1314E-06 -0.7390E-07 -0.2721E-05 -0.1535E-05 -0.2628E-06 -0.1478E-06 -0.8083E-06 -0.4553E-06