   1   1   0   0
  0.1813235E+02  0.2866544E-09  0.2866544E-09  0.2866544E-09  0.5000000E-15
  1.000000000000000E-004
  CAR 
 unknown system                          
     16.45634588     -2.83935881  301      5.67378409      1.00000000
     -2.839  0.0000E+00  0.0000E+00
     -2.775  0.0000E+00  0.0000E+00
     -2.711  0.0000E+00  0.0000E+00
     -2.646  0.0000E+00  0.0000E+00
     -2.582  0.0000E+00  0.0000E+00
     -2.518  0.0000E+00  0.0000E+00
     -2.453  0.0000E+00  0.0000E+00
     -2.389 -0.1004E-31 -0.6459E-33
     -2.325 -0.5634E-23 -0.3624E-24
     -2.260 -0.1118E-15 -0.7193E-17
     -2.196 -0.7387E-10 -0.4751E-11
     -2.132 -0.1655E-05 -0.1064E-06
     -2.068 -0.1045E-02 -0.6735E-04
     -2.003  0.2044E-02  0.6413E-04
     -1.939  0.1579E+00  0.1022E-01
     -1.875  0.3067E-01  0.1220E-01
     -1.810 -0.3019E-02  0.1200E-01
     -1.746 -0.1390E-04  0.1200E-01
     -1.682 -0.1109E-03  0.1199E-01
     -1.617 -0.7637E-02  0.1150E-01
     -1.553  0.1050E+00  0.1825E-01
     -1.489  0.1602E+00  0.2855E-01
     -1.424 -0.8252E-02  0.2802E-01
     -1.360 -0.3708E-03  0.2800E-01
     -1.296 -0.7154E-04  0.2800E-01
     -1.231 -0.1346E-01  0.2713E-01
     -1.167  0.1441E+00  0.3640E-01
     -1.103  0.6190E+00  0.7622E-01
     -1.038  0.2056E-03  0.7623E-01
     -0.974 -0.3567E-02  0.7600E-01
     -0.910 -0.4954E-05  0.7600E-01
     -0.845 -0.1962E-09  0.7600E-01
     -0.781 -0.3314E-15  0.7600E-01
     -0.717 -0.1471E-14  0.7600E-01
     -0.653 -0.7582E-09  0.7600E-01
     -0.588 -0.1282E-04  0.7600E-01
     -0.524 -0.5954E-02  0.7562E-01
     -0.460  0.2974E-01  0.7753E-01
     -0.395  0.6745E+00  0.1209E+00
     -0.331  0.2396E+00  0.1363E+00
     -0.267 -0.3754E-02  0.1361E+00
     -0.202 -0.1559E-02  0.1360E+00
     -0.138 -0.2090E-01  0.1346E+00
     -0.074  0.2716E+00  0.1521E+00
     -0.009  0.5197E+00  0.1855E+00
      0.055 -0.2368E-01  0.1840E+00
      0.119 -0.2530E-01  0.1824E+00
      0.184  0.5000E+00  0.2145E+00
      0.248  0.2936E+00  0.2334E+00
      0.312 -0.2197E-01  0.2320E+00
      0.377 -0.2818E-03  0.2320E+00
      0.441 -0.7464E-07  0.2320E+00
      0.505 -0.6188E-12  0.2320E+00
      0.570 -0.5443E-13  0.2320E+00
      0.634 -0.1202E-07  0.2320E+00
      0.698 -0.8506E-04  0.2320E+00
      0.763 -0.1518E-01  0.2310E+00
      0.827  0.1149E+00  0.2384E+00
      0.891  0.1238E+01  0.3180E+00
      0.955  0.9545E+00  0.3794E+00
      1.020 -0.5054E-01  0.3762E+00
      1.084 -0.3057E-02  0.3760E+00
      1.148 -0.4568E-01  0.3730E+00
      1.213  0.5848E+00  0.4106E+00
      1.277  0.1691E+01  0.5194E+00
      1.341  0.1806E-01  0.5206E+00
      1.406 -0.2836E-01  0.5188E+00
      1.470  0.5401E+00  0.5535E+00
      1.534  0.6555E+00  0.5957E+00
      1.599  0.5947E+00  0.6339E+00
      1.663  0.1054E+00  0.6407E+00
      1.727 -0.1058E-01  0.6400E+00
      1.792 -0.9428E-02  0.6394E+00
      1.856  0.3175E-02  0.6396E+00
      1.920  0.1494E+01  0.7357E+00
      1.985  0.1754E+01  0.8485E+00
      2.049  0.1643E+01  0.9542E+00
      2.113  0.8459E+00  0.1009E+01
      2.178  0.6215E+00  0.1049E+01
      2.242  0.3211E+00  0.1069E+01
      2.306  0.1196E+01  0.1146E+01
      2.370  0.1226E+01  0.1225E+01
      2.435  0.4406E+00  0.1253E+01
      2.499  0.1499E+00  0.1263E+01
      2.563  0.5870E+00  0.1301E+01
      2.628 -0.2984E-01  0.1299E+01
      2.692  0.4933E+00  0.1331E+01
      2.756  0.8345E+00  0.1384E+01
      2.821  0.3125E+01  0.1585E+01
      2.885  0.1771E+01  0.1699E+01
      2.949  0.1283E+01  0.1782E+01
      3.014  0.3169E+00  0.1802E+01
      3.078  0.2991E-01  0.1804E+01
      3.142  0.1884E+01  0.1925E+01
      3.207  0.1523E+01  0.2023E+01
      3.271  0.6918E+00  0.2068E+01
      3.335  0.1260E-01  0.2068E+01
      3.400 -0.8598E-02  0.2068E+01
      3.464  0.2802E-01  0.2070E+01
      3.528  0.2149E+00  0.2083E+01
      3.593 -0.1558E-01  0.2082E+01
      3.657  0.4704E+00  0.2113E+01
      3.721  0.9700E+00  0.2175E+01
      3.785  0.1394E+01  0.2265E+01
      3.850  0.5013E+00  0.2297E+01
      3.914  0.4461E+00  0.2326E+01
      3.978 -0.3137E-01  0.2324E+01
      4.043  0.4929E-01  0.2327E+01
      4.107  0.2983E+00  0.2346E+01
      4.171  0.1968E+01  0.2473E+01
      4.236  0.2203E+01  0.2614E+01
      4.300  0.7894E+00  0.2665E+01
      4.364  0.2937E+01  0.2854E+01
      4.429  0.4071E+01  0.3116E+01
      4.493  0.7769E+00  0.3166E+01
      4.557  0.1292E+01  0.3249E+01
      4.622  0.1930E+01  0.3373E+01
      4.686  0.1133E+01  0.3446E+01
      4.750  0.4941E+00  0.3478E+01
      4.815  0.1431E+01  0.3570E+01
      4.879  0.1434E+01  0.3662E+01
      4.943  0.2642E+01  0.3832E+01
      5.008  0.2841E+01  0.4015E+01
      5.072  0.5031E+00  0.4047E+01
      5.136 -0.1042E+00  0.4040E+01
      5.201  0.6442E+00  0.4082E+01
      5.265  0.3144E+01  0.4284E+01
      5.329  0.2597E+01  0.4451E+01
      5.393  0.2025E+01  0.4581E+01
      5.458  0.6000E+00  0.4620E+01
      5.522  0.1054E+01  0.4688E+01
      5.586  0.1400E+01  0.4778E+01
      5.651  0.3077E+01  0.4976E+01
      5.715  0.1451E+01  0.5069E+01
      5.779  0.1595E+01  0.5171E+01
      5.844 -0.1368E-03  0.5171E+01
      5.908  0.9824E-01  0.5178E+01
      5.972  0.1962E+01  0.5304E+01
      6.037  0.8419E+00  0.5358E+01
      6.101  0.1236E+01  0.5438E+01
      6.165  0.1743E+01  0.5550E+01
      6.230  0.6248E+00  0.5590E+01
      6.294 -0.4061E-01  0.5587E+01
      6.358  0.1559E+00  0.5597E+01
      6.423  0.5264E+00  0.5631E+01
      6.487  0.6750E-01  0.5636E+01
      6.551  0.2042E+00  0.5649E+01
      6.616  0.7044E+00  0.5694E+01
      6.680  0.2162E+00  0.5708E+01
      6.744  0.5682E+00  0.5744E+01
      6.808  0.1147E-01  0.5745E+01
      6.873  0.1227E+01  0.5824E+01
      6.937  0.3333E+00  0.5846E+01
      7.001  0.8050E+00  0.5897E+01
      7.066  0.6307E+00  0.5938E+01
      7.130 -0.3586E-01  0.5936E+01
      7.194  0.2709E+00  0.5953E+01
      7.259  0.8181E+00  0.6006E+01
      7.323  0.1539E+00  0.6016E+01
      7.387  0.7958E+00  0.6067E+01
      7.452  0.8669E-01  0.6072E+01
      7.516  0.1020E+01  0.6138E+01
      7.580  0.6034E+00  0.6177E+01
      7.645  0.6025E+00  0.6215E+01
      7.709  0.1269E-01  0.6216E+01
      7.773 -0.4571E-02  0.6216E+01
      7.838 -0.1073E-04  0.6216E+01
      7.902 -0.2917E-02  0.6216E+01
      7.966 -0.3885E-01  0.6213E+01
      8.031  0.9060E+00  0.6272E+01
      8.095  0.1265E+01  0.6353E+01
      8.159  0.1615E+01  0.6457E+01
      8.224  0.7957E+00  0.6508E+01
      8.288 -0.9361E-01  0.6502E+01
      8.352  0.3590E+00  0.6525E+01
      8.416  0.1163E+01  0.6600E+01
      8.481  0.4209E+00  0.6627E+01
      8.545  0.6095E+00  0.6666E+01
      8.609  0.8246E+00  0.6719E+01
      8.674  0.1744E+01  0.6831E+01
      8.738  0.1092E+01  0.6902E+01
      8.802  0.2017E+00  0.6915E+01
      8.867  0.1135E+01  0.6988E+01
      8.931  0.1792E+01  0.7103E+01
      8.995  0.9289E+00  0.7163E+01
      9.060  0.5231E+00  0.7196E+01
      9.124  0.1790E+01  0.7311E+01
      9.188  0.2361E+01  0.7463E+01
      9.253  0.8373E+00  0.7517E+01
      9.317  0.3126E+00  0.7537E+01
      9.381  0.2045E+01  0.7669E+01
      9.446  0.9818E+00  0.7732E+01
      9.510  0.1243E+01  0.7812E+01
      9.574  0.5900E+00  0.7850E+01
      9.639  0.1252E+00  0.7858E+01
      9.703  0.1164E+01  0.7933E+01
      9.767  0.1593E+01  0.8035E+01
      9.831  0.1194E+01  0.8112E+01
      9.896  0.1842E+00  0.8124E+01
      9.960  0.1907E+00  0.8136E+01
     10.024  0.1548E+01  0.8236E+01
     10.089  0.2222E+01  0.8379E+01
     10.153  0.8476E+00  0.8433E+01
     10.217  0.9596E+00  0.8495E+01
     10.282  0.9293E+00  0.8555E+01
     10.346  0.1308E+01  0.8639E+01
     10.410  0.2076E+01  0.8772E+01
     10.475  0.3117E+01  0.8973E+01
     10.539  0.2494E+01  0.9133E+01
     10.603  0.3300E+01  0.9345E+01
     10.668  0.3507E+01  0.9571E+01
     10.732  0.4433E+01  0.9856E+01
     10.796  0.2520E+01  0.1002E+02
     10.861  0.2210E+01  0.1016E+02
     10.925  0.1112E+01  0.1023E+02
     10.989  0.8016E+00  0.1028E+02
     11.054 -0.4074E-02  0.1028E+02
     11.118  0.5399E+00  0.1032E+02
     11.182  0.2219E+00  0.1033E+02
     11.247  0.5406E+00  0.1037E+02
     11.311  0.2544E+00  0.1038E+02
     11.375  0.2910E+00  0.1040E+02
     11.439  0.3082E+00  0.1042E+02
     11.504  0.2390E+00  0.1044E+02
     11.568 -0.2666E-01  0.1044E+02
     11.632  0.9331E-01  0.1044E+02
     11.697  0.6198E+00  0.1048E+02
     11.761  0.4823E+00  0.1051E+02
     11.825  0.3312E+00  0.1053E+02
     11.890 -0.3011E-01  0.1053E+02
     11.954  0.3745E-01  0.1053E+02
     12.018  0.6525E+00  0.1058E+02
     12.083  0.7095E-01  0.1058E+02
     12.147 -0.1256E-01  0.1058E+02
     12.211 -0.5487E-02  0.1058E+02
     12.276  0.7473E+00  0.1063E+02
     12.340  0.2139E+00  0.1064E+02
     12.404 -0.1920E-01  0.1064E+02
     12.469 -0.2279E-01  0.1064E+02
     12.533  0.3078E+00  0.1066E+02
     12.597  0.4067E+00  0.1068E+02
     12.662  0.9857E+00  0.1075E+02
     12.726  0.2792E+01  0.1093E+02
     12.790  0.9079E+00  0.1099E+02
     12.854  0.1228E+01  0.1106E+02
     12.919  0.1716E+01  0.1118E+02
     12.983  0.9760E+00  0.1124E+02
     13.047  0.3863E+00  0.1126E+02
     13.112  0.1095E+01  0.1133E+02
     13.176 -0.1490E-01  0.1133E+02
     13.240 -0.5323E-02  0.1133E+02
     13.305 -0.7654E-05  0.1133E+02
     13.369 -0.2395E-06  0.1133E+02
     13.433 -0.3451E-03  0.1133E+02
     13.498 -0.5806E-02  0.1133E+02
     13.562  0.1212E+00  0.1134E+02
     13.626  0.1074E+00  0.1135E+02
     13.691  0.6458E+00  0.1139E+02
     13.755  0.6391E-01  0.1139E+02
     13.819  0.2723E+00  0.1141E+02
     13.884  0.8425E-01  0.1141E+02
     13.948  0.4312E+00  0.1144E+02
     14.012  0.3574E+00  0.1147E+02
     14.077 -0.2447E-01  0.1146E+02
     14.141 -0.4578E-03  0.1146E+02
     14.205 -0.9023E-05  0.1146E+02
     14.269 -0.5287E-02  0.1146E+02
     14.334  0.1724E-02  0.1146E+02
     14.398  0.8963E+00  0.1152E+02
     14.462  0.1915E+00  0.1153E+02
     14.527  0.7890E+00  0.1158E+02
     14.591  0.1453E+01  0.1168E+02
     14.655  0.9465E-01  0.1168E+02
     14.720  0.1895E+00  0.1170E+02
     14.784 -0.2422E-02  0.1170E+02
     14.848 -0.5319E-02  0.1170E+02
     14.913 -0.3033E-01  0.1169E+02
     14.977  0.1066E+01  0.1176E+02
     15.041  0.9161E+00  0.1182E+02
     15.106  0.1078E+01  0.1189E+02
     15.170 -0.4201E-01  0.1189E+02
     15.234  0.2570E-01  0.1189E+02
     15.299  0.6264E+00  0.1193E+02
     15.363  0.4069E+00  0.1196E+02
     15.427  0.4615E+00  0.1199E+02
     15.492 -0.2914E-01  0.1198E+02
     15.556  0.3985E-01  0.1199E+02
     15.620  0.2106E+00  0.1200E+02
     15.685  0.2726E-02  0.1200E+02
     15.749 -0.1394E-02  0.1200E+02
     15.813 -0.2206E-05  0.1200E+02
     15.877 -0.9849E-10  0.1200E+02
     15.942 -0.1657E-15  0.1200E+02
     16.006  0.0000E+00  0.1200E+02
     16.070  0.0000E+00  0.1200E+02
     16.135  0.0000E+00  0.1200E+02
     16.199  0.0000E+00  0.1200E+02
     16.263  0.0000E+00  0.1200E+02
     16.328  0.0000E+00  0.1200E+02
     16.392  0.0000E+00  0.1200E+02
     16.456  0.0000E+00  0.1200E+02
