    1    1    1    1
  0.1813235E+02  0.2866544E-09  0.2866544E-09  0.2866544E-09  0.5000000E-15
  1.000000000000000E-004
  CAR 
 unknown system                          
    5   44    6
 
  0.5000000E-01  0.5000000E-01  0.5000000E-01  0.8000000E-02
   1       -1.546466
   2        6.087359
   3        6.087359
   4        7.202184
   5        9.443463
   6        9.443463
 
  0.1500000E+00  0.5000000E-01  0.5000000E-01  0.2400000E-01
   1       -0.423851
   2        5.414259
   3        5.597759
   4        8.551520
   5        9.127313
   6        9.711409
 
  0.2500000E+00  0.5000000E-01  0.5000000E-01  0.2400000E-01
   1        0.901774
   2        4.757254
   3        5.296479
   4        9.345761
   5       10.039100
   6       10.524028
 
  0.3500000E+00  0.5000000E-01  0.5000000E-01  0.2400000E-01
   1        1.530335
   2        4.307609
   3        6.108332
   4        9.668288
   5       10.402898
   6       12.659392
 
  0.4500000E+00  0.5000000E-01  0.5000000E-01  0.1200000E-01
   1        1.587749
   2        4.149655
   3        6.984255
   4        9.649925
   5       10.587499
   6       13.805069
 
 -0.5000000E-01  0.5000000E-01  0.5000000E-01  0.6000000E-02
   1       -1.962281
   2        6.405922
   3        6.405922
   4        6.543089
   5        9.306980
   6        9.803926
 
  0.1500000E+00  0.1500000E+00  0.5000000E-01  0.2400000E-01
   1        0.846416
   2        4.868536
   3        4.940944
   4        9.202441
   5       10.084674
   6       10.448388
 
  0.2500000E+00  0.1500000E+00  0.5000000E-01  0.4800000E-01
   1        2.012504
   2        4.396827
   3        4.974016
   4        9.503504
   5       10.427222
   6       12.674290
 
  0.3500000E+00  0.1500000E+00  0.5000000E-01  0.4800000E-01
   1        2.290310
   2        4.182425
   3        5.939292
   4        9.755736
   5       10.628748
   6       14.527265
 
 -0.1500000E+00  0.1500000E+00  0.5000000E-01  0.2400000E-01
   1       -1.145909
   2        5.952129
   3        6.180560
   4        7.356090
   5        8.625299
   6        9.986667
 
  0.2500000E+00  0.2500000E+00  0.5000000E-01  0.2400000E-01
   1        2.931299
   2        4.291696
   3        5.010060
   4        9.817983
   5       10.525439
   6       14.957953
 
  0.3500000E+00  0.2500000E+00  0.5000000E-01  0.2400000E-01
   1        3.112205
   2        4.375888
   3        5.250937
   4       10.057387
   5       10.570048
   6       14.383059
 
 -0.2500000E+00  0.2500000E+00  0.5000000E-01  0.2400000E-01
   1        0.175455
   2        5.263722
   3        5.609382
   4        8.650374
   5        8.969468
   6       10.182737
 
 -0.1500000E+00  0.2500000E+00  0.5000000E-01  0.2400000E-01
   1       -0.063716
   2        5.627032
   3        5.698087
   4        8.067887
   5        8.475677
   6       10.385853
 
 -0.3500000E+00  0.3500000E+00  0.5000000E-01  0.2400000E-01
   1        1.212786
   2        4.669246
   3        5.693064
   4        9.183409
   5       10.410572
   6       11.105259
 
 -0.2500000E+00  0.3500000E+00  0.5000000E-01  0.4800000E-01
   1        1.239500
   2        4.916918
   3        5.349068
   4        8.369835
   5       10.303874
   6       10.689027
 
 -0.4500000E+00  0.4500000E+00  0.5000000E-01  0.2400000E-01
   1        1.455520
   2        4.337169
   3        6.696139
   4        9.342580
   5       10.780311
   6       13.052422
 
 -0.3500000E+00  0.4500000E+00  0.5000000E-01  0.4800000E-01
   1        1.895495
   2        4.615086
   3        5.596361
   4        8.909037
   5       10.723943
   6       12.692939
 
 -0.2500000E+00  0.4500000E+00  0.5000000E-01  0.2400000E-01
   1        2.362411
   2        4.321636
   3        5.355136
   4        8.676600
   5       10.429527
   6       12.764649
 
 -0.4500000E+00 -0.4500000E+00  0.5000000E-01  0.2400000E-01
   1        1.951267
   2        4.513576
   3        6.090371
   4        8.862919
   5       11.232259
   6       13.944680
 
 -0.3500000E+00 -0.4500000E+00  0.5000000E-01  0.4800000E-01
   1        2.832147
   2        4.379865
   3        5.220052
   4        9.145651
   5       10.650349
   6       15.054855
 
 -0.3500000E+00 -0.3500000E+00  0.5000000E-01  0.8000000E-02
   1        3.491788
   2        4.477748
   3        4.477748
   4       10.108363
   5       10.108363
   6       14.674090
 
  0.1500000E+00  0.1500000E+00  0.1500000E+00  0.8000000E-02
   1        2.232887
   2        4.384228
   3        4.384228
   4       10.051691
   5       10.051691
   6       12.782018
 
  0.2500000E+00  0.1500000E+00  0.1500000E+00  0.2400000E-01
   1        3.139996
   2        4.138251
   3        4.782745
   4       10.218401
   5       10.529260
   6       14.968942
 
  0.3500000E+00  0.1500000E+00  0.1500000E+00  0.1200000E-01
   1        3.147434
   2        4.066273
   3        5.605043
   4       10.278556
   5       10.681071
   6       14.369216
 
 -0.1500000E+00  0.1500000E+00  0.1500000E+00  0.6000000E-02
   1       -0.368748
   2        6.363718
   3        6.363718
   4        7.168252
   5        7.362619
   6       10.582162
 
  0.2500000E+00  0.2500000E+00  0.1500000E+00  0.2400000E-01
   1        3.740978
   2        4.401753
   3        4.830578
   4       10.532050
   5       10.661810
   6       13.661210
 
 -0.2500000E+00  0.2500000E+00  0.1500000E+00  0.2400000E-01
   1        0.893696
   2        5.512245
   3        6.006024
   4        7.234319
   5        8.723069
   6       10.786217
 
 -0.3500000E+00  0.3500000E+00  0.1500000E+00  0.2400000E-01
   1        1.937962
   2        4.887246
   3        5.498344
   4        8.038372
   5       10.850325
   6       10.890555
 
 -0.2500000E+00  0.3500000E+00  0.1500000E+00  0.2400000E-01
   1        2.062919
   2        4.568343
   3        6.140361
   4        7.516333
   5        9.980746
   6       10.951657
 
 -0.4500000E+00  0.4500000E+00  0.1500000E+00  0.2400000E-01
   1        2.160668
   2        5.199860
   3        5.258421
   4        8.013571
   5       11.988720
   6       12.849797
 
 -0.3500000E+00  0.4500000E+00  0.1500000E+00  0.4800000E-01
   1        2.767583
   2        4.183768
   3        5.742079
   4        8.150754
   5       10.720386
   6       12.908799
 
 -0.4500000E+00 -0.4500000E+00  0.1500000E+00  0.2400000E-01
   1        2.779385
   2        4.562591
   3        5.295128
   4        8.145581
   5       11.756213
   6       14.563844
 
 -0.3500000E+00 -0.4500000E+00  0.1500000E+00  0.2400000E-01
   1        3.647878
   2        3.709193
   3        4.971524
   4        9.413617
   5       10.582590
   6       15.368636
 
  0.2500000E+00  0.2500000E+00  0.2500000E+00  0.2000000E-02
   1        4.471426
   2        4.471426
   3        4.471426
   4       10.740347
   5       10.740347
   6       12.746095
 
 -0.2500000E+00  0.2500000E+00  0.2500000E+00  0.6000000E-02
   1        1.970308
   2        4.784753
   3        6.953835
   4        6.953835
   5        8.881685
   6       10.685480
 
 -0.3500000E+00  0.3500000E+00  0.2500000E+00  0.2400000E-01
   1        2.792849
   2        3.855145
   3        7.013793
   4        7.604992
   5       10.544413
   6       10.835520
 
 -0.4500000E+00  0.4500000E+00  0.2500000E+00  0.2400000E-01
   1        2.827463
   2        3.769137
   3        6.843538
   4        7.488734
   5       12.539861
   6       12.823928
 
 -0.3500000E+00  0.4500000E+00  0.2500000E+00  0.2400000E-01
   1        3.118916
   2        3.181037
   3        6.855921
   4        8.832232
   5       10.815101
   6       12.927174
 
 -0.4500000E+00 -0.4500000E+00  0.2500000E+00  0.2400000E-01
   1        2.909519
   2        3.233723
   3        6.578590
   4        9.348100
   5       11.659004
   6       15.270412
 
 -0.3500000E+00  0.3500000E+00  0.3500000E+00  0.6000000E-02
   1        2.896353
   2        2.995529
   3        8.611340
   4        8.611340
   5       10.766207
   6       10.944986
 
 -0.4500000E+00  0.4500000E+00  0.3500000E+00  0.2400000E-01
   1        2.516216
   2        2.678786
   3        9.076326
   4        9.082721
   5       12.259010
   6       13.071393
 
 -0.4500000E+00 -0.4500000E+00  0.3500000E+00  0.8000000E-02
   1        2.362303
   2        2.362303
   3        9.008327
   4       11.436688
   5       11.436688
   6       15.579268
 
 -0.4500000E+00  0.4500000E+00  0.4500000E+00  0.6000000E-02
   1        2.060375
   2        2.107200
   3       11.340331
   4       11.340331
   5       12.248034
   6       13.552948
