    1    1    1    2
  0.1813235E+02  0.2866544E-09  0.2866544E-09  0.2866544E-09  0.5000000E-15
  1.000000000000000E-004
  CAR 
 unknown system                          
    5   44    6
 
  0.5000000E-01  0.5000000E-01  0.5000000E-01  0.8000000E-02
   1       -1.545431     -1.550804
   2        6.096462      6.086938
   3        6.096462      6.086938
   4        7.211886      7.202157
   5        9.448833      9.447067
   6        9.448833      9.447067
 
  0.1500000E+00  0.5000000E-01  0.5000000E-01  0.2400000E-01
   1       -0.422707     -0.428143
   2        5.422772      5.413528
   3        5.605213      5.597091
   4        8.561194      8.551876
   5        9.133537      9.130279
   6        9.717270      9.715008
 
  0.2500000E+00  0.5000000E-01  0.5000000E-01  0.2400000E-01
   1        0.903669      0.897932
   2        4.765378      4.756239
   3        5.301349      5.295083
   4        9.353074      9.348490
   5       10.045518     10.042754
   6       10.533872     10.525020
 
  0.3500000E+00  0.5000000E-01  0.5000000E-01  0.2400000E-01
   1        1.533704      1.527586
   2        4.315523      4.306415
   3        6.110274      6.105341
   4        9.675890      9.670910
   5       10.410068     10.406791
   6       12.669574     12.661580
 
  0.4500000E+00  0.5000000E-01  0.5000000E-01  0.1200000E-01
   1        1.591601      1.585431
   2        4.157503      4.148403
   3        6.984789      6.980244
   4        9.657320      9.652546
   5       10.595127     10.591582
   6       13.815797     13.808531
 
 -0.5000000E-01  0.5000000E-01  0.5000000E-01  0.6000000E-02
   1       -1.961253     -1.966619
   2        6.415434      6.405644
   3        6.415434      6.405644
   4        6.552751      6.542910
   5        9.312017      9.310574
   6        9.809410      9.807987
 
  0.1500000E+00  0.1500000E+00  0.5000000E-01  0.2400000E-01
   1        0.847873      0.842265
   2        4.875125      4.867643
   3        4.948523      4.939862
   4        9.209110      9.205272
   5       10.091393     10.088420
   6       10.457943     10.449127
 
  0.2500000E+00  0.1500000E+00  0.5000000E-01  0.4800000E-01
   1        2.015252      2.009134
   2        4.403600      4.395621
   3        4.978903      4.972138
   4        9.510856      9.506263
   5       10.434551     10.431074
   6       12.683362     12.675638
 
  0.3500000E+00  0.1500000E+00  0.5000000E-01  0.4800000E-01
   1        2.294348      2.287922
   2        4.189543      4.181045
   3        5.941667      5.936402
   4        9.763186      9.758444
   5       10.636407     10.632512
   6       14.535929     14.529542
 
 -0.1500000E+00  0.1500000E+00  0.5000000E-01  0.2400000E-01
   1       -1.144874     -1.150235
   2        5.961234      5.951609
   3        6.189011      6.180106
   4        7.365826      7.356130
   5        8.630391      8.628103
   6        9.992516      9.990660
 
  0.2500000E+00  0.2500000E+00  0.5000000E-01  0.2400000E-01
   1        2.935967      2.928716
   2        4.296426      4.290280
   3        5.014656      5.007776
   4        9.825682      9.820833
   5       10.533084     10.528944
   6       14.965619     14.959570
 
  0.3500000E+00  0.2500000E+00  0.5000000E-01  0.2400000E-01
   1        3.117743      3.110043
   2        4.380886      4.374268
   3        5.254123      5.248705
   4       10.065126     10.060277
   5       10.578025     10.573431
   6       14.388571     14.379552
 
 -0.2500000E+00  0.2500000E+00  0.5000000E-01  0.2400000E-01
   1        0.176804      0.171323
   2        5.272326      5.262897
   3        5.615097      5.608588
   4        8.656870      8.652581
   5        8.979441      8.970051
   6       10.189173     10.186584
 
 -0.1500000E+00  0.2500000E+00  0.5000000E-01  0.2400000E-01
   1       -0.062594     -0.067956
   2        5.633990      5.626565
   3        5.706560      5.697305
   4        8.073712      8.069876
   5        8.485391      8.475989
   6       10.392449     10.389922
 
 -0.3500000E+00  0.3500000E+00  0.5000000E-01  0.2400000E-01
   1        1.215412      1.209545
   2        4.677490      4.668198
   3        5.695800      5.691089
   4        9.190603      9.185342
   5       10.417533     10.414292
   6       11.115728     11.106891
 
 -0.2500000E+00  0.3500000E+00  0.5000000E-01  0.4800000E-01
   1        1.241302      1.235725
   2        4.922808      4.916200
   3        5.355744      5.347890
   4        8.376774      8.371381
   5       10.313278     10.305511
   6       10.696530     10.692079
 
 -0.4500000E+00  0.4500000E+00  0.5000000E-01  0.2400000E-01
   1        1.459165      1.453144
   2        4.345235      4.336009
   3        6.696842      6.692895
   4        9.349623      9.344644
   5       10.787335     10.783503
   6       13.063768     13.055775
 
 -0.3500000E+00  0.4500000E+00  0.5000000E-01  0.4800000E-01
   1        1.898791      1.892867
   2        4.622302      4.613987
   3        5.599096      5.594415
   4        8.916038      8.910535
   5       10.731476     10.726774
   6       12.702567     12.694967
 
 -0.2500000E+00  0.4500000E+00  0.5000000E-01  0.2400000E-01
   1        2.365395      2.359307
   2        4.325922      4.320912
   3        5.361251      5.353510
   4        8.684111      8.678059
   5       10.437269     10.432285
   6       12.773327     12.766123
 
 -0.4500000E+00 -0.4500000E+00  0.5000000E-01  0.2400000E-01
   1        1.955061      1.949125
   2        4.521223      4.512392
   3        6.091842      6.088092
   4        8.869631      8.864559
   5       11.239507     11.234422
   6       13.954653     13.947720
 
 -0.3500000E+00 -0.4500000E+00  0.5000000E-01  0.4800000E-01
   1        2.836491      2.829983
   2        4.384839      4.378750
   3        5.223478      5.218420
   4        9.153180      9.147168
   5       10.658338     10.652392
   6       15.063166     15.056916
 
 -0.3500000E+00 -0.3500000E+00  0.5000000E-01  0.8000000E-02
   1        3.498195      3.489706
   2        4.480728      4.476542
   3        4.480728      4.476542
   4       10.116579     10.110195
   5       10.116579     10.110195
   6       14.679520     14.671155
 
  0.1500000E+00  0.1500000E+00  0.1500000E+00  0.8000000E-02
   1        2.234743      2.228886
   2        4.390800      4.382949
   3        4.390800      4.382949
   4       10.058907     10.055275
   5       10.058907     10.055275
   6       12.791067     12.783264
 
  0.2500000E+00  0.1500000E+00  0.1500000E+00  0.2400000E-01
   1        3.143739      3.137185
   2        4.144892      4.136710
   3        4.786966      4.780373
   4       10.226042     10.221938
   5       10.536829     10.533301
   6       14.976870     14.970593
 
  0.3500000E+00  0.1500000E+00  0.1500000E+00  0.1200000E-01
   1        3.151882      3.145160
   2        4.072952      4.064639
   3        5.608322      5.602233
   4       10.286178     10.281964
   5       10.688779     10.685269
   6       14.374792     14.365467
 
 -0.1500000E+00  0.1500000E+00  0.1500000E+00  0.6000000E-02
   1       -0.367773     -0.373025
   2        6.372499      6.363113
   3        6.372500      6.363113
   4        7.172063      7.170199
   5        7.372417      7.362741
   6       10.588820     10.586426
 
  0.2500000E+00  0.2500000E+00  0.1500000E+00  0.2400000E-01
   1        3.746632      3.738886
   2        4.406800      4.399831
   3        4.834781      4.828086
   4       10.539845     10.535950
   5       10.669541     10.665888
   6       13.666160     13.656555
 
 -0.2500000E+00  0.2500000E+00  0.1500000E+00  0.2400000E-01
   1        0.894830      0.889679
   2        5.516804      5.512424
   3        6.014521      6.005256
   4        7.241303      7.234698
   5        8.732951      8.723590
   6       10.793442     10.789992
 
 -0.3500000E+00  0.3500000E+00  0.1500000E+00  0.2400000E-01
   1        1.940210      1.934910
   2        4.890044      4.886678
   3        5.506575      5.497401
   4        8.045204      8.038706
   5       10.860639     10.851814
   6       10.897476     10.892791
 
 -0.2500000E+00  0.3500000E+00  0.1500000E+00  0.2400000E-01
   1        2.064466      2.059498
   2        4.571966      4.568512
   3        6.148004      6.139360
   4        7.524007      7.516393
   5        9.990147      9.982108
   6       10.959076     10.953550
 
 -0.4500000E+00  0.4500000E+00  0.1500000E+00  0.2400000E-01
   1        2.164012      2.158712
   2        5.207946      5.198820
   3        5.260224      5.257110
   4        8.019707      8.014240
   5       11.994476     11.988925
   6       12.861003     12.852988
 
 -0.3500000E+00  0.4500000E+00  0.1500000E+00  0.4800000E-01
   1        2.770366      2.765471
   2        4.186590      4.183238
   3        5.748933      5.741055
   4        8.158081      8.150995
   5       10.728225     10.721335
   6       12.917386     12.910041
 
 -0.4500000E+00 -0.4500000E+00  0.1500000E+00  0.2400000E-01
   1        2.782654      2.778028
   2        4.564683      4.561707
   3        5.302145      5.294051
   4        8.152578      8.145747
   5       11.764450     11.757279
   6       14.571618     14.564854
 
 -0.3500000E+00 -0.4500000E+00  0.1500000E+00  0.2400000E-01
   1        3.650940      3.646498
   2        3.711955      3.708823
   3        4.977466      4.970204
   4        9.421745      9.414084
   5       10.590659     10.583254
   6       15.376224     15.369229
 
  0.2500000E+00  0.2500000E+00  0.2500000E+00  0.2000000E-02
   1        4.476598      4.469302
   2        4.476598      4.469302
   3        4.476598      4.469302
   4       10.748108     10.744619
   5       10.748108     10.744619
   6       12.750586     12.740704
 
 -0.2500000E+00  0.2500000E+00  0.2500000E+00  0.6000000E-02
   1        1.971328      1.966796
   2        4.787733      4.785632
   3        6.961972      6.953009
   4        6.961972      6.953009
   5        8.891768      8.882460
   6       10.692384     10.687619
 
 -0.3500000E+00  0.3500000E+00  0.2500000E+00  0.2400000E-01
   1        2.794493      2.790550
   2        3.857856      3.855441
   3        7.021934      7.013005
   4        7.612378      7.604416
   5       10.554648     10.545838
   6       10.841327     10.835147
 
 -0.4500000E+00  0.4500000E+00  0.2500000E+00  0.2400000E-01
   1        2.830113      2.826700
   2        3.771300      3.768651
   3        6.851667      6.842739
   4        7.495082      7.487888
   5       12.550871     12.542825
   6       12.828810     12.821680
 
 -0.3500000E+00  0.4500000E+00  0.2500000E+00  0.2400000E-01
   1        3.120954      3.117853
   2        3.183638      3.181191
   3        6.863123      6.854797
   4        8.840204      8.831812
   5       10.822803     10.815029
   6       12.934806     12.927183
 
 -0.4500000E+00 -0.4500000E+00  0.2500000E+00  0.2400000E-01
   1        2.912007      2.909354
   2        3.236014      3.233473
   3        6.585531      6.577094
   4        9.355930      9.347734
   5       11.667779     11.659808
   6       15.276596     15.268899
 
 -0.3500000E+00  0.3500000E+00  0.3500000E+00  0.6000000E-02
   1        2.898222      2.895342
   2        2.998071      2.995862
   3        8.619246      8.610613
   4        8.619246      8.610614
   5       10.776730     10.768038
   6       10.949078     10.942165
 
 -0.4500000E+00  0.4500000E+00  0.3500000E+00  0.2400000E-01
   1        2.518626      2.516290
   2        2.681033      2.678595
   3        9.083323      9.075103
   4        9.090952      9.082317
   5       12.269877     12.261810
   6       13.075382     13.067518
 
 -0.4500000E+00 -0.4500000E+00  0.3500000E+00  0.8000000E-02
   1        2.364647      2.362328
   2        2.364647      2.362328
   3        9.015733      9.007295
   4       11.445461     11.437243
   5       11.445462     11.437244
   6       15.584693     15.638021
 
 -0.4500000E+00  0.4500000E+00  0.4500000E+00  0.6000000E-02
   1        2.062729      2.060478
   2        2.109512      2.107216
   3       11.349058     11.340777
   4       11.349058     11.340777
   5       12.259010     12.251002
   6       13.555801     13.547403
