       N       E                     dE             d eps       ncg     rms          rms(c)
DAV:   1     0.455459979529E+00    0.45546E+00   -0.18361E+03   534   0.580E+02
DAV:   2    -0.122829326406E+02   -0.12738E+02   -0.12274E+02   972   0.851E+01
DAV:   3    -0.123443827436E+02   -0.61450E-01   -0.61296E-01   552   0.825E+00
DAV:   4    -0.123444771789E+02   -0.94435E-04   -0.94435E-04   702   0.258E-01
DAV:   5    -0.123444774056E+02   -0.22670E-06   -0.22696E-06   444   0.940E-03    0.322E+00
DAV:   6    -0.120163656991E+02    0.32811E+00   -0.20415E-01   618   0.343E+00    0.172E+00
DAV:   7    -0.118651592571E+02    0.15121E+00   -0.30051E-01   636   0.402E+00    0.126E-01
DAV:   8    -0.118641975449E+02    0.96171E-03   -0.87914E-04   570   0.260E-01    0.276E-02
DAV:   9    -0.118642121259E+02   -0.14581E-04   -0.56533E-05   366   0.577E-02
   1 F= -.11864212E+02 E0= -.11864419E+02  d E =0.621811E-03
