       N       E                     dE             d eps       ncg     rms          rms(c)
DAV:   1     0.144400818958E+02    0.14440E+02   -0.25003E+03  1074   0.748E+02
DAV:   2    -0.125713695015E+01   -0.15697E+02   -0.13928E+02  1944   0.913E+01
DAV:   3    -0.135856670229E+01   -0.10143E+00   -0.10107E+00  1104   0.102E+01
DAV:   4    -0.135900515464E+01   -0.43845E-03   -0.43846E-03  1380   0.390E-01
DAV:   5    -0.135900653329E+01   -0.13787E-05   -0.13774E-05   972   0.208E-02    0.768E+00
DAV:   6    -0.117037131701E+02   -0.10345E+02   -0.35066E+00  1092   0.983E+00    0.388E+00
DAV:   7    -0.117834192497E+02   -0.79706E-01   -0.28333E-02  1248   0.156E+00    0.344E+00
DAV:   8    -0.117441478648E+02    0.39271E-01   -0.44159E-01  1152   0.553E+00    0.247E+00
DAV:   9    -0.118520182372E+02   -0.10787E+00   -0.10803E-01  1224   0.327E+00    0.594E-01
DAV:  10    -0.118634655133E+02   -0.11447E-01   -0.21787E-03  1194   0.481E-01    0.190E-01
DAV:  11    -0.118641688600E+02   -0.70335E-03   -0.19844E-03  1164   0.340E-01    0.714E-02
DAV:  12    -0.118642178730E+02   -0.49013E-04   -0.16131E-04   774   0.160E-01
   1 F= -.11864218E+02 E0= -.11864417E+02  d E =0.597051E-03  mag=    -0.0096
