 vasp.5.2.12 11Nov11 complex                                                    
  
 executed on             LinuxIFC date 2012.10.17  10:12:41
 running on    1 nodes
 distr:  one band on    1 nodes,    1 groups


--------------------------------------------------------------------------------------------------------


 INCAR:
 POTCAR:    PAW_PBE Ta 17Jan2003                  
 POTCAR:    PAW_PBE Ta 17Jan2003                  
   VRHFIN =Ta:  6s5d                                                            
   LEXCH  = PE                                                                  
   EATOM  =   130.6506 eV,    9.6025 Ry                                         
                                                                                
   TITEL  = PAW_PBE Ta 17Jan2003                                                
   LULTRA =        F    use ultrasoft PP ?                                      
   IUNSCR =        1    unscreen: 0-lin 1-nonlin 2-no                           
   RPACOR =    2.330    partial core radius                                     
   POMASS =  180.948; ZVAL   =    5.000    mass and valenz                      
   RCORE  =    2.900    outmost cutoff radius                                   
   RWIGS  =    2.840; RWIGS  =    1.503    wigner-seitz radius (au A)           
   ENMAX  =  223.667; ENMIN  =  167.750 eV                                      
   RCLOC  =    2.205    cutoff for local pot                                    
   LCOR   =        T    correct aug charges                                     
   LPAW   =        T    paw PP                                                  
   EAUG   =  332.075                                                            
   DEXC   =    -.049                                                            
   RMAX   =    3.083    core radius for proj-oper                               
   RAUG   =    1.300    factor for augmentation sphere                          
   RDEP   =    3.060    radius for radial grids                                 
   QCUT   =   -4.055; QGAM   =    8.109    optimization parameters              
                                                                                
   Description                                                                  
     l     E      TYP  RCUT    TYP  RCUT                                        
     2   .000     23  2.500                                                     
     2   .000     23  2.500                                                     
     0   .000     23  2.500                                                     
     0   .000     23  2.500                                                     
     1   .000     23  2.900                                                     
     1  2.000     23  2.900                                                     
     3   .000      7   .000                                                     
  local pseudopotential read in
  partial core-charges read in
  atomic valenz-charges read in
  non local Contribution for L=           2  read in
    real space projection operators read in
  non local Contribution for L=           2  read in
    real space projection operators read in
  non local Contribution for L=           0  read in
    real space projection operators read in
  non local Contribution for L=           0  read in
    real space projection operators read in
  non local Contribution for L=           1  read in
    real space projection operators read in
  non local Contribution for L=           1  read in
    real space projection operators read in
    PAW grid and wavefunctions read in
 
   number of l-projection  operators is LMAX  =           6
   number of lm-projection operators is LMMAX =          18
 
  PAW_PBE Ta 17Jan2003                  :
 energy of atom  1       EATOM= -130.6506
 kinetic energy error for atom=    0.0012 (will be added to EATOM!!)
 
 
 POSCAR: Ta                                      
  positions in cartesian coordinates
  No initial velocities read in
 exchange correlation table for  LEXCH =        8
   RHO(1)=    0.500       N(1)  =     2000
   RHO(2)=  100.500       N(2)  =     4000
 


--------------------------------------------------------------------------------------------------------


 ion  position               nearest neighbor table
   1  0.000  0.000  0.000-
 
  LATTYP: Found a body centered cubic cell.
 ALAT       =     3.3100000000
  
  Lattice vectors:
  
 A1 = (   2.8665440865,   0.0000000000,   0.0000000000)
 A2 = (  -0.9555146955,   2.7026036829,   0.0000000000)
 A3 = (  -0.9555146955,  -1.3513018414,   2.3405234457)
 Subroutine PRICEL returns:
 Original cell was already a primitive cell.
 

Analysis of symmetry for initial positions (statically):

 Routine SETGRP: Setting up the symmetry group for a 
 body centered cubic supercell.


 Subroutine GETGRP returns: Found 48 space group operations
 (whereof 48 operations were pure point group operations)
 out of a pool of 48 trial point group operations.


The static configuration has the point symmetry O_h .

Analysis of symmetry for dynamics (positions and initial velocities):

 Subroutine DYNSYM returns: Found 48 space group operations
 (whereof 48 operations were pure point group operations)
 out of a pool of 48 trial space group operations
 (whereof 48 operations were pure point group operations)
 and found also     1 'primitive' translations


The dynamic configuration has the point symmetry O_h .

Analysis of magnetic symmetry:

 Subroutine MAGSYM returns: Found 48 space group operations
 (whereof 48 operations were pure point group operations)
 out of a pool of 48 trial space group operations
 (whereof 48 operations were pure point group operations)
 and found also     1 'primitive' translations


The magnetic configuration has the point symmetry O_h .
 
 
 KPOINTS: KPOINTS created by Atomic Simulation Env

Automatic generation of k-mesh.
 
 Subroutine IBZKPT returns following result:
 ===========================================
 
 Found     44 irreducible k-points:
 
 Following reciprocal coordinates:
            Coordinates               Weight
  0.050000  0.050000  0.050000      8.000000
  0.150000  0.050000  0.050000     24.000000
  0.250000  0.050000  0.050000     24.000000
  0.350000  0.050000  0.050000     24.000000
  0.450000  0.050000  0.050000     12.000000
 -0.050000  0.050000  0.050000      6.000000
  0.150000  0.150000  0.050000     24.000000
  0.250000  0.150000  0.050000     48.000000
  0.350000  0.150000  0.050000     48.000000
 -0.150000  0.150000  0.050000     24.000000
  0.250000  0.250000  0.050000     24.000000
  0.350000  0.250000  0.050000     24.000000
 -0.250000  0.250000  0.050000     24.000000
 -0.150000  0.250000  0.050000     24.000000
 -0.350000  0.350000  0.050000     24.000000
 -0.250000  0.350000  0.050000     48.000000
 -0.450000  0.450000  0.050000     24.000000
 -0.350000  0.450000  0.050000     48.000000
 -0.250000  0.450000  0.050000     24.000000
 -0.450000 -0.450000  0.050000     24.000000
 -0.350000 -0.450000  0.050000     48.000000
 -0.350000 -0.350000  0.050000      8.000000
  0.150000  0.150000  0.150000      8.000000
  0.250000  0.150000  0.150000     24.000000
  0.350000  0.150000  0.150000     12.000000
 -0.150000  0.150000  0.150000      6.000000
  0.250000  0.250000  0.150000     24.000000
 -0.250000  0.250000  0.150000     24.000000
 -0.350000  0.350000  0.150000     24.000000
 -0.250000  0.350000  0.150000     24.000000
 -0.450000  0.450000  0.150000     24.000000
 -0.350000  0.450000  0.150000     48.000000
 -0.450000 -0.450000  0.150000     24.000000
 -0.350000 -0.450000  0.150000     24.000000
  0.250000  0.250000  0.250000      2.000000
 -0.250000  0.250000  0.250000      6.000000
 -0.350000  0.350000  0.250000     24.000000
 -0.450000  0.450000  0.250000     24.000000
 -0.350000  0.450000  0.250000     24.000000
 -0.450000 -0.450000  0.250000     24.000000
 -0.350000  0.350000  0.350000      6.000000
 -0.450000  0.450000  0.350000     24.000000
 -0.450000 -0.450000  0.350000      8.000000
 -0.450000  0.450000  0.450000      6.000000
 
 Following cartesian coordinates:
            Coordinates               Weight
  0.017443  0.024668  0.042725      8.000000
  0.052328  0.037001  0.064088     24.000000
  0.087213  0.049335  0.085451     24.000000
  0.122098  0.061669  0.106814     24.000000
  0.156983  0.074003  0.128176     12.000000
 -0.017443  0.012334  0.021363      6.000000
  0.052328  0.074003  0.085451     24.000000
  0.087213  0.086336  0.106814     48.000000
  0.122098  0.098670  0.128176     48.000000
 -0.052328  0.037001  0.021363     24.000000
  0.087213  0.123338  0.128176     24.000000
  0.122098  0.135672  0.149539     24.000000
 -0.087213  0.061669  0.021363     24.000000
 -0.052328  0.074003  0.042725     24.000000
 -0.122098  0.086336  0.021363     24.000000
 -0.087213  0.098670  0.042725     48.000000
 -0.156983  0.111004  0.021363     24.000000
 -0.122098  0.123338  0.042725     48.000000
 -0.087213  0.135672  0.064088     24.000000
 -0.156983 -0.222008 -0.170902     24.000000
 -0.122098 -0.209674 -0.149539     48.000000
 -0.122098 -0.172673 -0.128176      8.000000
  0.052328  0.074003  0.128176      8.000000
  0.087213  0.086336  0.149539     24.000000
  0.122098  0.098670  0.170902     12.000000
 -0.052328  0.037001  0.064088      6.000000
  0.087213  0.123338  0.170902     24.000000
 -0.087213  0.061669  0.064088     24.000000
 -0.122098  0.086336  0.064088     24.000000
 -0.087213  0.098670  0.085451     24.000000
 -0.156983  0.111004  0.064088     24.000000
 -0.122098  0.123338  0.085451     48.000000
 -0.156983 -0.222008 -0.128176     24.000000
 -0.122098 -0.209674 -0.106814     24.000000
  0.087213  0.123338  0.213627      2.000000
 -0.087213  0.061669  0.106814      6.000000
 -0.122098  0.086336  0.106814     24.000000
 -0.156983  0.111004  0.106814     24.000000
 -0.122098  0.123338  0.128176     24.000000
 -0.156983 -0.222008 -0.085451     24.000000
 -0.122098  0.086336  0.149539      6.000000
 -0.156983  0.111004  0.149539     24.000000
 -0.156983 -0.222008 -0.042725      8.000000
 -0.156983  0.111004  0.192265      6.000000
 


--------------------------------------------------------------------------------------------------------




 Dimension of arrays:
   k-points           NKPTS =     44   k-points in BZ     NKDIM =     44   number of bands    NBANDS=      6
   number of dos      NEDOS =    301   number of ions     NIONS =      1
   non local maximal  LDIM  =      6   non local SUM 2l+1 LMDIM =     18
   total plane-waves  NPLWV =  13824
   max r-space proj   IRMAX =      1   max aug-charges    IRDMAX=  52091
   dimension x,y,z NGX =    24 NGY =   24 NGZ =   24
   dimension x,y,z NGXF=    48 NGYF=   48 NGZF=   48
   support grid    NGXF=    48 NGYF=   48 NGZF=   48
   ions per type =               1
 NGX,Y,Z   is equivalent  to a cutoff of  13.92, 13.92, 13.92 a.u.
 NGXF,Y,Z  is equivalent  to a cutoff of  27.84, 27.84, 27.84 a.u.


 I would recommend the setting:
   dimension x,y,z NGX =    21 NGY =   21 NGZ =   21
 SYSTEM =  unknown system                          
 POSCAR =  Ta                                      

 Startparameter for this run:
   NWRITE =      2    write-flag & timer
   PREC   = accura    normal or accurate (medium, high low for compatibility)
   ISTART =      0    job   : 0-new  1-cont  2-samecut
   ICHARG =      2    charge: 1-file 2-atom 10-const
   ISPIN  =      2    spin polarized calculation?
   LNONCOLLINEAR =      F non collinear calculations
   LSORBIT =      F    spin-orbit coupling
   INIWAV =      1    electr: 0-lowe 1-rand  2-diag
   LASPH  =      F    aspherical Exc in radial PAW
   METAGGA=      F    non-selfconsistent MetaGGA calc.

 Electronic Relaxation 1
   ENCUT  =  500.0 eV  36.75 Ry    6.06 a.u.   5.23  5.23  5.23*2*pi/ulx,y,z
   ENINI  =  500.0     initial cutoff
   ENAUG  =  332.1 eV  augmentation charge cutoff
   NELM   =     60;   NELMIN=  2; NELMDL= -5     # of ELM steps 
   EDIFF  = 0.1E-03   stopping-criterion for ELM
   LREAL  =      F    real-space projection
   NLSPLINE    = F    spline interpolate recip. space projectors
   LCOMPAT=      F    compatible to vasp.4.4
   GGA_COMPAT  = T    GGA compatible to vasp.4.4-vasp.4.6
   LMAXPAW     = -100 max onsite density
   LMAXMIX     =    2 max onsite mixed and CHGCAR
   VOSKOWN=      0    Vosko Wilk Nusair interpolation
   ROPT   =    0.00000
 Ionic relaxation
   EDIFFG = 0.1E-02   stopping-criterion for IOM
   NSW    =      0    number of steps for IOM
   NBLOCK =      1;   KBLOCK =      1    inner block; outer block 
   IBRION =     -1    ionic relax: 0-MD 1-quasi-New 2-CG
   NFREE  =      0    steps in history (QN), initial steepest desc. (CG)
   ISIF   =      2    stress and relaxation
   IWAVPR =     10    prediction:  0-non 1-charg 2-wave 3-comb
   ISYM   =      2    0-nonsym 1-usesym 2-fastsym
   LCORR  =      T    Harris-Foulkes like correction to forces

   POTIM  = 0.5000    time-step for ionic-motion
   TEIN   =    0.0    initial temperature
   TEBEG  =    0.0;   TEEND  =   0.0 temperature during run
   SMASS  =  -3.00    Nose mass-parameter (am)
   estimated Nose-frequenzy (Omega)   =  0.10E-29 period in steps =****** mass=  -0.188E-27a.u.
   SCALEE = 1.0000    scale energy and forces
   NPACO  =    256;   APACO  = 16.0  distance and # of slots for P.C.
   PSTRESS=    0.0 pullay stress

  Mass of Ions in am
   POMASS = 180.95
  Ionic Valenz
   ZVAL   =   5.00
  Atomic Wigner-Seitz radii
   RWIGS  =  -1.00
  virtual crystal weights 
   VCA    =   1.00
   NELECT =       5.0000    total number of electrons
   NUPDOWN=      -1.0000    fix difference up-down

 DOS related values:
   EMIN   =  10.00;   EMAX   =-10.00  energy-range for DOS
   EFERMI =   0.00
   ISMEAR =     1;   SIGMA  =   0.05  broadening in eV -4-tet -1-fermi 0-gaus

 Electronic relaxation 2 (details)
   IALGO  =     38    algorithm
   LDIAG  =      T    sub-space diagonalisation (order eigenvalues)
   LSUBROT=      T    optimize rotation matrix (better conditioning)
   TURBO    =      0    0=normal 1=particle mesh
   IRESTART =      0    0=no restart 2=restart with 2 vectors
   NREBOOT  =      0    no. of reboots
   NMIN     =      0    reboot dimension
   EREF     =   0.00    reference energy to select bands
   IMIX   =      4    mixing-type and parameters
     AMIX     =   0.40;   BMIX     =  1.00
     AMIX_MAG =   1.60;   BMIX_MAG =  1.00
     AMIN     =   0.10
     WC   =   100.;   INIMIX=   1;  MIXPRE=   1

 Intra band minimization:
   WEIMIN = 0.0000     energy-eigenvalue tresh-hold
   EBREAK =  0.42E-05  absolut break condition
   DEPER  =   0.30     relativ break condition  

   TIME   =   0.40     timestep for ELM

  volume/ion in A,a.u.               =      18.13       122.36
  Fermi-wavevector in a.u.,A,eV,Ry     =   1.065566  2.013627 15.448462  1.135430
  Thomas-Fermi vector in A             =   2.201121
 
 Write flags
   LWAVE  =      T    write WAVECAR
   LCHARG =      T    write CHGCAR
   LVTOT  =      F    write LOCPOT, total local potential
   LVHAR  =      F    write LOCPOT, Hartree potential only
   LELF   =      F    write electronic localiz. function (ELF)
   LORBIT =     11    0 simple, 1 ext, 2 COOP (PROOUT)


 Dipole corrections
   LMONO  =      F    monopole corrections only (constant potential shift)
   LDIPOL =      F    correct potential (dipole corrections)
   IDIPOL =      0    1-x, 2-y, 3-z, 4-all directions 
   EPSILON=  1.0000000 bulk dielectric constant

 Exchange correlation treatment:
   GGA     =    --    GGA type
   LEXCH   =     8    internal setting for exchange type
   VOSKOWN=      0    Vosko Wilk Nusair interpolation
   LHFCALC =     F    Hartree Fock is set to
   LHFONE  =     F    Hartree Fock one center treatment
   AEXX    =    0.0000 exact exchange contribution

 Linear response parameters
   LEPSILON=     F    determine dielectric tensor
   LRPA    =     F    only Hartree local field effects (RPA)
   LNABLA  =     F    use nabla operator in PAW spheres
   LVEL    =     F    velocity operator in full k-point grid
   LINTERFAST=   F  fast interpolation
   KINTER  =     0    interpolate to denser k-point grid
   CSHIFT  =0.1000    complex shift for real part using Kramers Kronig
   OMEGAMAX=  -1.0    maximum frequency
   RTIME   =    0.100 relaxation time in fs

 Orbital magnetization related:
   ORBITALMAG=     F  switch on orbital magnetization
   LCHIMAG   =     F  perturbation theory with respect to B field
   DQ        =  0.001000  dq finite difference perturbation B field



--------------------------------------------------------------------------------------------------------


 Static calculation
 charge density and potential will be updated during run
 spin polarized calculation
 Variant of blocked Davidson
 Davidson routine will perform the subspace rotation
 perform sub-space diagonalisation
    after iterative eigenvector-optimisation
 modified Broyden-mixing scheme, WC =      100.0
 initial mixing is a Kerker type mixing with AMIX =  0.4000 and BMIX =      1.0000
 Hartree-type preconditioning will be used
 using additional bands            3
 reciprocal scheme for non local part
 use partial core corrections
 calculate Harris-corrections to forces 
   (improved forces if not selfconsistent)
 use gradient corrections 
 use of overlap-Matrix (Vanderbilt PP)
 Methfessel and Paxton  Order N= 1 SIGMA  =   0.05


--------------------------------------------------------------------------------------------------------


  energy-cutoff  :      500.00
  volume of cell :       18.13
      direct lattice vectors                 reciprocal lattice vectors
     2.866544087  0.000000000  0.000000000     0.348852126  0.123337852  0.213627426
    -0.955514696  2.702603683  0.000000000     0.000000000  0.370013556  0.213627426
    -0.955514696 -1.351301841  2.340523446     0.000000000  0.000000000  0.427254853

  length of vectors
     2.866544087  2.866544087  2.866544087     0.427254853  0.427254853  0.427254853


 
 k-points in units of 2pi/SCALE and weight: KPOINTS created by Atomic Simulation Env
   0.01744261  0.02466757  0.04272549       0.008
   0.05232782  0.03700136  0.06408823       0.024
   0.08721303  0.04933514  0.08545097       0.024
   0.12209824  0.06166893  0.10681371       0.024
   0.15698346  0.07400271  0.12817646       0.012
  -0.01744261  0.01233379  0.02136274       0.006
   0.05232782  0.07400271  0.08545097       0.024
   0.08721303  0.08633650  0.10681371       0.048
   0.12209824  0.09867028  0.12817646       0.048
  -0.05232782  0.03700136  0.02136274       0.024
   0.08721303  0.12333785  0.12817646       0.024
   0.12209824  0.13567164  0.14953920       0.024
  -0.08721303  0.06166893  0.02136274       0.024
  -0.05232782  0.07400271  0.04272549       0.024
  -0.12209824  0.08633650  0.02136274       0.024
  -0.08721303  0.09867028  0.04272549       0.048
  -0.15698346  0.11100407  0.02136274       0.024
  -0.12209824  0.12333785  0.04272549       0.048
  -0.08721303  0.13567164  0.06408823       0.024
  -0.15698346 -0.22200813 -0.17090194       0.024
  -0.12209824 -0.20967435 -0.14953920       0.048
  -0.12209824 -0.17267299 -0.12817646       0.008
   0.05232782  0.07400271  0.12817646       0.008
   0.08721303  0.08633650  0.14953920       0.024
   0.12209824  0.09867028  0.17090194       0.012
  -0.05232782  0.03700136  0.06408823       0.006
   0.08721303  0.12333785  0.17090194       0.024
  -0.08721303  0.06166893  0.06408823       0.024
  -0.12209824  0.08633650  0.06408823       0.024
  -0.08721303  0.09867028  0.08545097       0.024
  -0.15698346  0.11100407  0.06408823       0.024
  -0.12209824  0.12333785  0.08545097       0.048
  -0.15698346 -0.22200813 -0.12817646       0.024
  -0.12209824 -0.20967435 -0.10681371       0.024
   0.08721303  0.12333785  0.21362743       0.002
  -0.08721303  0.06166893  0.10681371       0.006
  -0.12209824  0.08633650  0.10681371       0.024
  -0.15698346  0.11100407  0.10681371       0.024
  -0.12209824  0.12333785  0.12817646       0.024
  -0.15698346 -0.22200813 -0.08545097       0.024
  -0.12209824  0.08633650  0.14953920       0.006
  -0.15698346  0.11100407  0.14953920       0.024
  -0.15698346 -0.22200813 -0.04272549       0.008
  -0.15698346  0.11100407  0.19226468       0.006
 
 k-points in reciprocal lattice and weights: KPOINTS created by Atomic Simulation Env
   0.05000000  0.05000000  0.05000000       0.008
   0.15000000  0.05000000  0.05000000       0.024
   0.25000000  0.05000000  0.05000000       0.024
   0.35000000  0.05000000  0.05000000       0.024
   0.45000000  0.05000000  0.05000000       0.012
  -0.05000000  0.05000000  0.05000000       0.006
   0.15000000  0.15000000  0.05000000       0.024
   0.25000000  0.15000000  0.05000000       0.048
   0.35000000  0.15000000  0.05000000       0.048
  -0.15000000  0.15000000  0.05000000       0.024
   0.25000000  0.25000000  0.05000000       0.024
   0.35000000  0.25000000  0.05000000       0.024
  -0.25000000  0.25000000  0.05000000       0.024
  -0.15000000  0.25000000  0.05000000       0.024
  -0.35000000  0.35000000  0.05000000       0.024
  -0.25000000  0.35000000  0.05000000       0.048
  -0.45000000  0.45000000  0.05000000       0.024
  -0.35000000  0.45000000  0.05000000       0.048
  -0.25000000  0.45000000  0.05000000       0.024
  -0.45000000 -0.45000000  0.05000000       0.024
  -0.35000000 -0.45000000  0.05000000       0.048
  -0.35000000 -0.35000000  0.05000000       0.008
   0.15000000  0.15000000  0.15000000       0.008
   0.25000000  0.15000000  0.15000000       0.024
   0.35000000  0.15000000  0.15000000       0.012
  -0.15000000  0.15000000  0.15000000       0.006
   0.25000000  0.25000000  0.15000000       0.024
  -0.25000000  0.25000000  0.15000000       0.024
  -0.35000000  0.35000000  0.15000000       0.024
  -0.25000000  0.35000000  0.15000000       0.024
  -0.45000000  0.45000000  0.15000000       0.024
  -0.35000000  0.45000000  0.15000000       0.048
  -0.45000000 -0.45000000  0.15000000       0.024
  -0.35000000 -0.45000000  0.15000000       0.024
   0.25000000  0.25000000  0.25000000       0.002
  -0.25000000  0.25000000  0.25000000       0.006
  -0.35000000  0.35000000  0.25000000       0.024
  -0.45000000  0.45000000  0.25000000       0.024
  -0.35000000  0.45000000  0.25000000       0.024
  -0.45000000 -0.45000000  0.25000000       0.024
  -0.35000000  0.35000000  0.35000000       0.006
  -0.45000000  0.45000000  0.35000000       0.024
  -0.45000000 -0.45000000  0.35000000       0.008
  -0.45000000  0.45000000  0.45000000       0.006
 
 position of ions in fractional coordinates (direct lattice) 
   0.00000000  0.00000000  0.00000000
 
 position of ions in cartesian coordinates  (Angst):
   0.00000000  0.00000000  0.00000000
 


--------------------------------------------------------------------------------------------------------


 k-point  1 :  0.05000.05000.0500  plane waves:     450
 k-point  2 :  0.15000.05000.0500  plane waves:     460
 k-point  3 :  0.25000.05000.0500  plane waves:     456
 k-point  4 :  0.35000.05000.0500  plane waves:     464
 k-point  5 :  0.45000.05000.0500  plane waves:     458
 k-point  6 :  -.05000.05000.0500  plane waves:     450
 k-point  7 :  0.15000.15000.0500  plane waves:     463
 k-point  8 :  0.25000.15000.0500  plane waves:     463
 k-point  9 :  0.35000.15000.0500  plane waves:     464
 k-point 10 :  -.15000.15000.0500  plane waves:     458
 k-point 11 :  0.25000.25000.0500  plane waves:     467
 k-point 12 :  0.35000.25000.0500  plane waves:     467
 k-point 13 :  -.25000.25000.0500  plane waves:     460
 k-point 14 :  -.15000.25000.0500  plane waves:     455
 k-point 15 :  -.35000.35000.0500  plane waves:     461
 k-point 16 :  -.25000.35000.0500  plane waves:     460
 k-point 17 :  -.45000.45000.0500  plane waves:     462
 k-point 18 :  -.35000.45000.0500  plane waves:     462
 k-point 19 :  -.25000.45000.0500  plane waves:     459
 k-point 20 :  -.4500-.45000.0500  plane waves:     457
 k-point 21 :  -.3500-.45000.0500  plane waves:     463
 k-point 22 :  -.3500-.35000.0500  plane waves:     466
 k-point 23 :  0.15000.15000.1500  plane waves:     468
 k-point 24 :  0.25000.15000.1500  plane waves:     465
 k-point 25 :  0.35000.15000.1500  plane waves:     460
 k-point 26 :  -.15000.15000.1500  plane waves:     458
 k-point 27 :  0.25000.25000.1500  plane waves:     469
 k-point 28 :  -.25000.25000.1500  plane waves:     458
 k-point 29 :  -.35000.35000.1500  plane waves:     462
 k-point 30 :  -.25000.35000.1500  plane waves:     458
 k-point 31 :  -.45000.45000.1500  plane waves:     456
 k-point 32 :  -.35000.45000.1500  plane waves:     461
 k-point 33 :  -.4500-.45000.1500  plane waves:     454
 k-point 34 :  -.3500-.45000.1500  plane waves:     457
 k-point 35 :  0.25000.25000.2500  plane waves:     456
 k-point 36 :  -.25000.25000.2500  plane waves:     458
 k-point 37 :  -.35000.35000.2500  plane waves:     452
 k-point 38 :  -.45000.45000.2500  plane waves:     450
 k-point 39 :  -.35000.45000.2500  plane waves:     459
 k-point 40 :  -.4500-.45000.2500  plane waves:     463
 k-point 41 :  -.35000.35000.3500  plane waves:     454
 k-point 42 :  -.45000.45000.3500  plane waves:     460
 k-point 43 :  -.4500-.45000.3500  plane waves:     466
 k-point 44 :  -.45000.45000.4500  plane waves:     470

 maximum and minimum number of plane-waves per node :       470      450

 maximum number of plane-waves:       470
 maximum index in each direction: 
   IXMAX=    5   IYMAX=    5   IZMAX=    5
   IXMIN=   -5   IYMIN=   -5   IZMIN=   -5

 NGX is ok and might be reduce to  22
 NGY is ok and might be reduce to  22
 NGZ is ok and might be reduce to  22

 serial   3D FFT for wavefunctions
 parallel 3D FFT for charge:
    minimum data exchange during FFTs selected (reduces bandwidth)


 total amount of memory used by VASP on root node    50399. kBytes
========================================================================

   base      :      30000. kBytes
   nonl-proj :       2985. kBytes
   fftplans  :       3916. kBytes
   grid      :       9345. kBytes
   one-center:         31. kBytes
   wavefun   :       4122. kBytes
 
 Broyden mixing: mesh for mixing (old mesh)
   NGX = 11   NGY = 11   NGZ = 11
  (NGX  = 48   NGY  = 48   NGZ  = 48)
  gives a total of   1331 points

 initial charge density was supplied:
 charge density of overlapping atoms calculated
 number of electron       5.0000000 magnetization       6.0000000
 keeping initial charge density in first step


--------------------------------------------------------------------------------------------------------


 Maximum index for augmentation-charges        50333 (set IRDMAX)


--------------------------------------------------------------------------------------------------------


 First call to EWALD:  gamma=   0.675
 Maximum number of real-space cells 3x 3x 3
 Maximum number of reciprocal cells 3x 3x 3

    FEWALD:  cpu time    0.00: real time    0.00


----------------------------------------- Iteration    1(   1)  ---------------------------------------


    POTLOK:  cpu time    0.39: real time    0.39
    SETDIJ:  cpu time    0.08: real time    0.08
     EDDAV:  cpu time    2.31: real time    2.32
       DOS:  cpu time    0.00: real time    0.00
    --------------------------------------------
      LOOP:  cpu time    2.80: real time    2.81

 eigenvalue-minimisations  :  1074
 total energy-change (2. order) : 0.1444008E+02  (-0.2500282E+03)
 number of electron       5.0000000 magnetization       6.0000000
 augmentation part        5.0000000 magnetization       6.0000000

 Free energy of the ion-electron system (eV)
  ---------------------------------------------------
  alpha Z        PSCENC =        30.58334069
  Ewald energy   TEWEN  =      -197.90100875
  -1/2 Hartree   DENC   =        -2.50452612
  -exchange  EXHF       =         0.00000000
  -V(xc)+E(xc)   XCENC  =       -60.71197109
  PAW double counting   =       143.51874798      -69.33493833
  entropy T*S    EENTRO =        -0.00038138
  eigenvalues    EBANDS =        40.14145517
  atomic energy  EATOM  =       130.64936373
  ---------------------------------------------------
  free energy    TOTEN  =        14.44008190 eV

  energy without entropy =       14.44046328  energy(sigma->0) =       14.44020902


--------------------------------------------------------------------------------------------------------




----------------------------------------- Iteration    1(   2)  ---------------------------------------


     EDDAV:  cpu time    3.64: real time    3.64
       DOS:  cpu time    0.00: real time    0.00
    --------------------------------------------
      LOOP:  cpu time    3.64: real time    3.64

 eigenvalue-minimisations  :  1944
 total energy-change (2. order) :-0.1569722E+02  (-0.1392814E+02)
 number of electron       5.0000000 magnetization       6.0000000
 augmentation part        5.0000000 magnetization       6.0000000

 Free energy of the ion-electron system (eV)
  ---------------------------------------------------
  alpha Z        PSCENC =        30.58334069
  Ewald energy   TEWEN  =      -197.90100875
  -1/2 Hartree   DENC   =        -2.50452612
  -exchange  EXHF       =         0.00000000
  -V(xc)+E(xc)   XCENC  =       -60.71197109
  PAW double counting   =       143.51874798      -69.33493833
  entropy T*S    EENTRO =         0.00033861
  eigenvalues    EBANDS =        24.44351633
  atomic energy  EATOM  =       130.64936373
  ---------------------------------------------------
  free energy    TOTEN  =        -1.25713695 eV

  energy without entropy =       -1.25747556  energy(sigma->0) =       -1.25724982


--------------------------------------------------------------------------------------------------------




----------------------------------------- Iteration    1(   3)  ---------------------------------------


     EDDAV:  cpu time    2.35: real time    2.35
       DOS:  cpu time    0.00: real time    0.00
    --------------------------------------------
      LOOP:  cpu time    2.35: real time    2.36

 eigenvalue-minimisations  :  1104
 total energy-change (2. order) :-0.1014298E+00  (-0.1010689E+00)
 number of electron       5.0000000 magnetization       6.0000000
 augmentation part        5.0000000 magnetization       6.0000000

 Free energy of the ion-electron system (eV)
  ---------------------------------------------------
  alpha Z        PSCENC =        30.58334069
  Ewald energy   TEWEN  =      -197.90100875
  -1/2 Hartree   DENC   =        -2.50452612
  -exchange  EXHF       =         0.00000000
  -V(xc)+E(xc)   XCENC  =       -60.71197109
  PAW double counting   =       143.51874798      -69.33493833
  entropy T*S    EENTRO =         0.00009340
  eigenvalues    EBANDS =        24.34233179
  atomic energy  EATOM  =       130.64936373
  ---------------------------------------------------
  free energy    TOTEN  =        -1.35856670 eV

  energy without entropy =       -1.35866010  energy(sigma->0) =       -1.35859784


--------------------------------------------------------------------------------------------------------




----------------------------------------- Iteration    1(   4)  ---------------------------------------


     EDDAV:  cpu time    2.76: real time    2.76
       DOS:  cpu time    0.00: real time    0.00
    --------------------------------------------
      LOOP:  cpu time    2.76: real time    2.78

 eigenvalue-minimisations  :  1380
 total energy-change (2. order) :-0.4384523E-03  (-0.4384563E-03)
 number of electron       5.0000000 magnetization       6.0000000
 augmentation part        5.0000000 magnetization       6.0000000

 Free energy of the ion-electron system (eV)
  ---------------------------------------------------
  alpha Z        PSCENC =        30.58334069
  Ewald energy   TEWEN  =      -197.90100875
  -1/2 Hartree   DENC   =        -2.50452612
  -exchange  EXHF       =         0.00000000
  -V(xc)+E(xc)   XCENC  =       -60.71197109
  PAW double counting   =       143.51874798      -69.33493833
  entropy T*S    EENTRO =         0.00009436
  eigenvalues    EBANDS =        24.34189237
  atomic energy  EATOM  =       130.64936373
  ---------------------------------------------------
  free energy    TOTEN  =        -1.35900515 eV

  energy without entropy =       -1.35909952  energy(sigma->0) =       -1.35903661


--------------------------------------------------------------------------------------------------------




----------------------------------------- Iteration    1(   5)  ---------------------------------------


     EDDAV:  cpu time    2.15: real time    2.15
       DOS:  cpu time    0.00: real time    0.00
    CHARGE:  cpu time    0.31: real time    0.31
    MIXING:  cpu time    0.01: real time    0.01
    --------------------------------------------
      LOOP:  cpu time    2.47: real time    2.49

 eigenvalue-minimisations  :   972
 total energy-change (2. order) :-0.1378651E-05  (-0.1377416E-05)
 number of electron       5.0000000 magnetization       1.9580417
 augmentation part        0.4535110 magnetization      -0.8450685

 Broyden mixing:
  rms(total) = 0.76823E+00    rms(broyden)= 0.76823E+00
  rms(prec ) = 0.98376E+00
  weight for this iteration     100.00

 Free energy of the ion-electron system (eV)
  ---------------------------------------------------
  alpha Z        PSCENC =        30.58334069
  Ewald energy   TEWEN  =      -197.90100875
  -1/2 Hartree   DENC   =        -2.50452612
  -exchange  EXHF       =         0.00000000
  -V(xc)+E(xc)   XCENC  =       -60.71197109
  PAW double counting   =       143.51874798      -69.33493833
  entropy T*S    EENTRO =         0.00009439
  eigenvalues    EBANDS =        24.34189096
  atomic energy  EATOM  =       130.64936373
  ---------------------------------------------------
  free energy    TOTEN  =        -1.35900653 eV

  energy without entropy =       -1.35910093  energy(sigma->0) =       -1.35903800


--------------------------------------------------------------------------------------------------------




----------------------------------------- Iteration    1(   6)  ---------------------------------------


    POTLOK:  cpu time    0.39: real time    0.39
    SETDIJ:  cpu time    0.08: real time    0.08
     EDDAV:  cpu time    2.32: real time    2.32
       DOS:  cpu time    0.00: real time    0.00
    CHARGE:  cpu time    0.26: real time    0.27
    MIXING:  cpu time    0.01: real time    0.01
    --------------------------------------------
      LOOP:  cpu time    3.07: real time    3.09

 eigenvalue-minimisations  :  1092
 total energy-change (2. order) :-0.1034471E+02  (-0.3506587E+00)
 number of electron       5.0000000 magnetization       1.7101209
 augmentation part        0.3688848 magnetization       1.0160345

 Broyden mixing:
  rms(total) = 0.38815E+00    rms(broyden)= 0.38815E+00
  rms(prec ) = 0.11386E+01
  weight for this iteration     100.00

 eigenvalues of (default mixing * dielectric matrix)
  average eigenvalue GAMMA=   1.4951
  1.4951

 Free energy of the ion-electron system (eV)
  ---------------------------------------------------
  alpha Z        PSCENC =        30.58334069
  Ewald energy   TEWEN  =      -197.90100875
  -1/2 Hartree   DENC   =        -1.98945969
  -exchange  EXHF       =         0.00000000
  -V(xc)+E(xc)   XCENC  =       -66.16743610
  PAW double counting   =       163.80191413      -89.85921454
  entropy T*S    EENTRO =         0.00015909
  eigenvalues    EBANDS =        19.17862827
  atomic energy  EATOM  =       130.64936373
  ---------------------------------------------------
  free energy    TOTEN  =       -11.70371317 eV

  energy without entropy =      -11.70387226  energy(sigma->0) =      -11.70376620


--------------------------------------------------------------------------------------------------------




----------------------------------------- Iteration    1(   7)  ---------------------------------------


    POTLOK:  cpu time    0.39: real time    0.39
    SETDIJ:  cpu time    0.08: real time    0.08
     EDDAV:  cpu time    2.56: real time    2.56
       DOS:  cpu time    0.00: real time    0.00
    CHARGE:  cpu time    0.26: real time    0.26
    MIXING:  cpu time    0.01: real time    0.01
    --------------------------------------------
      LOOP:  cpu time    3.31: real time    3.32

 eigenvalue-minimisations  :  1248
 total energy-change (2. order) :-0.7970608E-01  (-0.2833271E-02)
 number of electron       5.0000000 magnetization       1.3674169
 augmentation part        0.3692471 magnetization       0.7341285

 Broyden mixing:
  rms(total) = 0.34442E+00    rms(broyden)= 0.34442E+00
  rms(prec ) = 0.10653E+01
  weight for this iteration     100.00

 eigenvalues of (default mixing * dielectric matrix)
  average eigenvalue GAMMA=   1.0897
  1.0897  1.0897

 Free energy of the ion-electron system (eV)
  ---------------------------------------------------
  alpha Z        PSCENC =        30.58334069
  Ewald energy   TEWEN  =      -197.90100875
  -1/2 Hartree   DENC   =        -1.86547393
  -exchange  EXHF       =         0.00000000
  -V(xc)+E(xc)   XCENC  =       -66.22857644
  PAW double counting   =       165.93237198      -92.02658898
  entropy T*S    EENTRO =        -0.00009102
  eigenvalues    EBANDS =        19.07324347
  atomic energy  EATOM  =       130.64936373
  ---------------------------------------------------
  free energy    TOTEN  =       -11.78341925 eV

  energy without entropy =      -11.78332823  energy(sigma->0) =      -11.78338891


--------------------------------------------------------------------------------------------------------




----------------------------------------- Iteration    1(   8)  ---------------------------------------


    POTLOK:  cpu time    0.39: real time    0.39
    SETDIJ:  cpu time    0.08: real time    0.08
     EDDAV:  cpu time    2.41: real time    2.41
       DOS:  cpu time    0.00: real time    0.00
    CHARGE:  cpu time    0.26: real time    0.26
    MIXING:  cpu time    0.01: real time    0.01
    --------------------------------------------
      LOOP:  cpu time    3.16: real time    3.17

 eigenvalue-minimisations  :  1152
 total energy-change (2. order) : 0.3927138E-01  (-0.4415895E-01)
 number of electron       5.0000000 magnetization       0.3956246
 augmentation part        0.3921571 magnetization      -0.0552571

 Broyden mixing:
  rms(total) = 0.24727E+00    rms(broyden)= 0.24727E+00
  rms(prec ) = 0.40418E+00
  weight for this iteration     100.00

 eigenvalues of (default mixing * dielectric matrix)
  average eigenvalue GAMMA=   1.1237
  1.3606  1.3606  0.6500

 Free energy of the ion-electron system (eV)
  ---------------------------------------------------
  alpha Z        PSCENC =        30.58334069
  Ewald energy   TEWEN  =      -197.90100875
  -1/2 Hartree   DENC   =        -0.89140441
  -exchange  EXHF       =         0.00000000
  -V(xc)+E(xc)   XCENC  =       -65.99535756
  PAW double counting   =       176.12234603     -102.52433258
  entropy T*S    EENTRO =        -0.00039986
  eigenvalues    EBANDS =        18.21330484
  atomic energy  EATOM  =       130.64936373
  ---------------------------------------------------
  free energy    TOTEN  =       -11.74414786 eV

  energy without entropy =      -11.74374800  energy(sigma->0) =      -11.74401458


--------------------------------------------------------------------------------------------------------




----------------------------------------- Iteration    1(   9)  ---------------------------------------


    POTLOK:  cpu time    0.39: real time    0.39
    SETDIJ:  cpu time    0.08: real time    0.08
     EDDAV:  cpu time    2.52: real time    2.52
       DOS:  cpu time    0.00: real time    0.00
    CHARGE:  cpu time    0.27: real time    0.27
    MIXING:  cpu time    0.01: real time    0.01
    --------------------------------------------
      LOOP:  cpu time    3.27: real time    3.27

 eigenvalue-minimisations  :  1224
 total energy-change (2. order) :-0.1078704E+00  (-0.1080317E-01)
 number of electron       5.0000000 magnetization       0.1077196
 augmentation part        0.4040694 magnetization      -0.0434103

 Broyden mixing:
  rms(total) = 0.59420E-01    rms(broyden)= 0.59420E-01
  rms(prec ) = 0.72491E-01
  weight for this iteration     100.00

 eigenvalues of (default mixing * dielectric matrix)
  average eigenvalue GAMMA=   1.1589
  2.0745  0.9451  0.9451  0.6711

 Free energy of the ion-electron system (eV)
  ---------------------------------------------------
  alpha Z        PSCENC =        30.58334069
  Ewald energy   TEWEN  =      -197.90100875
  -1/2 Hartree   DENC   =        -0.57546199
  -exchange  EXHF       =         0.00000000
  -V(xc)+E(xc)   XCENC  =       -65.98919252
  PAW double counting   =       185.78971527     -112.32722558
  entropy T*S    EENTRO =        -0.00050234
  eigenvalues    EBANDS =        17.91895325
  atomic energy  EATOM  =       130.64936373
  ---------------------------------------------------
  free energy    TOTEN  =       -11.85201824 eV

  energy without entropy =      -11.85151590  energy(sigma->0) =      -11.85185079


--------------------------------------------------------------------------------------------------------




----------------------------------------- Iteration    1(  10)  ---------------------------------------


    POTLOK:  cpu time    0.37: real time    0.37
    SETDIJ:  cpu time    0.08: real time    0.08
     EDDAV:  cpu time    2.48: real time    2.49
       DOS:  cpu time    0.00: real time    0.00
    CHARGE:  cpu time    0.26: real time    0.26
    MIXING:  cpu time    0.01: real time    0.01
    --------------------------------------------
      LOOP:  cpu time    3.20: real time    3.30

 eigenvalue-minimisations  :  1194
 total energy-change (2. order) :-0.1144728E-01  (-0.2178711E-03)
 number of electron       5.0000000 magnetization       0.0292825
 augmentation part        0.4038314 magnetization      -0.0144719

 Broyden mixing:
  rms(total) = 0.19014E-01    rms(broyden)= 0.19014E-01
  rms(prec ) = 0.39800E-01
  weight for this iteration     100.00

 eigenvalues of (default mixing * dielectric matrix)
  average eigenvalue GAMMA=   1.0791
  1.9909  0.9454  0.9454  0.8713  0.6423

 Free energy of the ion-electron system (eV)
  ---------------------------------------------------
  alpha Z        PSCENC =        30.58334069
  Ewald energy   TEWEN  =      -197.90100875
  -1/2 Hartree   DENC   =        -0.56138508
  -exchange  EXHF       =         0.00000000
  -V(xc)+E(xc)   XCENC  =       -65.99013770
  PAW double counting   =       188.39548916     -114.95220750
  entropy T*S    EENTRO =        -0.00012120
  eigenvalues    EBANDS =        17.91320114
  atomic energy  EATOM  =       130.64936373
  ---------------------------------------------------
  free energy    TOTEN  =       -11.86346551 eV

  energy without entropy =      -11.86334431  energy(sigma->0) =      -11.86342511


--------------------------------------------------------------------------------------------------------




----------------------------------------- Iteration    1(  11)  ---------------------------------------


    POTLOK:  cpu time    0.36: real time    0.37
    SETDIJ:  cpu time    0.08: real time    0.08
     EDDAV:  cpu time    2.42: real time    2.42
       DOS:  cpu time    0.00: real time    0.00
    CHARGE:  cpu time    0.27: real time    0.27
    MIXING:  cpu time    0.01: real time    0.01
    --------------------------------------------
      LOOP:  cpu time    3.14: real time    3.16

 eigenvalue-minimisations  :  1164
 total energy-change (2. order) :-0.7033467E-03  (-0.1984381E-03)
 number of electron       5.0000000 magnetization      -0.0091034
 augmentation part        0.4022055 magnetization      -0.0207623

 Broyden mixing:
  rms(total) = 0.71423E-02    rms(broyden)= 0.71422E-02
  rms(prec ) = 0.18878E-01
  weight for this iteration     100.00

 eigenvalues of (default mixing * dielectric matrix)
  average eigenvalue GAMMA=   1.2150
  1.9211  1.9211  1.0322  1.0322  0.6328  0.7505

 Free energy of the ion-electron system (eV)
  ---------------------------------------------------
  alpha Z        PSCENC =        30.58334069
  Ewald energy   TEWEN  =      -197.90100875
  -1/2 Hartree   DENC   =        -0.60268720
  -exchange  EXHF       =         0.00000000
  -V(xc)+E(xc)   XCENC  =       -66.01275285
  PAW double counting   =       190.65315615     -117.21339045
  entropy T*S    EENTRO =         0.00055247
  eigenvalues    EBANDS =        17.97925735
  atomic energy  EATOM  =       130.64936373
  ---------------------------------------------------
  free energy    TOTEN  =       -11.86416886 eV

  energy without entropy =      -11.86472133  energy(sigma->0) =      -11.86435302


--------------------------------------------------------------------------------------------------------




----------------------------------------- Iteration    1(  12)  ---------------------------------------


    POTLOK:  cpu time    0.36: real time    0.36
    SETDIJ:  cpu time    0.08: real time    0.08
     EDDAV:  cpu time    1.85: real time    1.85
       DOS:  cpu time    0.00: real time    0.00
    --------------------------------------------
      LOOP:  cpu time    2.30: real time    2.32

 eigenvalue-minimisations  :   774
 total energy-change (2. order) :-0.4901298E-04  (-0.1613093E-04)
 number of electron       5.0000000 magnetization      -0.0091034
 augmentation part        0.4022055 magnetization      -0.0207623

 Free energy of the ion-electron system (eV)
  ---------------------------------------------------
  alpha Z        PSCENC =        30.58334069
  Ewald energy   TEWEN  =      -197.90100875
  -1/2 Hartree   DENC   =        -0.59852572
  -exchange  EXHF       =         0.00000000
  -V(xc)+E(xc)   XCENC  =       -66.00860967
  PAW double counting   =       192.21947855     -118.78986226
  entropy T*S    EENTRO =         0.00059705
  eigenvalues    EBANDS =        17.98100850
  atomic energy  EATOM  =       130.64936373
  ---------------------------------------------------
  free energy    TOTEN  =       -11.86421787 eV

  energy without entropy =      -11.86481492  energy(sigma->0) =      -11.86441689


--------------------------------------------------------------------------------------------------------




 average (electrostatic) potential at core
  the test charge radii are     1.2538
  (the norm of the test charge is              1.0000)
       1 -35.0131
 
 
 
 E-fermi :   5.6758     XC(G=0): -12.3679     alpha+bet :-13.5035


 spin component 1

 k-point   1 :       0.0500    0.0500    0.0500
  band No.  band energies     occupation 
      1      -1.5454      1.00000
      2       6.0965      0.00000
      3       6.0965      0.00000
      4       7.2119      0.00000
      5       9.4488      0.00000
      6       9.4488      0.00000

 k-point   2 :       0.1500    0.0500    0.0500
  band No.  band energies     occupation 
      1      -0.4227      1.00000
      2       5.4228      1.00000
      3       5.6052      1.03135
      4       8.5612      0.00000
      5       9.1335      0.00000
      6       9.7173      0.00000

 k-point   3 :       0.2500    0.0500    0.0500
  band No.  band energies     occupation 
      1       0.9037      1.00000
      2       4.7654      1.00000
      3       5.3013      1.00000
      4       9.3531      0.00000
      5      10.0455      0.00000
      6      10.5339      0.00000

 k-point   4 :       0.3500    0.0500    0.0500
  band No.  band energies     occupation 
      1       1.5337      1.00000
      2       4.3155      1.00000
      3       6.1103      0.00000
      4       9.6759      0.00000
      5      10.4101      0.00000
      6      12.6696      0.00000

 k-point   5 :       0.4500    0.0500    0.0500
  band No.  band energies     occupation 
      1       1.5916      1.00000
      2       4.1575      1.00000
      3       6.9848      0.00000
      4       9.6573      0.00000
      5      10.5951      0.00000
      6      13.8158      0.00000

 k-point   6 :      -0.0500    0.0500    0.0500
  band No.  band energies     occupation 
      1      -1.9613      1.00000
      2       6.4154      0.00000
      3       6.4154      0.00000
      4       6.5528      0.00000
      5       9.3120      0.00000
      6       9.8094      0.00000

 k-point   7 :       0.1500    0.1500    0.0500
  band No.  band energies     occupation 
      1       0.8479      1.00000
      2       4.8751      1.00000
      3       4.9485      1.00000
      4       9.2091      0.00000
      5      10.0914      0.00000
      6      10.4579      0.00000

 k-point   8 :       0.2500    0.1500    0.0500
  band No.  band energies     occupation 
      1       2.0153      1.00000
      2       4.4036      1.00000
      3       4.9789      1.00000
      4       9.5109      0.00000
      5      10.4346      0.00000
      6      12.6834      0.00000

 k-point   9 :       0.3500    0.1500    0.0500
  band No.  band energies     occupation 
      1       2.2943      1.00000
      2       4.1895      1.00000
      3       5.9417      0.00000
      4       9.7632      0.00000
      5      10.6364      0.00000
      6      14.5359      0.00000

 k-point  10 :      -0.1500    0.1500    0.0500
  band No.  band energies     occupation 
      1      -1.1449      1.00000
      2       5.9612      0.00000
      3       6.1890      0.00000
      4       7.3658      0.00000
      5       8.6304      0.00000
      6       9.9925      0.00000

 k-point  11 :       0.2500    0.2500    0.0500
  band No.  band energies     occupation 
      1       2.9360      1.00000
      2       4.2964      1.00000
      3       5.0147      1.00000
      4       9.8257      0.00000
      5      10.5331      0.00000
      6      14.9656      0.00000

 k-point  12 :       0.3500    0.2500    0.0500
  band No.  band energies     occupation 
      1       3.1177      1.00000
      2       4.3809      1.00000
      3       5.2541      1.00000
      4      10.0651      0.00000
      5      10.5780      0.00000
      6      14.3886      0.00000

 k-point  13 :      -0.2500    0.2500    0.0500
  band No.  band energies     occupation 
      1       0.1768      1.00000
      2       5.2723      1.00000
      3       5.6151      1.03544
      4       8.6569      0.00000
      5       8.9794      0.00000
      6      10.1892      0.00000

 k-point  14 :      -0.1500    0.2500    0.0500
  band No.  band energies     occupation 
      1      -0.0626      1.00000
      2       5.6340      0.99868
      3       5.7066      0.07317
      4       8.0737      0.00000
      5       8.4854      0.00000
      6      10.3924      0.00000

 k-point  15 :      -0.3500    0.3500    0.0500
  band No.  band energies     occupation 
      1       1.2154      1.00000
      2       4.6775      1.00000
      3       5.6958      0.18948
      4       9.1906      0.00000
      5      10.4175      0.00000
      6      11.1157      0.00000

 k-point  16 :      -0.2500    0.3500    0.0500
  band No.  band energies     occupation 
      1       1.2413      1.00000
      2       4.9228      1.00000
      3       5.3557      1.00000
      4       8.3768      0.00000
      5      10.3133      0.00000
      6      10.6965      0.00000

 k-point  17 :      -0.4500    0.4500    0.0500
  band No.  band energies     occupation 
      1       1.4592      1.00000
      2       4.3452      1.00000
      3       6.6968      0.00000
      4       9.3496      0.00000
      5      10.7873      0.00000
      6      13.0638      0.00000

 k-point  18 :      -0.3500    0.4500    0.0500
  band No.  band energies     occupation 
      1       1.8988      1.00000
      2       4.6223      1.00000
      3       5.5991      1.02612
      4       8.9160      0.00000
      5      10.7315      0.00000
      6      12.7026      0.00000

 k-point  19 :      -0.2500    0.4500    0.0500
  band No.  band energies     occupation 
      1       2.3654      1.00000
      2       4.3259      1.00000
      3       5.3613      1.00000
      4       8.6841      0.00000
      5      10.4373      0.00000
      6      12.7733      0.00000

 k-point  20 :      -0.4500   -0.4500    0.0500
  band No.  band energies     occupation 
      1       1.9551      1.00000
      2       4.5212      1.00000
      3       6.0918      0.00000
      4       8.8696      0.00000
      5      11.2395      0.00000
      6      13.9547      0.00000

 k-point  21 :      -0.3500   -0.4500    0.0500
  band No.  band energies     occupation 
      1       2.8365      1.00000
      2       4.3848      1.00000
      3       5.2235      1.00000
      4       9.1532      0.00000
      5      10.6583      0.00000
      6      15.0632      0.00000

 k-point  22 :      -0.3500   -0.3500    0.0500
  band No.  band energies     occupation 
      1       3.4982      1.00000
      2       4.4807      1.00000
      3       4.4807      1.00000
      4      10.1166      0.00000
      5      10.1166      0.00000
      6      14.6795      0.00000

 k-point  23 :       0.1500    0.1500    0.1500
  band No.  band energies     occupation 
      1       2.2347      1.00000
      2       4.3908      1.00000
      3       4.3908      1.00000
      4      10.0589      0.00000
      5      10.0589      0.00000
      6      12.7911      0.00000

 k-point  24 :       0.2500    0.1500    0.1500
  band No.  band energies     occupation 
      1       3.1437      1.00000
      2       4.1449      1.00000
      3       4.7870      1.00000
      4      10.2260      0.00000
      5      10.5368      0.00000
      6      14.9769      0.00000

 k-point  25 :       0.3500    0.1500    0.1500
  band No.  band energies     occupation 
      1       3.1519      1.00000
      2       4.0730      1.00000
      3       5.6083      1.03345
      4      10.2862      0.00000
      5      10.6888      0.00000
      6      14.3748      0.00000

 k-point  26 :      -0.1500    0.1500    0.1500
  band No.  band energies     occupation 
      1      -0.3678      1.00000
      2       6.3725      0.00000
      3       6.3725      0.00000
      4       7.1721      0.00000
      5       7.3724      0.00000
      6      10.5888      0.00000

 k-point  27 :       0.2500    0.2500    0.1500
  band No.  band energies     occupation 
      1       3.7466      1.00000
      2       4.4068      1.00000
      3       4.8348      1.00000
      4      10.5398      0.00000
      5      10.6695      0.00000
      6      13.6662      0.00000

 k-point  28 :      -0.2500    0.2500    0.1500
  band No.  band energies     occupation 
      1       0.8948      1.00000
      2       5.5168      1.00003
      3       6.0145      0.00000
      4       7.2413      0.00000
      5       8.7330      0.00000
      6      10.7934      0.00000

 k-point  29 :      -0.3500    0.3500    0.1500
  band No.  band energies     occupation 
      1       1.9402      1.00000
      2       4.8900      1.00000
      3       5.5066      1.00001
      4       8.0452      0.00000
      5      10.8606      0.00000
      6      10.8975      0.00000

 k-point  30 :      -0.2500    0.3500    0.1500
  band No.  band energies     occupation 
      1       2.0645      1.00000
      2       4.5720      1.00000
      3       6.1480      0.00000
      4       7.5240      0.00000
      5       9.9901      0.00000
      6      10.9591      0.00000

 k-point  31 :      -0.4500    0.4500    0.1500
  band No.  band energies     occupation 
      1       2.1640      1.00000
      2       5.2079      1.00000
      3       5.2602      1.00000
      4       8.0197      0.00000
      5      11.9945      0.00000
      6      12.8610      0.00000

 k-point  32 :      -0.3500    0.4500    0.1500
  band No.  band energies     occupation 
      1       2.7704      1.00000
      2       4.1866      1.00000
      3       5.7489     -0.02927
      4       8.1581      0.00000
      5      10.7282      0.00000
      6      12.9174      0.00000

 k-point  33 :      -0.4500   -0.4500    0.1500
  band No.  band energies     occupation 
      1       2.7827      1.00000
      2       4.5647      1.00000
      3       5.3021      1.00000
      4       8.1526      0.00000
      5      11.7645      0.00000
      6      14.5716      0.00000

 k-point  34 :      -0.3500   -0.4500    0.1500
  band No.  band energies     occupation 
      1       3.6509      1.00000
      2       3.7120      1.00000
      3       4.9775      1.00000
      4       9.4217      0.00000
      5      10.5907      0.00000
      6      15.3762      0.00000

 k-point  35 :       0.2500    0.2500    0.2500
  band No.  band energies     occupation 
      1       4.4766      1.00000
      2       4.4766      1.00000
      3       4.4766      1.00000
      4      10.7481      0.00000
      5      10.7481      0.00000
      6      12.7506      0.00000

 k-point  36 :      -0.2500    0.2500    0.2500
  band No.  band energies     occupation 
      1       1.9713      1.00000
      2       4.7877      1.00000
      3       6.9620      0.00000
      4       6.9620      0.00000
      5       8.8918      0.00000
      6      10.6924      0.00000

 k-point  37 :      -0.3500    0.3500    0.2500
  band No.  band energies     occupation 
      1       2.7945      1.00000
      2       3.8579      1.00000
      3       7.0219      0.00000
      4       7.6124      0.00000
      5      10.5546      0.00000
      6      10.8413      0.00000

 k-point  38 :      -0.4500    0.4500    0.2500
  band No.  band energies     occupation 
      1       2.8301      1.00000
      2       3.7713      1.00000
      3       6.8517      0.00000
      4       7.4951      0.00000
      5      12.5509      0.00000
      6      12.8288      0.00000

 k-point  39 :      -0.3500    0.4500    0.2500
  band No.  band energies     occupation 
      1       3.1210      1.00000
      2       3.1836      1.00000
      3       6.8631      0.00000
      4       8.8402      0.00000
      5      10.8228      0.00000
      6      12.9348      0.00000

 k-point  40 :      -0.4500   -0.4500    0.2500
  band No.  band energies     occupation 
      1       2.9120      1.00000
      2       3.2360      1.00000
      3       6.5855      0.00000
      4       9.3559      0.00000
      5      11.6678      0.00000
      6      15.2766      0.00000

 k-point  41 :      -0.3500    0.3500    0.3500
  band No.  band energies     occupation 
      1       2.8982      1.00000
      2       2.9981      1.00000
      3       8.6192      0.00000
      4       8.6192      0.00000
      5      10.7767      0.00000
      6      10.9491      0.00000

 k-point  42 :      -0.4500    0.4500    0.3500
  band No.  band energies     occupation 
      1       2.5186      1.00000
      2       2.6810      1.00000
      3       9.0833      0.00000
      4       9.0910      0.00000
      5      12.2699      0.00000
      6      13.0754      0.00000

 k-point  43 :      -0.4500   -0.4500    0.3500
  band No.  band energies     occupation 
      1       2.3646      1.00000
      2       2.3646      1.00000
      3       9.0157      0.00000
      4      11.4455      0.00000
      5      11.4455      0.00000
      6      15.5847      0.00000

 k-point  44 :      -0.4500    0.4500    0.4500
  band No.  band energies     occupation 
      1       2.0627      1.00000
      2       2.1095      1.00000
      3      11.3491      0.00000
      4      11.3491      0.00000
      5      12.2590      0.00000
      6      13.5558      0.00000

 spin component 2

 k-point   1 :       0.0500    0.0500    0.0500
  band No.  band energies     occupation 
      1      -1.5508      1.00000
      2       6.0869      0.00000
      3       6.0869      0.00000
      4       7.2022      0.00000
      5       9.4471      0.00000
      6       9.4471      0.00000

 k-point   2 :       0.1500    0.0500    0.0500
  band No.  band energies     occupation 
      1      -0.4281      1.00000
      2       5.4135      1.00000
      3       5.5971      1.02427
      4       8.5519      0.00000
      5       9.1303      0.00000
      6       9.7150      0.00000

 k-point   3 :       0.2500    0.0500    0.0500
  band No.  band energies     occupation 
      1       0.8979      1.00000
      2       4.7562      1.00000
      3       5.2951      1.00000
      4       9.3485      0.00000
      5      10.0428      0.00000
      6      10.5250      0.00000

 k-point   4 :       0.3500    0.0500    0.0500
  band No.  band energies     occupation 
      1       1.5276      1.00000
      2       4.3064      1.00000
      3       6.1053      0.00000
      4       9.6709      0.00000
      5      10.4068      0.00000
      6      12.6616      0.00000

 k-point   5 :       0.4500    0.0500    0.0500
  band No.  band energies     occupation 
      1       1.5854      1.00000
      2       4.1484      1.00000
      3       6.9802      0.00000
      4       9.6525      0.00000
      5      10.5916      0.00000
      6      13.8085      0.00000

 k-point   6 :      -0.0500    0.0500    0.0500
  band No.  band energies     occupation 
      1      -1.9666      1.00000
      2       6.4056      0.00000
      3       6.4056      0.00000
      4       6.5429      0.00000
      5       9.3106      0.00000
      6       9.8080      0.00000

 k-point   7 :       0.1500    0.1500    0.0500
  band No.  band energies     occupation 
      1       0.8423      1.00000
      2       4.8676      1.00000
      3       4.9399      1.00000
      4       9.2053      0.00000
      5      10.0884      0.00000
      6      10.4491      0.00000

 k-point   8 :       0.2500    0.1500    0.0500
  band No.  band energies     occupation 
      1       2.0091      1.00000
      2       4.3956      1.00000
      3       4.9721      1.00000
      4       9.5063      0.00000
      5      10.4311      0.00000
      6      12.6756      0.00000

 k-point   9 :       0.3500    0.1500    0.0500
  band No.  band energies     occupation 
      1       2.2879      1.00000
      2       4.1810      1.00000
      3       5.9364      0.00000
      4       9.7584      0.00000
      5      10.6325      0.00000
      6      14.5295      0.00000

 k-point  10 :      -0.1500    0.1500    0.0500
  band No.  band energies     occupation 
      1      -1.1502      1.00000
      2       5.9516      0.00000
      3       6.1801      0.00000
      4       7.3561      0.00000
      5       8.6281      0.00000
      6       9.9907      0.00000

 k-point  11 :       0.2500    0.2500    0.0500
  band No.  band energies     occupation 
      1       2.9287      1.00000
      2       4.2903      1.00000
      3       5.0078      1.00000
      4       9.8208      0.00000
      5      10.5289      0.00000
      6      14.9596      0.00000

 k-point  12 :       0.3500    0.2500    0.0500
  band No.  band energies     occupation 
      1       3.1100      1.00000
      2       4.3743      1.00000
      3       5.2487      1.00000
      4      10.0603      0.00000
      5      10.5734      0.00000
      6      14.3796      0.00000

 k-point  13 :      -0.2500    0.2500    0.0500
  band No.  band energies     occupation 
      1       0.1713      1.00000
      2       5.2629      1.00000
      3       5.6086      1.03361
      4       8.6526      0.00000
      5       8.9701      0.00000
      6      10.1866      0.00000

 k-point  14 :      -0.1500    0.2500    0.0500
  band No.  band energies     occupation 
      1      -0.0680      1.00000
      2       5.6266      1.02344
      3       5.6973      0.17051
      4       8.0699      0.00000
      5       8.4760      0.00000
      6      10.3899      0.00000

 k-point  15 :      -0.3500    0.3500    0.0500
  band No.  band energies     occupation 
      1       1.2095      1.00000
      2       4.6682      1.00000
      3       5.6911      0.25396
      4       9.1853      0.00000
      5      10.4143      0.00000
      6      11.1069      0.00000

 k-point  16 :      -0.2500    0.3500    0.0500
  band No.  band energies     occupation 
      1       1.2357      1.00000
      2       4.9162      1.00000
      3       5.3479      1.00000
      4       8.3714      0.00000
      5      10.3055      0.00000
      6      10.6921      0.00000

 k-point  17 :      -0.4500    0.4500    0.0500
  band No.  band energies     occupation 
      1       1.4531      1.00000
      2       4.3360      1.00000
      3       6.6929      0.00000
      4       9.3446      0.00000
      5      10.7835      0.00000
      6      13.0558      0.00000

 k-point  18 :      -0.3500    0.4500    0.0500
  band No.  band energies     occupation 
      1       1.8929      1.00000
      2       4.6140      1.00000
      3       5.5944      1.02180
      4       8.9105      0.00000
      5      10.7268      0.00000
      6      12.6950      0.00000

 k-point  19 :      -0.2500    0.4500    0.0500
  band No.  band energies     occupation 
      1       2.3593      1.00000
      2       4.3209      1.00000
      3       5.3535      1.00000
      4       8.6781      0.00000
      5      10.4323      0.00000
      6      12.7661      0.00000

 k-point  20 :      -0.4500   -0.4500    0.0500
  band No.  band energies     occupation 
      1       1.9491      1.00000
      2       4.5124      1.00000
      3       6.0881      0.00000
      4       8.8646      0.00000
      5      11.2344      0.00000
      6      13.9477      0.00000

 k-point  21 :      -0.3500   -0.4500    0.0500
  band No.  band energies     occupation 
      1       2.8300      1.00000
      2       4.3788      1.00000
      3       5.2184      1.00000
      4       9.1472      0.00000
      5      10.6524      0.00000
      6      15.0569      0.00000

 k-point  22 :      -0.3500   -0.3500    0.0500
  band No.  band energies     occupation 
      1       3.4897      1.00000
      2       4.4765      1.00000
      3       4.4765      1.00000
      4      10.1102      0.00000
      5      10.1102      0.00000
      6      14.6712      0.00000

 k-point  23 :       0.1500    0.1500    0.1500
  band No.  band energies     occupation 
      1       2.2289      1.00000
      2       4.3829      1.00000
      3       4.3829      1.00000
      4      10.0553      0.00000
      5      10.0553      0.00000
      6      12.7833      0.00000

 k-point  24 :       0.2500    0.1500    0.1500
  band No.  band energies     occupation 
      1       3.1372      1.00000
      2       4.1367      1.00000
      3       4.7804      1.00000
      4      10.2219      0.00000
      5      10.5333      0.00000
      6      14.9706      0.00000

 k-point  25 :       0.3500    0.1500    0.1500
  band No.  band energies     occupation 
      1       3.1452      1.00000
      2       4.0646      1.00000
      3       5.6022      1.02892
      4      10.2820      0.00000
      5      10.6853      0.00000
      6      14.3655      0.00000

 k-point  26 :      -0.1500    0.1500    0.1500
  band No.  band energies     occupation 
      1      -0.3730      1.00000
      2       6.3631      0.00000
      3       6.3631      0.00000
      4       7.1702      0.00000
      5       7.3627      0.00000
      6      10.5864      0.00000

 k-point  27 :       0.2500    0.2500    0.1500
  band No.  band energies     occupation 
      1       3.7389      1.00000
      2       4.3998      1.00000
      3       4.8281      1.00000
      4      10.5359      0.00000
      5      10.6659      0.00000
      6      13.6566      0.00000

 k-point  28 :      -0.2500    0.2500    0.1500
  band No.  band energies     occupation 
      1       0.8897      1.00000
      2       5.5124      1.00002
      3       6.0053      0.00000
      4       7.2347      0.00000
      5       8.7236      0.00000
      6      10.7900      0.00000

 k-point  29 :      -0.3500    0.3500    0.1500
  band No.  band energies     occupation 
      1       1.9349      1.00000
      2       4.8867      1.00000
      3       5.4974      1.00000
      4       8.0387      0.00000
      5      10.8518      0.00000
      6      10.8928      0.00000

 k-point  30 :      -0.2500    0.3500    0.1500
  band No.  band energies     occupation 
      1       2.0595      1.00000
      2       4.5685      1.00000
      3       6.1394      0.00000
      4       7.5164      0.00000
      5       9.9821      0.00000
      6      10.9535      0.00000

 k-point  31 :      -0.4500    0.4500    0.1500
  band No.  band energies     occupation 
      1       2.1587      1.00000
      2       5.1988      1.00000
      3       5.2571      1.00000
      4       8.0142      0.00000
      5      11.9889      0.00000
      6      12.8530      0.00000

 k-point  32 :      -0.3500    0.4500    0.1500
  band No.  band energies     occupation 
      1       2.7655      1.00000
      2       4.1832      1.00000
      3       5.7411     -0.03456
      4       8.1510      0.00000
      5      10.7213      0.00000
      6      12.9100      0.00000

 k-point  33 :      -0.4500   -0.4500    0.1500
  band No.  band energies     occupation 
      1       2.7780      1.00000
      2       4.5617      1.00000
      3       5.2941      1.00000
      4       8.1457      0.00000
      5      11.7573      0.00000
      6      14.5649      0.00000

 k-point  34 :      -0.3500   -0.4500    0.1500
  band No.  band energies     occupation 
      1       3.6465      1.00000
      2       3.7088      1.00000
      3       4.9702      1.00000
      4       9.4141      0.00000
      5      10.5833      0.00000
      6      15.3692      0.00000

 k-point  35 :       0.2500    0.2500    0.2500
  band No.  band energies     occupation 
      1       4.4693      1.00000
      2       4.4693      1.00000
      3       4.4693      1.00000
      4      10.7446      0.00000
      5      10.7446      0.00000
      6      12.7407      0.00000

 k-point  36 :      -0.2500    0.2500    0.2500
  band No.  band energies     occupation 
      1       1.9668      1.00000
      2       4.7856      1.00000
      3       6.9530      0.00000
      4       6.9530      0.00000
      5       8.8825      0.00000
      6      10.6876      0.00000

 k-point  37 :      -0.3500    0.3500    0.2500
  band No.  band energies     occupation 
      1       2.7906      1.00000
      2       3.8554      1.00000
      3       7.0130      0.00000
      4       7.6044      0.00000
      5      10.5458      0.00000
      6      10.8351      0.00000

 k-point  38 :      -0.4500    0.4500    0.2500
  band No.  band energies     occupation 
      1       2.8267      1.00000
      2       3.7687      1.00000
      3       6.8427      0.00000
      4       7.4879      0.00000
      5      12.5428      0.00000
      6      12.8217      0.00000

 k-point  39 :      -0.3500    0.4500    0.2500
  band No.  band energies     occupation 
      1       3.1179      1.00000
      2       3.1812      1.00000
      3       6.8548      0.00000
      4       8.8318      0.00000
      5      10.8150      0.00000
      6      12.9272      0.00000

 k-point  40 :      -0.4500   -0.4500    0.2500
  band No.  band energies     occupation 
      1       2.9094      1.00000
      2       3.2335      1.00000
      3       6.5771      0.00000
      4       9.3477      0.00000
      5      11.6598      0.00000
      6      15.2689      0.00000

 k-point  41 :      -0.3500    0.3500    0.3500
  band No.  band energies     occupation 
      1       2.8953      1.00000
      2       2.9959      1.00000
      3       8.6106      0.00000
      4       8.6106      0.00000
      5      10.7680      0.00000
      6      10.9422      0.00000

 k-point  42 :      -0.4500    0.4500    0.3500
  band No.  band energies     occupation 
      1       2.5163      1.00000
      2       2.6786      1.00000
      3       9.0751      0.00000
      4       9.0823      0.00000
      5      12.2618      0.00000
      6      13.0675      0.00000

 k-point  43 :      -0.4500   -0.4500    0.3500
  band No.  band energies     occupation 
      1       2.3623      1.00000
      2       2.3623      1.00000
      3       9.0073      0.00000
      4      11.4372      0.00000
      5      11.4372      0.00000
      6      15.6380      0.00000

 k-point  44 :      -0.4500    0.4500    0.4500
  band No.  band energies     occupation 
      1       2.0605      1.00000
      2       2.1072      1.00000
      3      11.3408      0.00000
      4      11.3408      0.00000
      5      12.2510      0.00000
      6      13.5474      0.00000


--------------------------------------------------------------------------------------------------------


 soft charge-density along one line, spin component           1
         0         1         2         3         4         5         6         7         8         9
 total charge-density along one line
 
 soft charge-density along one line, spin component           2
         0         1         2         3         4         5         6         7         8         9
 total charge-density along one line
 
 pseudopotential strength for first ion, spin component:           1
 -6.574   0.000   0.003   0.000   0.002   0.090   0.000   0.000
  0.000  -6.572   0.000   0.003   0.000   0.000   0.090   0.000
  0.003   0.000  -6.571   0.000  -0.001   0.000   0.000   0.090
  0.000   0.003   0.000  -6.574   0.000   0.000   0.000   0.000
  0.002   0.000  -0.001   0.000  -6.570   0.000   0.000   0.000
  0.090   0.000   0.000   0.000   0.000   0.071   0.000   0.000
  0.000   0.090   0.000   0.000   0.000   0.000   0.071   0.000
  0.000   0.000   0.090   0.000   0.000   0.000   0.000   0.071
  0.000   0.000   0.000   0.090   0.000   0.000   0.000   0.000
  0.000   0.000   0.000   0.000   0.090   0.000   0.000   0.000
  0.000   0.000   0.000   0.000   0.000   0.000   0.000   0.000
  0.000   0.000   0.000   0.000   0.000   0.000   0.000   0.000
  0.000   0.000   0.000   0.000   0.000   0.000   0.000   0.000
  0.000   0.000   0.000   0.000   0.000   0.000   0.000   0.000
  0.000   0.000   0.000   0.000   0.000   0.000   0.000   0.000
  0.000   0.000   0.000   0.000   0.000   0.000   0.000   0.000
  0.000   0.000   0.000   0.000   0.000   0.000   0.000   0.000
  0.000   0.000   0.000   0.000   0.000   0.000   0.000   0.000
 pseudopotential strength for first ion, spin component:           2
 -6.574   0.000   0.003   0.000   0.001   0.090   0.000   0.000
  0.000  -6.572   0.000   0.003   0.000   0.000   0.090   0.000
  0.003   0.000  -6.572   0.000  -0.001   0.000   0.000   0.090
  0.000   0.003   0.000  -6.574   0.000   0.000   0.000   0.000
  0.001   0.000  -0.001   0.000  -6.571   0.000   0.000   0.000
  0.090   0.000   0.000   0.000   0.000   0.071   0.000   0.000
  0.000   0.090   0.000   0.000   0.000   0.000   0.071   0.000
  0.000   0.000   0.090   0.000   0.000   0.000   0.000   0.071
  0.000   0.000   0.000   0.090   0.000   0.000   0.000   0.000
  0.000   0.000   0.000   0.000   0.090   0.000   0.000   0.000
  0.000   0.000   0.000   0.000   0.000   0.000   0.000   0.000
  0.000   0.000   0.000   0.000   0.000   0.000   0.000   0.000
  0.000   0.000   0.000   0.000   0.000   0.000   0.000   0.000
  0.000   0.000   0.000   0.000   0.000   0.000   0.000   0.000
  0.000   0.000   0.000   0.000   0.000   0.000   0.000   0.000
  0.000   0.000   0.000   0.000   0.000   0.000   0.000   0.000
  0.000   0.000   0.000   0.000   0.000   0.000   0.000   0.000
  0.000   0.000   0.000   0.000   0.000   0.000   0.000   0.000
 total augmentation occupancy for first ion, spin component:           1
  0.641   0.000   0.079   0.000   0.046  -0.513   0.000  -0.019   0.000  -0.011   0.000   0.000   0.000   0.000   0.000   0.000
  0.000   0.705   0.000   0.091   0.000   0.000  -0.528   0.000  -0.022   0.000   0.000   0.000   0.000   0.000   0.000   0.000
  0.079   0.000   0.721   0.000  -0.028  -0.019   0.000  -0.532   0.000   0.007   0.000   0.000   0.000   0.000   0.000   0.000
  0.000   0.091   0.000   0.641   0.000   0.000  -0.022   0.000  -0.513   0.000   0.000   0.000   0.000   0.000   0.000   0.000
  0.046   0.000  -0.028   0.000   0.753  -0.011   0.000   0.007   0.000  -0.540   0.000   0.000   0.000   0.000   0.000   0.000
 -0.513   0.000  -0.019   0.000  -0.011   0.454   0.000  -0.014   0.000  -0.008   0.000   0.000   0.000   0.000   0.000   0.000
  0.000  -0.528   0.000  -0.022   0.000   0.000   0.443   0.000  -0.017   0.000   0.000   0.000   0.000   0.000   0.000   0.000
 -0.019   0.000  -0.532   0.000   0.007  -0.014   0.000   0.440   0.000   0.005   0.000   0.000   0.000   0.000   0.000   0.000
  0.000  -0.022   0.000  -0.513   0.000   0.000  -0.017   0.000   0.454   0.000   0.000   0.000   0.000   0.000   0.000   0.000
 -0.011   0.000   0.007   0.000  -0.540  -0.008   0.000   0.005   0.000   0.434   0.000   0.000   0.000   0.000   0.000   0.000
  0.000   0.000   0.000   0.000   0.000   0.000   0.000   0.000   0.000   0.000   1.403  -0.275   0.000   0.000   0.000   0.000
  0.000   0.000   0.000   0.000   0.000   0.000   0.000   0.000   0.000   0.000  -0.275   0.058   0.000   0.000   0.000   0.000
  0.000   0.000   0.000   0.000   0.000   0.000   0.000   0.000   0.000   0.000   0.000   0.000   0.300   0.000   0.000   0.011
  0.000   0.000   0.000   0.000   0.000   0.000   0.000   0.000   0.000   0.000   0.000   0.000   0.000   0.300   0.000   0.000
  0.000   0.000   0.000   0.000   0.000   0.000   0.000   0.000   0.000   0.000   0.000   0.000   0.000   0.000   0.300   0.000
  0.000   0.000   0.000   0.000   0.000   0.000   0.000   0.000   0.000   0.000   0.000   0.000   0.011   0.000   0.000   0.000
  0.000   0.000   0.000   0.000   0.000   0.000   0.000   0.000   0.000   0.000   0.000   0.000   0.000   0.011   0.000   0.000
  0.000   0.000   0.000   0.000   0.000   0.000   0.000   0.000   0.000   0.000   0.000   0.000   0.000   0.000   0.011   0.000
 total augmentation occupancy for first ion, spin component:           2
  0.002   0.000   0.000   0.000   0.000  -0.001   0.000   0.000   0.000   0.000   0.000   0.000   0.000   0.000   0.000   0.000
  0.000   0.002   0.000   0.000   0.000   0.000  -0.002   0.000   0.000   0.000   0.000   0.000   0.000   0.000   0.000   0.000
  0.000   0.000   0.002   0.000   0.000   0.000   0.000  -0.002   0.000   0.000   0.000   0.000   0.000   0.000   0.000   0.000
  0.000   0.000   0.000   0.002   0.000   0.000   0.000   0.000  -0.001   0.000   0.000   0.000   0.000   0.000   0.000   0.000
  0.000   0.000   0.000   0.000   0.002   0.000   0.000   0.000   0.000  -0.002   0.000   0.000   0.000   0.000   0.000   0.000
 -0.001   0.000   0.000   0.000   0.000   0.002   0.000   0.000   0.000   0.000   0.000   0.000   0.000   0.000   0.000   0.000
  0.000  -0.002   0.000   0.000   0.000   0.000   0.002   0.000   0.000   0.000   0.000   0.000   0.000   0.000   0.000   0.000
  0.000   0.000  -0.002   0.000   0.000   0.000   0.000   0.002   0.000   0.000   0.000   0.000   0.000   0.000   0.000   0.000
  0.000   0.000   0.000  -0.001   0.000   0.000   0.000   0.000   0.002   0.000   0.000   0.000   0.000   0.000   0.000   0.000
  0.000   0.000   0.000   0.000  -0.002   0.000   0.000   0.000   0.000   0.002   0.000   0.000   0.000   0.000   0.000   0.000
  0.000   0.000   0.000   0.000   0.000   0.000   0.000   0.000   0.000   0.000   0.002   0.003   0.000   0.000   0.000   0.000
  0.000   0.000   0.000   0.000   0.000   0.000   0.000   0.000   0.000   0.000   0.003  -0.001   0.000   0.000   0.000   0.000
  0.000   0.000   0.000   0.000   0.000   0.000   0.000   0.000   0.000   0.000   0.000   0.000   0.001   0.000   0.000   0.000
  0.000   0.000   0.000   0.000   0.000   0.000   0.000   0.000   0.000   0.000   0.000   0.000   0.000   0.001   0.000   0.000
  0.000   0.000   0.000   0.000   0.000   0.000   0.000   0.000   0.000   0.000   0.000   0.000   0.000   0.000   0.001   0.000
  0.000   0.000   0.000   0.000   0.000   0.000   0.000   0.000   0.000   0.000   0.000   0.000   0.000   0.000   0.000   0.000
  0.000   0.000   0.000   0.000   0.000   0.000   0.000   0.000   0.000   0.000   0.000   0.000   0.000   0.000   0.000   0.000
  0.000   0.000   0.000   0.000   0.000   0.000   0.000   0.000   0.000   0.000   0.000   0.000   0.000   0.000   0.000   0.000


------------------------ aborting loop because EDIFF is reached ----------------------------------------


 


 total charge     
 
# of ion     s       p       d       tot
----------------------------------------
  1        0.708   0.695   3.342   4.745
 


 magnetization (x)
 
# of ion     s       p       d       tot
----------------------------------------
  1        0.000  -0.001  -0.003  -0.004
 
    CHARGE:  cpu time    0.27: real time    0.27
    FORLOC:  cpu time    0.01: real time    0.01
    FORNL :  cpu time    0.53: real time    0.53
    STRESS:  cpu time    0.99: real time    0.99
    FORCOR:  cpu time    0.36: real time    0.36
    FORHAR:  cpu time    0.04: real time    0.04
    MIXING:  cpu time    0.01: real time    0.01

  FORCE on cell =-STRESS in cart. coord.  units (eV):
  Direction    XX          YY          ZZ          XY          YZ          ZX
  --------------------------------------------------------------------------------------
  Alpha Z    30.58334    30.58334    30.58334
  Ewald     -65.96700   -65.96700   -65.96700     0.00000     0.00000     0.00000
  Hartree     0.19548     0.19548     0.19548     0.00000     0.00000     0.00000
  E(xc)     -22.46315   -22.46315   -22.46315     0.00000     0.00000     0.00000
  Local       3.85446     3.85446     3.85446     0.00000     0.00000     0.00000
  n-local    -8.04278    -8.65469    -5.44940     1.72761    -2.23609    -1.69518
  augment     2.91675     2.91675     2.91675     0.00000     0.00000     0.00000
  Kinetic    59.79031    59.98119    54.63203    -0.49100     2.92086     1.79853
  Fock        0.00000     0.00000     0.00000     0.00000     0.00000     0.00000
  -------------------------------------------------------------------------------------
  Total      -0.12790    -0.12790    -0.12790     0.00000     0.00000     0.00000
  in kB     -11.30143   -11.30143   -11.30143     0.00000     0.00000     0.00000
  external pressure =      -11.30 kB  Pullay stress =        0.00 kB


 VOLUME and BASIS-vectors are now :
 -----------------------------------------------------------------------------
  energy-cutoff  :      500.00
  volume of cell :       18.13
      direct lattice vectors                 reciprocal lattice vectors
     2.866544087  0.000000000  0.000000000     0.348852126  0.123337852  0.213627426
    -0.955514696  2.702603683  0.000000000     0.000000000  0.370013556  0.213627426
    -0.955514696 -1.351301841  2.340523446     0.000000000  0.000000000  0.427254853

  length of vectors
     2.866544087  2.866544087  2.866544087     0.427254853  0.427254853  0.427254853


 FORCES acting on ions
    electron-ion (+dipol)            ewald-force                    non-local-force                 convergence-correction
 -----------------------------------------------------------------------------------------------
   -.212E-14 -.376E-15 -.258E-14   -.279E-15 -.214E-15 0.640E-15   0.496E-23 0.331E-23 0.000E+00   -.263E-15 -.682E-16 -.110E-15
 -----------------------------------------------------------------------------------------------
   -.212E-14 -.376E-15 -.258E-14   -.279E-15 -.214E-15 0.640E-15   0.496E-23 0.331E-23 0.000E+00   -.263E-15 -.682E-16 -.110E-15
 
 
 POSITION                                       TOTAL-FORCE (eV/Angst)
 -----------------------------------------------------------------------------------
      0.00000      0.00000      0.00000         0.000000      0.000000      0.000000
 -----------------------------------------------------------------------------------
    total drift:                                0.000000      0.000000      0.000000


--------------------------------------------------------------------------------------------------------



  FREE ENERGIE OF THE ION-ELECTRON SYSTEM (eV)
  ---------------------------------------------------
  free  energy   TOTEN  =       -11.864218 eV

  energy  without entropy=      -11.864815  energy(sigma->0) =      -11.864417
 


--------------------------------------------------------------------------------------------------------


    POTLOK:  cpu time    0.45: real time    0.45


--------------------------------------------------------------------------------------------------------


 writing wavefunctions
     LOOP+:  cpu time   38.66: real time   39.01
    4ORBIT:  cpu time    0.00: real time    0.00
 


 total charge     
 
# of ion     s       p       d       tot
----------------------------------------
  1        0.708   0.695   3.342   4.745
 


 magnetization (x)
 
# of ion     s       p       d       tot
----------------------------------------
  1        0.000  -0.001  -0.003  -0.004
 

 total amount of memory used by VASP on root node    50399. kBytes
========================================================================

   base      :      30000. kBytes
   nonl-proj :       2985. kBytes
   fftplans  :       3916. kBytes
   grid      :       9345. kBytes
   one-center:         31. kBytes
   wavefun   :       4122. kBytes
 
  
  
 General timing and accounting informations for this job:
 ========================================================
  
                  Total CPU time used (sec):       39.555
                            User time (sec):       39.413
                          System time (sec):        0.142
                         Elapsed time (sec):       40.131
  
                   Maximum memory used (kb):           0.
                   Average memory used (kb):           0.
  
                          Minor page faults:        14652
                          Major page faults:            0
                 Voluntary context switches:          693
