PROCAR lm decomposed
# of k-points:   44         # of bands:   6         # of ions:   1

 k-point    1 :    0.05000000 0.05000000 0.05000000     weight = 0.00800000

band   1 # energy   -1.54543116 # occ.  1.00000000
 
ion      s     py     pz     px    dxy    dyz    dz2    dxz    dx2    tot
  1  0.815  0.011  0.032  0.005  0.000  0.002  0.001  0.001  0.000  0.866
 
band   2 # energy    6.09646159 # occ.  0.00000000
 
ion      s     py     pz     px    dxy    dyz    dz2    dxz    dx2    tot
  1  0.000  0.004  0.000  0.002  0.184  0.077  0.121  0.004  0.640  1.033
 
band   3 # energy    6.09646159 # occ.  0.00000000
 
ion      s     py     pz     px    dxy    dyz    dz2    dxz    dx2    tot
  1  0.000  0.001  0.002  0.004  0.011  0.153  0.475  0.118  0.269  1.033
 
band   4 # energy    7.21188639 # occ.  0.00000000
 
ion      s     py     pz     px    dxy    dyz    dz2    dxz    dx2    tot
  1  0.000  0.005  0.015  0.003  0.074  0.447  0.251  0.223  0.009  1.029
 
band   5 # energy    9.44883272 # occ.  0.00000000
 
ion      s     py     pz     px    dxy    dyz    dz2    dxz    dx2    tot
  1  0.000  0.000  0.000  0.000  0.077  0.252  0.010  0.565  0.003  0.907
 
band   6 # energy    9.44883272 # occ.  0.00000000
 
ion      s     py     pz     px    dxy    dyz    dz2    dxz    dx2    tot
  1  0.000  0.000  0.000  0.000  0.607  0.048  0.122  0.027  0.102  0.907
 

 k-point    2 :    0.15000000 0.05000000 0.05000000     weight = 0.02400000

band   1 # energy   -0.42270663 # occ.  1.00000000
 
ion      s     py     pz     px    dxy    dyz    dz2    dxz    dx2    tot
  1  0.733  0.020  0.061  0.039  0.006  0.009  0.001  0.017  0.002  0.888
 
band   2 # energy    5.42277158 # occ.  1.00000000
 
ion      s     py     pz     px    dxy    dyz    dz2    dxz    dx2    tot
  1  0.000  0.007  0.002  0.000  0.156  0.201  0.453  0.052  0.151  1.023
 
band   3 # energy    5.60521333 # occ.  1.03134515
 
ion      s     py     pz     px    dxy    dyz    dz2    dxz    dx2    tot
  1  0.003  0.001  0.002  0.049  0.071  0.022  0.102  0.213  0.523  0.985
 
band   4 # energy    8.56119394 # occ.  0.00000000
 
ion      s     py     pz     px    dxy    dyz    dz2    dxz    dx2    tot
  1  0.002  0.015  0.046  0.001  0.075  0.253  0.273  0.225  0.105  0.995
 
band   5 # energy    9.13353674 # occ.  0.00000000
 
ion      s     py     pz     px    dxy    dyz    dz2    dxz    dx2    tot
  1  0.000  0.000  0.001  0.001  0.069  0.429  0.036  0.206  0.182  0.924
 
band   6 # energy    9.71726980 # occ.  0.00000000
 
ion      s     py     pz     px    dxy    dyz    dz2    dxz    dx2    tot
  1  0.000  0.001  0.000  0.000  0.569  0.039  0.087  0.190  0.029  0.915
 

 k-point    3 :    0.25000000 0.05000000 0.05000000     weight = 0.02400000

band   1 # energy    0.90366852 # occ.  1.00000000
 
ion      s     py     pz     px    dxy    dyz    dz2    dxz    dx2    tot
  1  0.568  0.024  0.072  0.052  0.037  0.023  0.000  0.111  0.038  0.925
 
band   2 # energy    4.76537768 # occ.  1.00000000
 
ion      s     py     pz     px    dxy    dyz    dz2    dxz    dx2    tot
  1  0.000  0.009  0.003  0.000  0.177  0.195  0.438  0.059  0.146  1.027
 
band   3 # energy    5.30134946 # occ.  1.00000000
 
ion      s     py     pz     px    dxy    dyz    dz2    dxz    dx2    tot
  1  0.036  0.010  0.030  0.171  0.078  0.001  0.085  0.235  0.289  0.937
 
band   4 # energy    9.35307412 # occ.  0.00000000
 
ion      s     py     pz     px    dxy    dyz    dz2    dxz    dx2    tot
  1  0.004  0.000  0.000  0.009  0.062  0.352  0.003  0.186  0.340  0.957
 
band   5 # energy   10.04551775 # occ.  0.00000000
 
ion      s     py     pz     px    dxy    dyz    dz2    dxz    dx2    tot
  1  0.000  0.002  0.001  0.000  0.554  0.047  0.105  0.185  0.035  0.928
 
band   6 # energy   10.53387227 # occ.  0.00000000
 
ion      s     py     pz     px    dxy    dyz    dz2    dxz    dx2    tot
  1  0.001  0.026  0.079  0.002  0.036  0.318  0.307  0.107  0.095  0.971
 

 k-point    4 :    0.35000000 0.05000000 0.05000000     weight = 0.02400000

band   1 # energy    1.53370439 # occ.  1.00000000
 
ion      s     py     pz     px    dxy    dyz    dz2    dxz    dx2    tot
  1  0.353  0.012  0.037  0.008  0.099  0.028  0.008  0.297  0.119  0.962
 
band   2 # energy    4.31552271 # occ.  1.00000000
 
ion      s     py     pz     px    dxy    dyz    dz2    dxz    dx2    tot
  1  0.000  0.011  0.004  0.000  0.213  0.184  0.413  0.071  0.138  1.034
 
band   3 # energy    6.11027415 # occ.  0.00000000
 
ion      s     py     pz     px    dxy    dyz    dz2    dxz    dx2    tot
  1  0.069  0.039  0.118  0.396  0.025  0.011  0.065  0.075  0.104  0.902
 
band   4 # energy    9.67588986 # occ.  0.00000000
 
ion      s     py     pz     px    dxy    dyz    dz2    dxz    dx2    tot
  1  0.024  0.001  0.004  0.024  0.052  0.416  0.014  0.156  0.288  0.981
 
band   5 # energy   10.41006814 # occ.  0.00000000
 
ion      s     py     pz     px    dxy    dyz    dz2    dxz    dx2    tot
  1  0.000  0.001  0.000  0.000  0.532  0.062  0.140  0.177  0.047  0.960
 
band   6 # energy   12.66957397 # occ.  0.00000000
 
ion      s     py     pz     px    dxy    dyz    dz2    dxz    dx2    tot
  1  0.000  0.025  0.076  0.007  0.032  0.216  0.318  0.096  0.194  0.964
 

 k-point    5 :    0.45000000 0.05000000 0.05000000     weight = 0.01200000

band   1 # energy    1.59160077 # occ.  1.00000000
 
ion      s     py     pz     px    dxy    dyz    dz2    dxz    dx2    tot
  1  0.278  0.003  0.009  0.006  0.122  0.026  0.014  0.367  0.149  0.973
 
band   2 # energy    4.15750275 # occ.  1.00000000
 
ion      s     py     pz     px    dxy    dyz    dz2    dxz    dx2    tot
  1  0.000  0.011  0.004  0.000  0.255  0.170  0.383  0.085  0.128  1.037
 
band   3 # energy    6.98478852 # occ.  0.00000000
 
ion      s     py     pz     px    dxy    dyz    dz2    dxz    dx2    tot
  1  0.000  0.067  0.200  0.534  0.002  0.014  0.032  0.007  0.029  0.886
 
band   4 # energy    9.65732032 # occ.  0.00000000
 
ion      s     py     pz     px    dxy    dyz    dz2    dxz    dx2    tot
  1  0.074  0.000  0.000  0.000  0.058  0.462  0.045  0.173  0.175  0.986
 
band   5 # energy   10.59512650 # occ.  0.00000000
 
ion      s     py     pz     px    dxy    dyz    dz2    dxz    dx2    tot
  1  0.000  0.000  0.000  0.000  0.491  0.082  0.184  0.164  0.061  0.983
 
band   6 # energy   13.81579662 # occ.  0.00000000
 
ion      s     py     pz     px    dxy    dyz    dz2    dxz    dx2    tot
  1  0.000  0.005  0.015  0.040  0.025  0.153  0.344  0.076  0.319  0.977
 

 k-point    6 :   -0.05000000 0.05000000 0.05000000     weight = 0.00600000

band   1 # energy   -1.96125299 # occ.  1.00000000
 
ion      s     py     pz     px    dxy    dyz    dz2    dxz    dx2    tot
  1  0.841  0.003  0.008  0.006  0.000  0.000  0.000  0.000  0.000  0.858
 
band   2 # energy    6.41543395 # occ.  0.00000000
 
ion      s     py     pz     px    dxy    dyz    dz2    dxz    dx2    tot
  1  0.000  0.004  0.001  0.000  0.260  0.173  0.390  0.087  0.130  1.044
 
band   3 # energy    6.41543439 # occ.  0.00000000
 
ion      s     py     pz     px    dxy    dyz    dz2    dxz    dx2    tot
  1  0.000  0.000  0.001  0.004  0.029  0.173  0.390  0.087  0.361  1.044
 
band   4 # energy    6.55275114 # occ.  0.00000000
 
ion      s     py     pz     px    dxy    dyz    dz2    dxz    dx2    tot
  1  0.000  0.000  0.000  0.000  0.058  0.349  0.000  0.174  0.465  1.046
 
band   5 # energy    9.31201668 # occ.  0.00000000
 
ion      s     py     pz     px    dxy    dyz    dz2    dxz    dx2    tot
  1  0.000  0.000  0.000  0.000  0.449  0.075  0.168  0.150  0.056  0.898
 
band   6 # energy    9.80941003 # occ.  0.00000000
 
ion      s     py     pz     px    dxy    dyz    dz2    dxz    dx2    tot
  1  0.000  0.000  0.000  0.000  0.154  0.231  0.058  0.462  0.019  0.925
 

 k-point    7 :    0.15000000 0.15000000 0.05000000     weight = 0.02400000

band   1 # energy    0.84787338 # occ.  1.00000000
 
ion      s     py     pz     px    dxy    dyz    dz2    dxz    dx2    tot
  1  0.623  0.064  0.090  0.032  0.011  0.060  0.000  0.030  0.001  0.912
 
band   2 # energy    4.87512493 # occ.  1.00000000
 
ion      s     py     pz     px    dxy    dyz    dz2    dxz    dx2    tot
  1  0.000  0.023  0.000  0.046  0.083  0.053  0.000  0.106  0.663  0.975
 
band   3 # energy    4.94852282 # occ.  1.00000000
 
ion      s     py     pz     px    dxy    dyz    dz2    dxz    dx2    tot
  1  0.006  0.035  0.000  0.018  0.039  0.230  0.561  0.115  0.005  1.007
 
band   4 # energy    9.20911047 # occ.  0.00000000
 
ion      s     py     pz     px    dxy    dyz    dz2    dxz    dx2    tot
  1  0.000  0.000  0.000  0.001  0.024  0.238  0.000  0.476  0.191  0.930
 
band   5 # energy   10.09139303 # occ.  0.00000000
 
ion      s     py     pz     px    dxy    dyz    dz2    dxz    dx2    tot
  1  0.004  0.001  0.000  0.000  0.726  0.021  0.095  0.010  0.091  0.948
 
band   6 # energy   10.45794277 # occ.  0.00000000
 
ion      s     py     pz     px    dxy    dyz    dz2    dxz    dx2    tot
  1  0.004  0.029  0.093  0.014  0.078  0.308  0.284  0.154  0.010  0.973
 

 k-point    8 :    0.25000000 0.15000000 0.05000000     weight = 0.04800000

band   1 # energy    2.01525162 # occ.  1.00000000
 
ion      s     py     pz     px    dxy    dyz    dz2    dxz    dx2    tot
  1  0.421  0.056  0.089  0.018  0.046  0.093  0.015  0.182  0.027  0.947
 
band   2 # energy    4.40360038 # occ.  1.00000000
 
ion      s     py     pz     px    dxy    dyz    dz2    dxz    dx2    tot
  1  0.000  0.049  0.004  0.024  0.175  0.227  0.224  0.001  0.296  0.999
 
band   3 # energy    4.97890295 # occ.  1.00000000
 
ion      s     py     pz     px    dxy    dyz    dz2    dxz    dx2    tot
  1  0.047  0.031  0.026  0.197  0.006  0.005  0.277  0.176  0.191  0.957
 
band   4 # energy    9.51085592 # occ.  0.00000000
 
ion      s     py     pz     px    dxy    dyz    dz2    dxz    dx2    tot
  1  0.003  0.000  0.000  0.009  0.004  0.311  0.000  0.358  0.265  0.950
 
band   5 # energy   10.43455084 # occ.  0.00000000
 
ion      s     py     pz     px    dxy    dyz    dz2    dxz    dx2    tot
  1  0.014  0.000  0.000  0.000  0.641  0.009  0.190  0.050  0.069  0.974
 
band   6 # energy   12.68336188 # occ.  0.00000000
 
ion      s     py     pz     px    dxy    dyz    dz2    dxz    dx2    tot
  1  0.002  0.054  0.121  0.028  0.104  0.247  0.243  0.101  0.057  0.957
 

 k-point    9 :    0.35000000 0.15000000 0.05000000     weight = 0.04800000

band   1 # energy    2.29434844 # occ.  1.00000000
 
ion      s     py     pz     px    dxy    dyz    dz2    dxz    dx2    tot
  1  0.250  0.031  0.041  0.004  0.072  0.072  0.037  0.360  0.107  0.972
 
band   2 # energy    4.18954330 # occ.  1.00000000
 
ion      s     py     pz     px    dxy    dyz    dz2    dxz    dx2    tot
  1  0.000  0.060  0.003  0.007  0.249  0.215  0.312  0.017  0.153  1.017
 
band   3 # energy    5.94166703 # occ.  0.00000000
 
ion      s     py     pz     px    dxy    dyz    dz2    dxz    dx2    tot
  1  0.025  0.051  0.118  0.389  0.038  0.043  0.080  0.022  0.149  0.915
 
band   4 # energy    9.76318625 # occ.  0.00000000
 
ion      s     py     pz     px    dxy    dyz    dz2    dxz    dx2    tot
  1  0.041  0.000  0.001  0.009  0.021  0.356  0.033  0.256  0.252  0.969
 
band   5 # energy   10.63640661 # occ.  0.00000000
 
ion      s     py     pz     px    dxy    dyz    dz2    dxz    dx2    tot
  1  0.009  0.002  0.002  0.013  0.495  0.011  0.292  0.148  0.012  0.983
 
band   6 # energy   14.53592911 # occ.  0.00000000
 
ion      s     py     pz     px    dxy    dyz    dz2    dxz    dx2    tot
  1  0.000  0.043  0.092  0.072  0.089  0.178  0.227  0.052  0.194  0.947
 

 k-point   10 :   -0.15000000 0.15000000 0.05000000     weight = 0.02400000

band   1 # energy   -1.14487443 # occ.  1.00000000
 
ion      s     py     pz     px    dxy    dyz    dz2    dxz    dx2    tot
  1  0.787  0.023  0.008  0.045  0.005  0.001  0.002  0.001  0.001  0.873
 
band   2 # energy    5.96123379 # occ.  0.00000000
 
ion      s     py     pz     px    dxy    dyz    dz2    dxz    dx2    tot
  1  0.000  0.003  0.000  0.002  0.002  0.675  0.000  0.337  0.015  1.033
 
band   3 # energy    6.18901142 # occ.  0.00000000
 
ion      s     py     pz     px    dxy    dyz    dz2    dxz    dx2    tot
  1  0.001  0.011  0.002  0.021  0.415  0.001  0.503  0.001  0.052  1.006
 
band   4 # energy    7.36582607 # occ.  0.00000000
 
ion      s     py     pz     px    dxy    dyz    dz2    dxz    dx2    tot
  1  0.000  0.013  0.000  0.007  0.109  0.013  0.000  0.006  0.872  1.021
 
band   5 # energy    8.63039135 # occ.  0.00000000
 
ion      s     py     pz     px    dxy    dyz    dz2    dxz    dx2    tot
  1  0.000  0.000  0.000  0.000  0.276  0.056  0.403  0.112  0.035  0.883
 
band   6 # energy    9.99251570 # occ.  0.00000000
 
ion      s     py     pz     px    dxy    dyz    dz2    dxz    dx2    tot
  1  0.002  0.000  0.002  0.000  0.092  0.247  0.081  0.494  0.012  0.929
 

 k-point   11 :    0.25000000 0.25000000 0.05000000     weight = 0.02400000

band   1 # energy    2.93596684 # occ.  1.00000000
 
ion      s     py     pz     px    dxy    dyz    dz2    dxz    dx2    tot
  1  0.239  0.015  0.085  0.007  0.002  0.343  0.122  0.171  0.000  0.984
 
band   2 # energy    4.29642646 # occ.  1.00000000
 
ion      s     py     pz     px    dxy    dyz    dz2    dxz    dx2    tot
  1  0.000  0.069  0.000  0.138  0.059  0.072  0.000  0.143  0.475  0.957
 
band   3 # energy    5.01465582 # occ.  1.00000000
 
ion      s     py     pz     px    dxy    dyz    dz2    dxz    dx2    tot
  1  0.042  0.187  0.053  0.093  0.227  0.017  0.306  0.009  0.028  0.963
 
band   4 # energy    9.82568176 # occ.  0.00000000
 
ion      s     py     pz     px    dxy    dyz    dz2    dxz    dx2    tot
  1  0.000  0.004  0.000  0.009  0.030  0.223  0.000  0.446  0.243  0.956
 
band   5 # energy   10.53308426 # occ.  0.00000000
 
ion      s     py     pz     px    dxy    dyz    dz2    dxz    dx2    tot
  1  0.042  0.003  0.000  0.001  0.473  0.030  0.362  0.015  0.059  0.985
 
band   6 # energy   14.96561877 # occ.  0.00000000
 
ion      s     py     pz     px    dxy    dyz    dz2    dxz    dx2    tot
  1  0.001  0.103  0.131  0.051  0.205  0.160  0.182  0.080  0.026  0.939
 

 k-point   12 :    0.35000000 0.25000000 0.05000000     weight = 0.02400000

band   1 # energy    3.11774300 # occ.  1.00000000
 
ion      s     py     pz     px    dxy    dyz    dz2    dxz    dx2    tot
  1  0.162  0.005  0.038  0.021  0.001  0.238  0.152  0.339  0.044  0.998
 
band   2 # energy    4.38088644 # occ.  1.00000000
 
ion      s     py     pz     px    dxy    dyz    dz2    dxz    dx2    tot
  1  0.001  0.187  0.004  0.037  0.338  0.093  0.117  0.034  0.159  0.969
 
band   3 # energy    5.25412285 # occ.  1.00000000
 
ion      s     py     pz     px    dxy    dyz    dz2    dxz    dx2    tot
  1  0.000  0.037  0.111  0.295  0.134  0.122  0.038  0.000  0.194  0.930
 
band   4 # energy   10.06512612 # occ.  0.00000000
 
ion      s     py     pz     px    dxy    dyz    dz2    dxz    dx2    tot
  1  0.024  0.009  0.001  0.002  0.015  0.303  0.132  0.250  0.230  0.965
 
band   5 # energy   10.57802542 # occ.  0.00000000
 
ion      s     py     pz     px    dxy    dyz    dz2    dxz    dx2    tot
  1  0.000  0.003  0.008  0.021  0.308  0.007  0.403  0.230  0.000  0.980
 
band   6 # energy   14.38857061 # occ.  0.00000000
 
ion      s     py     pz     px    dxy    dyz    dz2    dxz    dx2    tot
  1  0.678  0.000  0.040  0.017  0.000  0.093  0.012  0.037  0.035  0.912
 

 k-point   13 :   -0.25000000 0.25000000 0.05000000     weight = 0.02400000

band   1 # energy    0.17680376 # occ.  1.00000000
 
ion      s     py     pz     px    dxy    dyz    dz2    dxz    dx2    tot
  1  0.665  0.045  0.008  0.090  0.059  0.001  0.025  0.002  0.007  0.904
 
band   2 # energy    5.27232595 # occ.  1.00000000
 
ion      s     py     pz     px    dxy    dyz    dz2    dxz    dx2    tot
  1  0.000  0.003  0.000  0.002  0.000  0.680  0.000  0.340  0.003  1.028
 
band   3 # energy    5.61509671 # occ.  1.03543917
 
ion      s     py     pz     px    dxy    dyz    dz2    dxz    dx2    tot
  1  0.016  0.042  0.001  0.085  0.538  0.005  0.173  0.011  0.067  0.938
 
band   4 # energy    8.65687035 # occ.  0.00000000
 
ion      s     py     pz     px    dxy    dyz    dz2    dxz    dx2    tot
  1  0.000  0.005  0.000  0.010  0.099  0.047  0.656  0.093  0.012  0.922
 
band   5 # energy    8.97944149 # occ.  0.00000000
 
ion      s     py     pz     px    dxy    dyz    dz2    dxz    dx2    tot
  1  0.000  0.032  0.000  0.016  0.103  0.004  0.000  0.002  0.827  0.985
 
band   6 # energy   10.18917344 # occ.  0.00000000
 
ion      s     py     pz     px    dxy    dyz    dz2    dxz    dx2    tot
  1  0.007  0.000  0.003  0.000  0.065  0.251  0.103  0.503  0.008  0.941
 

 k-point   14 :   -0.15000000 0.25000000 0.05000000     weight = 0.02400000

band   1 # energy   -0.06259375 # occ.  1.00000000
 
ion      s     py     pz     px    dxy    dyz    dz2    dxz    dx2    tot
  1  0.700  0.076  0.030  0.041  0.020  0.016  0.005  0.002  0.002  0.893
 
band   2 # energy    5.63399023 # occ.  0.99867770
 
ion      s     py     pz     px    dxy    dyz    dz2    dxz    dx2    tot
  1  0.000  0.004  0.012  0.032  0.205  0.225  0.109  0.004  0.373  0.964
 
band   3 # energy    5.70655954 # occ.  0.07317149
 
ion      s     py     pz     px    dxy    dyz    dz2    dxz    dx2    tot
  1  0.003  0.024  0.002  0.007  0.063  0.516  0.189  0.178  0.033  1.015
 
band   4 # energy    8.07371237 # occ.  0.00000000
 
ion      s     py     pz     px    dxy    dyz    dz2    dxz    dx2    tot
  1  0.000  0.000  0.001  0.003  0.238  0.001  0.423  0.222  0.008  0.897
 
band   5 # energy    8.48539074 # occ.  0.00000000
 
ion      s     py     pz     px    dxy    dyz    dz2    dxz    dx2    tot
  1  0.001  0.050  0.001  0.003  0.236  0.034  0.131  0.023  0.512  0.991
 
band   6 # energy   10.39244866 # occ.  0.00000000
 
ion      s     py     pz     px    dxy    dyz    dz2    dxz    dx2    tot
  1  0.012  0.000  0.002  0.001  0.119  0.165  0.097  0.538  0.022  0.957
 

 k-point   15 :   -0.35000000 0.35000000 0.05000000     weight = 0.02400000

band   1 # energy    1.21541225 # occ.  1.00000000
 
ion      s     py     pz     px    dxy    dyz    dz2    dxz    dx2    tot
  1  0.453  0.030  0.008  0.059  0.277  0.001  0.081  0.002  0.035  0.945
 
band   2 # energy    4.67748984 # occ.  1.00000000
 
ion      s     py     pz     px    dxy    dyz    dz2    dxz    dx2    tot
  1  0.000  0.003  0.000  0.002  0.000  0.685  0.000  0.342  0.001  1.032
 
band   3 # energy    5.69579969 # occ.  0.18948435
 
ion      s     py     pz     px    dxy    dyz    dz2    dxz    dx2    tot
  1  0.066  0.127  0.000  0.253  0.338  0.016  0.025  0.031  0.042  0.899
 
band   4 # energy    9.19060292 # occ.  0.00000000
 
ion      s     py     pz     px    dxy    dyz    dz2    dxz    dx2    tot
  1  0.003  0.021  0.001  0.041  0.078  0.020  0.737  0.041  0.010  0.952
 
band   5 # energy   10.41753342 # occ.  0.00000000
 
ion      s     py     pz     px    dxy    dyz    dz2    dxz    dx2    tot
  1  0.020  0.002  0.003  0.004  0.049  0.275  0.050  0.551  0.006  0.961
 
band   6 # energy   11.11572783 # occ.  0.00000000
 
ion      s     py     pz     px    dxy    dyz    dz2    dxz    dx2    tot
  1  0.000  0.040  0.000  0.020  0.100  0.001  0.000  0.001  0.802  0.965
 

 k-point   16 :   -0.25000000 0.35000000 0.05000000     weight = 0.04800000

band   1 # energy    1.24130217 # occ.  1.00000000
 
ion      s     py     pz     px    dxy    dyz    dz2    dxz    dx2    tot
  1  0.537  0.090  0.028  0.060  0.134  0.030  0.041  0.003  0.002  0.924
 
band   2 # energy    4.92280796 # occ.  1.00000000
 
ion      s     py     pz     px    dxy    dyz    dz2    dxz    dx2    tot
  1  0.004  0.000  0.012  0.068  0.203  0.469  0.010  0.026  0.161  0.953
 
band   3 # energy    5.35574428 # occ.  1.00000000
 
ion      s     py     pz     px    dxy    dyz    dz2    dxz    dx2    tot
  1  0.018  0.055  0.003  0.063  0.144  0.257  0.078  0.268  0.093  0.980
 
band   4 # energy    8.37677436 # occ.  0.00000000
 
ion      s     py     pz     px    dxy    dyz    dz2    dxz    dx2    tot
  1  0.000  0.002  0.000  0.028  0.109  0.002  0.625  0.134  0.025  0.926
 
band   5 # energy   10.31327836 # occ.  0.00000000
 
ion      s     py     pz     px    dxy    dyz    dz2    dxz    dx2    tot
  1  0.004  0.064  0.000  0.000  0.046  0.091  0.136  0.071  0.558  0.970
 
band   6 # energy   10.69653031 # occ.  0.00000000
 
ion      s     py     pz     px    dxy    dyz    dz2    dxz    dx2    tot
  1  0.037  0.038  0.002  0.006  0.224  0.115  0.017  0.470  0.061  0.972
 

 k-point   17 :   -0.45000000 0.45000000 0.05000000     weight = 0.02400000

band   1 # energy    1.45916489 # occ.  1.00000000
 
ion      s     py     pz     px    dxy    dyz    dz2    dxz    dx2    tot
  1  0.300  0.003  0.007  0.006  0.484  0.000  0.107  0.000  0.060  0.968
 
band   2 # energy    4.34523471 # occ.  1.00000000
 
ion      s     py     pz     px    dxy    dyz    dz2    dxz    dx2    tot
  1  0.000  0.003  0.000  0.001  0.000  0.688  0.000  0.344  0.000  1.037
 
band   3 # energy    6.69684181 # occ.  0.00000000
 
ion      s     py     pz     px    dxy    dyz    dz2    dxz    dx2    tot
  1  0.028  0.227  0.000  0.455  0.056  0.035  0.000  0.070  0.007  0.879
 
band   4 # energy    9.34962273 # occ.  0.00000000
 
ion      s     py     pz     px    dxy    dyz    dz2    dxz    dx2    tot
  1  0.057  0.012  0.000  0.024  0.172  0.000  0.678  0.000  0.022  0.965
 
band   5 # energy   10.78733543 # occ.  0.00000000
 
ion      s     py     pz     px    dxy    dyz    dz2    dxz    dx2    tot
  1  0.009  0.031  0.001  0.061  0.008  0.289  0.000  0.579  0.001  0.979
 
band   6 # energy   13.06376783 # occ.  0.00000000
 
ion      s     py     pz     px    dxy    dyz    dz2    dxz    dx2    tot
  1  0.000  0.012  0.000  0.006  0.107  0.000  0.000  0.000  0.857  0.982
 

 k-point   18 :   -0.35000000 0.45000000 0.05000000     weight = 0.04800000

band   1 # energy    1.89879066 # occ.  1.00000000
 
ion      s     py     pz     px    dxy    dyz    dz2    dxz    dx2    tot
  1  0.324  0.047  0.025  0.011  0.402  0.020  0.088  0.000  0.039  0.956
 
band   2 # energy    4.62230198 # occ.  1.00000000
 
ion      s     py     pz     px    dxy    dyz    dz2    dxz    dx2    tot
  1  0.004  0.003  0.014  0.034  0.035  0.716  0.004  0.169  0.024  1.004
 
band   3 # energy    5.59909622 # occ.  1.02612193
 
ion      s     py     pz     px    dxy    dyz    dz2    dxz    dx2    tot
  1  0.043  0.136  0.002  0.261  0.085  0.000  0.005  0.262  0.112  0.906
 
band   4 # energy    8.91603824 # occ.  0.00000000
 
ion      s     py     pz     px    dxy    dyz    dz2    dxz    dx2    tot
  1  0.020  0.010  0.000  0.050  0.134  0.005  0.698  0.018  0.002  0.937
 
band   5 # energy   10.73147607 # occ.  0.00000000
 
ion      s     py     pz     px    dxy    dyz    dz2    dxz    dx2    tot
  1  0.056  0.007  0.001  0.047  0.010  0.229  0.008  0.467  0.157  0.983
 
band   6 # energy   12.70256670 # occ.  0.00000000
 
ion      s     py     pz     px    dxy    dyz    dz2    dxz    dx2    tot
  1  0.006  0.119  0.001  0.017  0.174  0.005  0.011  0.059  0.570  0.963
 

 k-point   19 :   -0.25000000 0.45000000 0.05000000     weight = 0.02400000

band   1 # energy    2.36539476 # occ.  1.00000000
 
ion      s     py     pz     px    dxy    dyz    dz2    dxz    dx2    tot
  1  0.367  0.094  0.026  0.043  0.136  0.215  0.066  0.000  0.003  0.950
 
band   2 # energy    4.32592187 # occ.  1.00000000
 
ion      s     py     pz     px    dxy    dyz    dz2    dxz    dx2    tot
  1  0.000  0.011  0.033  0.088  0.310  0.192  0.010  0.007  0.276  0.926
 
band   3 # energy    5.36125123 # occ.  1.00000000
 
ion      s     py     pz     px    dxy    dyz    dz2    dxz    dx2    tot
  1  0.016  0.122  0.033  0.055  0.000  0.259  0.116  0.304  0.072  0.977
 
band   4 # energy    8.68411075 # occ.  0.00000000
 
ion      s     py     pz     px    dxy    dyz    dz2    dxz    dx2    tot
  1  0.000  0.003  0.009  0.023  0.124  0.008  0.494  0.217  0.056  0.933
 
band   5 # energy   10.43726885 # occ.  0.00000000
 
ion      s     py     pz     px    dxy    dyz    dz2    dxz    dx2    tot
  1  0.083  0.000  0.005  0.002  0.022  0.259  0.133  0.296  0.179  0.979
 
band   6 # energy   12.77332708 # occ.  0.00000000
 
ion      s     py     pz     px    dxy    dyz    dz2    dxz    dx2    tot
  1  0.019  0.167  0.004  0.033  0.282  0.000  0.047  0.122  0.287  0.961
 

 k-point   20 :   -0.45000000-0.45000000 0.05000000     weight = 0.02400000

band   1 # energy    1.95506126 # occ.  1.00000000
 
ion      s     py     pz     px    dxy    dyz    dz2    dxz    dx2    tot
  1  0.246  0.010  0.023  0.005  0.511  0.007  0.096  0.004  0.064  0.965
 
band   2 # energy    4.52122349 # occ.  1.00000000
 
ion      s     py     pz     px    dxy    dyz    dz2    dxz    dx2    tot
  1  0.001  0.014  0.016  0.007  0.014  0.639  0.008  0.319  0.002  1.019
 
band   3 # energy    6.09184200 # occ.  0.00000000
 
ion      s     py     pz     px    dxy    dyz    dz2    dxz    dx2    tot
  1  0.000  0.184  0.000  0.368  0.006  0.094  0.000  0.188  0.044  0.885
 
band   4 # energy    8.86963084 # occ.  0.00000000
 
ion      s     py     pz     px    dxy    dyz    dz2    dxz    dx2    tot
  1  0.086  0.001  0.000  0.000  0.170  0.016  0.631  0.008  0.021  0.934
 
band   5 # energy   11.23950695 # occ.  0.00000000
 
ion      s     py     pz     px    dxy    dyz    dz2    dxz    dx2    tot
  1  0.000  0.065  0.000  0.131  0.017  0.214  0.000  0.427  0.135  0.988
 
band   6 # energy   13.95465281 # occ.  0.00000000
 
ion      s     py     pz     px    dxy    dyz    dz2    dxz    dx2    tot
  1  0.000  0.042  0.000  0.084  0.089  0.020  0.000  0.040  0.709  0.982
 

 k-point   21 :   -0.35000000-0.45000000 0.05000000     weight = 0.04800000

band   1 # energy    2.83649113 # occ.  1.00000000
 
ion      s     py     pz     px    dxy    dyz    dz2    dxz    dx2    tot
  1  0.213  0.050  0.027  0.000  0.405  0.113  0.109  0.016  0.035  0.968
 
band   2 # energy    4.38483894 # occ.  1.00000000
 
ion      s     py     pz     px    dxy    dyz    dz2    dxz    dx2    tot
  1  0.010  0.006  0.042  0.100  0.124  0.525  0.020  0.034  0.092  0.954
 
band   3 # energy    5.22347821 # occ.  1.00000000
 
ion      s     py     pz     px    dxy    dyz    dz2    dxz    dx2    tot
  1  0.002  0.163  0.013  0.174  0.007  0.003  0.022  0.437  0.103  0.923
 
band   4 # energy    9.15317953 # occ.  0.00000000
 
ion      s     py     pz     px    dxy    dyz    dz2    dxz    dx2    tot
  1  0.036  0.002  0.011  0.022  0.132  0.063  0.610  0.062  0.000  0.939
 
band   5 # energy   10.65833810 # occ.  0.00000000
 
ion      s     py     pz     px    dxy    dyz    dz2    dxz    dx2    tot
  1  0.045  0.022  0.002  0.065  0.004  0.213  0.003  0.299  0.323  0.974
 
band   6 # energy   15.06316556 # occ.  0.00000000
 
ion      s     py     pz     px    dxy    dyz    dz2    dxz    dx2    tot
  1  0.031  0.143  0.007  0.104  0.193  0.017  0.028  0.091  0.371  0.986
 

 k-point   22 :   -0.35000000-0.35000000 0.05000000     weight = 0.00800000

band   1 # energy    3.49819473 # occ.  1.00000000
 
ion      s     py     pz     px    dxy    dyz    dz2    dxz    dx2    tot
  1  0.178  0.000  0.000  0.000  0.061  0.367  0.206  0.183  0.008  1.003
 
band   2 # energy    4.48072770 # occ.  1.00000000
 
ion      s     py     pz     px    dxy    dyz    dz2    dxz    dx2    tot
  1  0.000  0.127  0.096  0.064  0.495  0.047  0.000  0.024  0.062  0.915
 
band   3 # energy    4.48072784 # occ.  1.00000000
 
ion      s     py     pz     px    dxy    dyz    dz2    dxz    dx2    tot
  1  0.000  0.096  0.000  0.191  0.024  0.138  0.000  0.277  0.190  0.915
 
band   4 # energy   10.11657891 # occ.  0.00000000
 
ion      s     py     pz     px    dxy    dyz    dz2    dxz    dx2    tot
  1  0.000  0.028  0.000  0.057  0.049  0.143  0.000  0.286  0.395  0.958
 
band   5 # energy   10.11657929 # occ.  0.00000000
 
ion      s     py     pz     px    dxy    dyz    dz2    dxz    dx2    tot
  1  0.000  0.038  0.028  0.019  0.077  0.099  0.638  0.049  0.010  0.958
 
band   6 # energy   14.67952035 # occ.  0.00000000
 
ion      s     py     pz     px    dxy    dyz    dz2    dxz    dx2    tot
  1  0.612  0.013  0.039  0.007  0.016  0.094  0.053  0.047  0.002  0.883
 

 k-point   23 :    0.15000000 0.15000000 0.15000000     weight = 0.00800000

band   1 # energy    2.23474294 # occ.  1.00000000
 
ion      s     py     pz     px    dxy    dyz    dz2    dxz    dx2    tot
  1  0.500  0.058  0.175  0.029  0.012  0.074  0.041  0.037  0.002  0.929
 
band   2 # energy    4.39079993 # occ.  1.00000000
 
ion      s     py     pz     px    dxy    dyz    dz2    dxz    dx2    tot
  1  0.000  0.052  0.003  0.039  0.101  0.082  0.051  0.021  0.644  0.993
 
band   3 # energy    4.39079993 # occ.  1.00000000
 
ion      s     py     pz     px    dxy    dyz    dz2    dxz    dx2    tot
  1  0.000  0.021  0.029  0.044  0.000  0.128  0.566  0.128  0.078  0.993
 
band   4 # energy   10.05890735 # occ.  0.00000000
 
ion      s     py     pz     px    dxy    dyz    dz2    dxz    dx2    tot
  1  0.000  0.000  0.000  0.000  0.259  0.153  0.009  0.513  0.025  0.959
 
band   5 # energy   10.05890735 # occ.  0.00000000
 
ion      s     py     pz     px    dxy    dyz    dz2    dxz    dx2    tot
  1  0.000  0.000  0.000  0.000  0.533  0.153  0.032  0.055  0.186  0.959
 
band   6 # energy   12.79106658 # occ.  0.00000000
 
ion      s     py     pz     px    dxy    dyz    dz2    dxz    dx2    tot
  1  0.004  0.050  0.149  0.025  0.055  0.329  0.185  0.165  0.007  0.968
 

 k-point   24 :    0.25000000 0.15000000 0.15000000     weight = 0.02400000
