<?xml version="1.0" encoding="ISO-8859-1"?>
<modeling>
 <generator>
  <i name="program" type="string">vasp </i>
  <i name="version" type="string">5.2.12  </i>
  <i name="subversion" type="string">11Nov11 complex                                                      parallel </i>
  <i name="platform" type="string">LinuxIFC </i>
  <i name="date" type="string">2012 10 17 </i>
  <i name="time" type="string">10:12:41 </i>
 </generator>
 <incar>
  <i type="int" name="ISTART">     0</i>
  <i type="string" name="PREC">accurate</i>
  <i type="int" name="ISPIN">     2</i>
  <i name="ENCUT">    500.00000000</i>
  <i type="int" name="NBANDS">     6</i>
  <v name="MAGMOM">      6.00000000</v>
  <i type="logical" name="LREAL"> F  </i>
  <i type="int" name="ISMEAR">     1</i>
  <i name="SIGMA">      0.05000000</i>
  <i type="logical" name="LORBIT"> F  </i>
 </incar>
 <kpoints>
  <generation param="Monkhorst-Pack">
   <v type="int" name="divisions">      10       10       10 </v>
   <v name="usershift">      0.00000000       0.00000000       0.00000000 </v>
   <v name="genvec1">      0.10000000       0.00000000       0.00000000 </v>
   <v name="genvec2">      0.00000000       0.10000000       0.00000000 </v>
   <v name="genvec3">      0.00000000       0.00000000       0.10000000 </v>
   <v name="shift">      0.50000000       0.50000000       0.50000000 </v>
  </generation>
  <varray name="kpointlist" >
   <v>       0.05000000       0.05000000       0.05000000 </v>
   <v>       0.15000000       0.05000000       0.05000000 </v>
   <v>       0.25000000       0.05000000       0.05000000 </v>
   <v>       0.35000000       0.05000000       0.05000000 </v>
   <v>       0.45000000       0.05000000       0.05000000 </v>
   <v>      -0.05000000       0.05000000       0.05000000 </v>
   <v>       0.15000000       0.15000000       0.05000000 </v>
   <v>       0.25000000       0.15000000       0.05000000 </v>
   <v>       0.35000000       0.15000000       0.05000000 </v>
   <v>      -0.15000000       0.15000000       0.05000000 </v>
   <v>       0.25000000       0.25000000       0.05000000 </v>
   <v>       0.35000000       0.25000000       0.05000000 </v>
   <v>      -0.25000000       0.25000000       0.05000000 </v>
   <v>      -0.15000000       0.25000000       0.05000000 </v>
   <v>      -0.35000000       0.35000000       0.05000000 </v>
   <v>      -0.25000000       0.35000000       0.05000000 </v>
   <v>      -0.45000000       0.45000000       0.05000000 </v>
   <v>      -0.35000000       0.45000000       0.05000000 </v>
   <v>      -0.25000000       0.45000000       0.05000000 </v>
   <v>      -0.45000000      -0.45000000       0.05000000 </v>
   <v>      -0.35000000      -0.45000000       0.05000000 </v>
   <v>      -0.35000000      -0.35000000       0.05000000 </v>
   <v>       0.15000000       0.15000000       0.15000000 </v>
   <v>       0.25000000       0.15000000       0.15000000 </v>
   <v>       0.35000000       0.15000000       0.15000000 </v>
   <v>      -0.15000000       0.15000000       0.15000000 </v>
   <v>       0.25000000       0.25000000       0.15000000 </v>
   <v>      -0.25000000       0.25000000       0.15000000 </v>
   <v>      -0.35000000       0.35000000       0.15000000 </v>
   <v>      -0.25000000       0.35000000       0.15000000 </v>
   <v>      -0.45000000       0.45000000       0.15000000 </v>
   <v>      -0.35000000       0.45000000       0.15000000 </v>
   <v>      -0.45000000      -0.45000000       0.15000000 </v>
   <v>      -0.35000000      -0.45000000       0.15000000 </v>
   <v>       0.25000000       0.25000000       0.25000000 </v>
   <v>      -0.25000000       0.25000000       0.25000000 </v>
   <v>      -0.35000000       0.35000000       0.25000000 </v>
   <v>      -0.45000000       0.45000000       0.25000000 </v>
   <v>      -0.35000000       0.45000000       0.25000000 </v>
   <v>      -0.45000000      -0.45000000       0.25000000 </v>
   <v>      -0.35000000       0.35000000       0.35000000 </v>
   <v>      -0.45000000       0.45000000       0.35000000 </v>
   <v>      -0.45000000      -0.45000000       0.35000000 </v>
   <v>      -0.45000000       0.45000000       0.45000000 </v>
  </varray>
  <varray name="weights" >
   <v>       0.00800000 </v>
   <v>       0.02400000 </v>
   <v>       0.02400000 </v>
   <v>       0.02400000 </v>
   <v>       0.01200000 </v>
   <v>       0.00600000 </v>
   <v>       0.02400000 </v>
   <v>       0.04800000 </v>
   <v>       0.04800000 </v>
   <v>       0.02400000 </v>
   <v>       0.02400000 </v>
   <v>       0.02400000 </v>
   <v>       0.02400000 </v>
   <v>       0.02400000 </v>
   <v>       0.02400000 </v>
   <v>       0.04800000 </v>
   <v>       0.02400000 </v>
   <v>       0.04800000 </v>
   <v>       0.02400000 </v>
   <v>       0.02400000 </v>
   <v>       0.04800000 </v>
   <v>       0.00800000 </v>
   <v>       0.00800000 </v>
   <v>       0.02400000 </v>
   <v>       0.01200000 </v>
   <v>       0.00600000 </v>
   <v>       0.02400000 </v>
   <v>       0.02400000 </v>
   <v>       0.02400000 </v>
   <v>       0.02400000 </v>
   <v>       0.02400000 </v>
   <v>       0.04800000 </v>
   <v>       0.02400000 </v>
   <v>       0.02400000 </v>
   <v>       0.00200000 </v>
   <v>       0.00600000 </v>
   <v>       0.02400000 </v>
   <v>       0.02400000 </v>
   <v>       0.02400000 </v>
   <v>       0.02400000 </v>
   <v>       0.00600000 </v>
   <v>       0.02400000 </v>
   <v>       0.00800000 </v>
   <v>       0.00600000 </v>
  </varray>
 </kpoints>
 <parameters>
  <separator name="general" >
   <i type="string" name="SYSTEM">unknown system</i>
   <i type="logical" name="LCOMPAT"> F  </i>
  </separator>
  <separator name="electronic" >
   <i type="string" name="PREC">accura</i>
   <i name="ENMAX">    500.00000000</i>
   <i name="ENAUG">    332.07500000</i>
   <i name="EDIFF">      0.00010000</i>
   <i type="int" name="IALGO">    38</i>
   <i type="int" name="IWAVPR">    10</i>
   <i type="int" name="NBANDS">     6</i>
   <i name="NELECT">      5.00000000</i>
   <i type="int" name="TURBO">     0</i>
   <i type="int" name="IRESTART">     0</i>
   <i type="int" name="NREBOOT">     0</i>
   <i type="int" name="NMIN">     0</i>
   <i name="EREF">      0.00000000</i>
   <separator name="electronic smearing" >
    <i type="int" name="ISMEAR">     1</i>
    <i name="SIGMA">      0.05000000</i>
    <i name="KSPACING">      0.50000000</i>
    <i type="logical" name="KGAMMA"> T  </i>
   </separator>
   <separator name="electronic projectors" >
    <i type="logical" name="LREAL"> F  </i>
    <v name="ROPT">      0.00000000</v>
    <i type="int" name="LMAXPAW">  -100</i>
    <i type="int" name="LMAXMIX">     2</i>
    <i type="logical" name="NLSPLINE"> F  </i>
   </separator>
   <separator name="electronic startup" >
    <i type="int" name="ISTART">     0</i>
    <i type="int" name="ICHARG">     2</i>
    <i type="int" name="INIWAV">     1</i>
   </separator>
   <separator name="electronic spin" >
    <i type="int" name="ISPIN">     2</i>
    <i type="logical" name="LNONCOLLINEAR"> F  </i>
    <v name="MAGMOM">      6.00000000</v>
    <i name="NUPDOWN">     -1.00000000</i>
    <i type="logical" name="LSORBIT"> F  </i>
    <v name="SAXIS">      0.00000000      0.00000000      1.00000000</v>
    <i type="logical" name="LSPIRAL"> F  </i>
    <v name="QSPIRAL">      0.00000000      0.00000000      0.00000000</v>
    <i type="logical" name="LZEROZ"> F  </i>
   </separator>
   <separator name="electronic exchange-correlation" >
    <i type="logical" name="LASPH"> F  </i>
    <i type="logical" name="LMETAGGA"> F  </i>
   </separator>
   <separator name="electronic convergence" >
    <i type="int" name="NELM">    60</i>
    <i type="int" name="NELMDL">    -5</i>
    <i type="int" name="NELMIN">     2</i>
    <i name="ENINI">    500.00000000</i>
    <separator name="electronic convergence detail" >
     <i type="logical" name="LDIAG"> T  </i>
     <i type="logical" name="LSUBROT"> T  </i>
     <i name="WEIMIN">      0.00000000</i>
     <i name="EBREAK">      0.00000417</i>
     <i name="DEPER">      0.30000000</i>
     <i type="int" name="NRMM">     4</i>
     <i name="TIME">      0.40000000</i>
    </separator>
   </separator>
   <separator name="electronic mixer" >
    <i name="AMIX">      0.40000000</i>
    <i name="BMIX">      1.00000000</i>
    <i name="AMIN">      0.10000000</i>
    <i name="AMIX_MAG">      1.60000000</i>
    <i name="BMIX_MAG">      1.00000000</i>
    <separator name="electronic mixer details" >
     <i type="int" name="IMIX">     4</i>
     <i type="int" name="MAXMIX">   -45</i>
     <i name="WC">    100.00000000</i>
     <i type="int" name="INIMIX">     1</i>
     <i type="int" name="MIXPRE">     1</i>
     <i type="int" name="MREMOVE">     5</i>
    </separator>
   </separator>
   <separator name="electronic dipolcorrection" >
    <i type="logical" name="LDIPOL"> F  </i>
    <i type="logical" name="LMONO"> F  </i>
    <i type="int" name="IDIPOL">     0</i>
    <i name="EPSILON">      1.00000000</i>
    <v name="DIPOL">   -100.00000000   -100.00000000   -100.00000000</v>
    <i name="EFIELD">      0.00000000</i>
   </separator>
  </separator>
  <separator name="grids" >
   <i type="int" name="NGX">    24</i>
   <i type="int" name="NGY">    24</i>
   <i type="int" name="NGZ">    24</i>
   <i type="int" name="NGXF">    48</i>
   <i type="int" name="NGYF">    48</i>
   <i type="int" name="NGZF">    48</i>
   <i type="logical" name="ADDGRID"> F  </i>
  </separator>
  <separator name="ionic" >
   <i type="int" name="NSW">     0</i>
   <i type="int" name="IBRION">    -1</i>
   <i type="int" name="ISIF">     2</i>
   <i name="PSTRESS">      0.00000000</i>
   <i name="EDIFFG">      0.00100000</i>
   <i type="int" name="NFREE">     0</i>
   <i name="POTIM">      0.50000000</i>
   <i name="SMASS">     -3.00000000</i>
   <i name="SCALEE">      1.00000000</i>
  </separator>
  <separator name="ionic md" >
   <i name="TEBEG">      0.00010000</i>
   <i name="TEEND">      0.00010000</i>
   <i type="int" name="NBLOCK">     1</i>
   <i type="int" name="KBLOCK">     1</i>
   <i type="int" name="NPACO">   256</i>
   <i name="APACO">     16.00000000</i>
  </separator>
  <separator name="symmetry" >
   <i type="int" name="ISYM">     2</i>
   <i name="SYMPREC">      0.00001000</i>
  </separator>
  <separator name="dos" >
   <i type="logical" name="LORBIT"> F  </i>
   <v name="RWIGS">     -1.00000000</v>
   <i type="int" name="NEDOS">   301</i>
   <i name="EMIN">     10.00000000</i>
   <i name="EMAX">    -10.00000000</i>
   <i name="EFERMI">      0.00000000</i>
  </separator>
  <separator name="writing" >
   <i type="int" name="NWRITE">     2</i>
   <i type="logical" name="LWAVE"> T  </i>
   <i type="logical" name="LCHARG"> T  </i>
   <i type="logical" name="LPARD"> F  </i>
   <i type="logical" name="LVTOT"> F  </i>
   <i type="logical" name="LVHAR"> F  </i>
   <i type="logical" name="LELF"> F  </i>
   <i type="logical" name="LOPTICS"> F  </i>
   <v name="STM">      0.00000000      0.00000000      0.00000000      0.00000000      0.00000000      0.00000000      0.00000000</v>
  </separator>
  <separator name="performance" >
   <i type="int" name="NPAR">     1</i>
   <i type="int" name="NSIM">     4</i>
   <i type="int" name="NBLK">    -1</i>
   <i type="logical" name="LPLANE"> T  </i>
   <i type="logical" name="LSCALAPACK"> F  </i>
   <i type="logical" name="LSCAAWARE"> F  </i>
   <i type="logical" name="LSCALU"> F  </i>
   <i type="logical" name="LASYNC"> F  </i>
   <i type="logical" name="LORBITALREAL"> F  </i>
  </separator>
  <separator name="miscellaneous" >
   <i type="int" name="IDIOT">     3</i>
   <i type="logical" name="LMUSIC"> F  </i>
   <v name="POMASS">    180.94800000</v>
   <v name="DARWINR">      0.00000000</v>
   <v name="DARWINV">      1.00000000</v>
   <i type="logical" name="LCORR"> T  </i>
  </separator>
  <i type="logical" name="GGA_COMPAT"> T  </i>
  <i type="logical" name="LBERRY"> F  </i>
  <i type="int" name="ICORELEVEL">     0</i>
  <i type="logical" name="LDAU"> F  </i>
  <i type="int" name="I_CONSTRAINED_M">     0</i>
  <separator name="electronic exchange-correlation" >
   <i type="string" name="GGA">--</i>
   <i type="int" name="VOSKOWN">     0</i>
   <i type="logical" name="LHFCALC"> F  </i>
   <i type="string" name="PRECFOCK"></i>
   <i type="logical" name="LHFONE"> F  </i>
   <i type="logical" name="LRHFCALC"> F  </i>
   <i type="logical" name="LTHOMAS"> F  </i>
   <i type="logical" name="LMODELHF"> F  </i>
   <i name="ENCUT4O">     -1.00000000</i>
   <i type="int" name="EXXOEP">     0</i>
   <i type="int" name="FOURORBIT">     0</i>
   <i name="AEXX">      0.00000000</i>
   <i name="HFALPHA">      0.00000000</i>
   <i name="ALDAX">      1.00000000</i>
   <i name="AGGAX">      1.00000000</i>
   <i name="ALDAC">      1.00000000</i>
   <i name="AGGAC">      1.00000000</i>
   <i type="int" name="NKREDX">     1</i>
   <i type="int" name="NKREDY">     1</i>
   <i type="int" name="NKREDZ">     1</i>
   <i type="logical" name="SHIFTRED"> F  </i>
   <i type="logical" name="ODDONLY"> F  </i>
   <i type="logical" name="EVENONLY"> F  </i>
   <i type="int" name="LMAXFOCK">     0</i>
   <i type="int" name="NMAXFOCKAE">     0</i>
   <i type="logical" name="LFOCKAEDFT"> F  </i>
   <i name="HFSCREEN">      0.00000000</i>
   <i name="HFSCREENC">      0.00000000</i>
  </separator>
  <separator name="vdW DFT" >
   <i type="logical" name="LUSE_VDW"> F  </i>
   <i name="Zab_VDW">     -0.84910000</i>
   <i name="PARAM1">      0.12340000</i>
   <i name="PARAM2">      1.00000000</i>
   <i name="PARAM3">      0.00000000</i>
  </separator>
  <separator name="model GW" >
   <i type="int" name="MODEL_GW">     0</i>
   <i name="MODEL_EPS0">     10.87940730</i>
   <i name="MODEL_ALPHA">      1.00000000</i>
  </separator>
  <separator name="linear response parameters" >
   <i type="logical" name="LEPSILON"> F  </i>
   <i type="logical" name="LRPA"> F  </i>
   <i type="logical" name="LNABLA"> F  </i>
   <i type="logical" name="LVEL"> F  </i>
   <i type="int" name="KINTER">     0</i>
   <i name="CSHIFT">      0.10000000</i>
   <i name="OMEGAMAX">     -1.00000000</i>
  </separator>
  <separator name="orbital magnetization" >
   <i type="logical" name="NUCIND"> F  </i>
   <v name="MAGPOS">      0.00000000      0.00000000      0.00000000</v>
   <i type="logical" name="LNICSALL"> T  </i>
   <i type="logical" name="ORBITALMAG"> F  </i>
   <i type="logical" name="LMAGBLOCH"> F  </i>
   <i type="logical" name="LCHIMAG"> F  </i>
   <i type="logical" name="LGAUGE"> T  </i>
   <i type="int" name="MAGATOM">     0</i>
   <v name="MAGDIPOL">      0.00000000      0.00000000      0.00000000</v>
   <v name="AVECCONST">      0.00000000      0.00000000      0.00000000</v>
  </separator>
  <separator name="response functions" >
   <i type="logical" name="LADDER"> F  </i>
   <i type="logical" name="LHARTREE"> T  </i>
   <i type="int" name="IBSE">     0</i>
   <i type="logical" name="LTCTE"> F  </i>
   <i type="logical" name="LTETE"> F  </i>
   <i type="logical" name="LFXCEPS"> F  </i>
   <i type="logical" name="L2ORDER"> F  </i>
   <i type="logical" name="LUSEW"> F  </i>
   <i name="ENCUTGW">     -2.00000000</i>
   <i name="ENCUTGWSOFT">     -2.00000000</i>
   <i name="ENCUTLF">     -1.00000000</i>
   <i type="int" name="LMAXMP2">    -1</i>
   <i name="SCISSOR">      0.00000000</i>
   <i type="int" name="NOMEGA">     0</i>
   <i type="int" name="NOMEGAR">     0</i>
   <i type="int" name="NBANDSGW">    -1</i>
   <i type="int" name="NBANDSO">    -1</i>
   <i type="int" name="NBANDSV">    -1</i>
   <i name="OPTEMAX">      0.00000000</i>
   <i type="int" name="NELM">     1</i>
   <i type="int" name="DIM">     3</i>
   <i type="int" name="ANTIRES">     0</i>
   <i name="OMEGAMAX">    -30.00000000</i>
   <i name="OMEGATL">   -200.00000000</i>
   <i type="int" name="OMEGAGRID">     0</i>
   <i name="CSHIFT">     -0.10000000</i>
   <i type="logical" name="SELFENERGY"> F  </i>
   <i type="logical" name="LSPECTRAL"> F  </i>
   <i type="logical" name="ODDONLYGW"> F  </i>
   <i type="logical" name="EVENONLYGW"> F  </i>
   <i type="int" name="NKREDLFX">     1</i>
   <i type="int" name="NKREDLFY">     1</i>
   <i type="int" name="NKREDLFZ">     1</i>
   <i type="int" name="MAXMEM">  1800</i>
   <i type="int" name="TELESCOPE">     0</i>
  </separator>
 </parameters>
 <atominfo>
  <atoms>       1 </atoms>
  <types>       1 </types>
  <array name="atoms" >
   <dimension dim="1">ion</dimension>
   <field type="string">element</field>
   <field type="int">atomtype</field>
   <set>
    <rc><c>Ta</c><c>   1</c></rc>
   </set>
  </array>
  <array name="atomtypes" >
   <dimension dim="1">type</dimension>
   <field type="int">atomspertype</field>
   <field type="string">element</field>
   <field>mass</field>
   <field>valence</field>
   <field type="string">pseudopotential</field>
   <set>
    <rc><c>   1</c><c>Ta</c><c>    180.94800000</c><c>      5.00000000</c><c>  PAW_PBE Ta 17Jan2003                  </c></rc>
   </set>
  </array>
 </atominfo>
 <structure name="initialpos" >
  <crystal>
   <varray name="basis" >
    <v>       2.86654409       0.00000000       0.00000000 </v>
    <v>      -0.95551470       2.70260368       0.00000000 </v>
    <v>      -0.95551470      -1.35130184       2.34052345 </v>
   </varray>
   <i name="volume">     18.13234550 </i>
   <varray name="rec_basis" >
    <v>       0.34885213       0.12333785       0.21362743 </v>
    <v>       0.00000000       0.37001356       0.21362743 </v>
    <v>       0.00000000       0.00000000       0.42725485 </v>
   </varray>
  </crystal>
  <varray name="positions" >
   <v>       0.00000000       0.00000000       0.00000000 </v>
  </varray>
 </structure>
 <calculation>
  <scstep>
   <time name="dav">    2.31    2.32</time>
   <time name="total">    2.80    2.81</time>
   <energy>
    <i name="alphaZ">     30.58334069 </i>
    <i name="ewald">   -197.90100875 </i>
    <i name="hartreedc">     -2.50452612 </i>
    <i name="XCdc">    -60.71197109 </i>
    <i name="pawpsdc">    143.51874798 </i>
    <i name="pawaedc">    -69.33493833 </i>
    <i name="eentropy">     -0.00038138 </i>
    <i name="bandstr">     40.14145517 </i>
    <i name="atom">    130.64936373 </i>
    <i name="e_fr_energy">     14.44008190 </i>
    <i name="e_wo_entrp">     14.44046328 </i>
    <i name="e_0_energy">     14.44020902 </i>
   </energy>
  </scstep>
  <scstep>
   <time name="dav">    3.64    3.64</time>
   <time name="total">    3.64    3.64</time>
   <energy>
    <i name="e_fr_energy">     -1.25713695 </i>
    <i name="e_wo_entrp">     -1.25747556 </i>
    <i name="e_0_energy">     -1.25724982 </i>
   </energy>
  </scstep>
  <scstep>
   <time name="dav">    2.35    2.35</time>
   <time name="total">    2.35    2.36</time>
   <energy>
    <i name="e_fr_energy">     -1.35856670 </i>
    <i name="e_wo_entrp">     -1.35866010 </i>
    <i name="e_0_energy">     -1.35859784 </i>
   </energy>
  </scstep>
  <scstep>
   <time name="dav">    2.76    2.76</time>
   <time name="total">    2.76    2.78</time>
   <energy>
    <i name="e_fr_energy">     -1.35900515 </i>
    <i name="e_wo_entrp">     -1.35909952 </i>
    <i name="e_0_energy">     -1.35903661 </i>
   </energy>
  </scstep>
  <scstep>
   <time name="dav">    2.15    2.15</time>
   <time name="total">    2.47    2.49</time>
   <energy>
    <i name="e_fr_energy">     -1.35900653 </i>
    <i name="e_wo_entrp">     -1.35910093 </i>
    <i name="e_0_energy">     -1.35903800 </i>
   </energy>
  </scstep>
  <scstep>
   <time name="dav">    2.32    2.32</time>
   <time name="total">    3.07    3.09</time>
   <energy>
    <i name="e_fr_energy">    -11.70371317 </i>
    <i name="e_wo_entrp">    -11.70387226 </i>
    <i name="e_0_energy">    -11.70376620 </i>
   </energy>
  </scstep>
  <scstep>
   <time name="dav">    2.56    2.56</time>
   <time name="total">    3.31    3.32</time>
   <energy>
    <i name="e_fr_energy">    -11.78341925 </i>
    <i name="e_wo_entrp">    -11.78332823 </i>
    <i name="e_0_energy">    -11.78338891 </i>
   </energy>
  </scstep>
  <scstep>
   <time name="dav">    2.41    2.41</time>
   <time name="total">    3.16    3.17</time>
   <energy>
    <i name="e_fr_energy">    -11.74414786 </i>
    <i name="e_wo_entrp">    -11.74374800 </i>
    <i name="e_0_energy">    -11.74401458 </i>
   </energy>
  </scstep>
  <scstep>
   <time name="dav">    2.52    2.52</time>
   <time name="total">    3.27    3.27</time>
   <energy>
    <i name="e_fr_energy">    -11.85201824 </i>
    <i name="e_wo_entrp">    -11.85151590 </i>
    <i name="e_0_energy">    -11.85185079 </i>
   </energy>
  </scstep>
  <scstep>
   <time name="dav">    2.48    2.49</time>
   <time name="total">    3.20    3.30</time>
   <energy>
    <i name="e_fr_energy">    -11.86346551 </i>
    <i name="e_wo_entrp">    -11.86334431 </i>
    <i name="e_0_energy">    -11.86342511 </i>
   </energy>
  </scstep>
  <scstep>
   <time name="dav">    2.42    2.42</time>
   <time name="total">    3.14    3.16</time>
   <energy>
    <i name="e_fr_energy">    -11.86416886 </i>
    <i name="e_wo_entrp">    -11.86472133 </i>
    <i name="e_0_energy">    -11.86435302 </i>
   </energy>
  </scstep>
  <scstep>
   <time name="dav">    1.85    1.85</time>
   <time name="total">    2.30    2.32</time>
   <energy>
    <i name="alphaZ">     30.58334069 </i>
    <i name="ewald">   -197.90100875 </i>
    <i name="hartreedc">     -0.59852572 </i>
    <i name="XCdc">    -66.00860967 </i>
    <i name="pawpsdc">    192.21947855 </i>
    <i name="pawaedc">   -118.78986226 </i>
    <i name="eentropy">      0.00059705 </i>
    <i name="bandstr">     17.98100850 </i>
    <i name="atom">    130.64936373 </i>
    <i name="e_fr_energy">    -11.86421787 </i>
    <i name="e_wo_entrp">    -11.86481492 </i>
    <i name="e_0_energy">    -11.86441689 </i>
   </energy>
  </scstep>
  <parameters_embedded>
   <separator name="dft+d2" >
    <i type="logical" name="LVDW"> F  </i>
   </separator>
  </parameters_embedded>
  <structure>
   <crystal>
    <varray name="basis" >
     <v>       2.86654409       0.00000000       0.00000000 </v>
     <v>      -0.95551470       2.70260368       0.00000000 </v>
     <v>      -0.95551470      -1.35130184       2.34052345 </v>
    </varray>
    <i name="volume">     18.13234550 </i>
    <varray name="rec_basis" >
     <v>       0.34885213       0.12333785       0.21362743 </v>
     <v>       0.00000000       0.37001356       0.21362743 </v>
     <v>       0.00000000       0.00000000       0.42725485 </v>
    </varray>
   </crystal>
   <varray name="positions" >
    <v>       0.00000000       0.00000000       0.00000000 </v>
   </varray>
  </structure>
  <varray name="forces" >
   <v>       0.00000000       0.00000000       0.00000000 </v>
  </varray>
  <varray name="stress" >
   <v>     -11.30143039       0.00000000       0.00000000 </v>
   <v>       0.00000000     -11.30143039       0.00000000 </v>
   <v>       0.00000000       0.00000000     -11.30143039 </v>
  </varray>
  <energy>
   <i name="e_fr_energy">    -11.86421787 </i>
   <i name="e_wo_entrp">    -11.86441689 </i>
   <i name="e_0_energy">      0.00059705 </i>
  </energy>
  <time name="totalsc">   38.66   39.01</time>
  <eigenvalues>
   <array>
    <dimension dim="1">band</dimension>
    <dimension dim="2">kpoint</dimension>
    <dimension dim="3">spin</dimension>
    <field>eigene</field>
    <field>occ</field>
    <set>
     <set comment="spin 1">
      <set comment="kpoint 1">
       <r>   -1.5454    1.0000 </r>
       <r>    6.0965    0.0000 </r>
       <r>    6.0965    0.0000 </r>
       <r>    7.2119    0.0000 </r>
       <r>    9.4488    0.0000 </r>
       <r>    9.4488    0.0000 </r>
      </set>
      <set comment="kpoint 2">
       <r>   -0.4227    1.0000 </r>
       <r>    5.4228    1.0000 </r>
       <r>    5.6052    1.0313 </r>
       <r>    8.5612    0.0000 </r>
       <r>    9.1335    0.0000 </r>
       <r>    9.7173    0.0000 </r>
      </set>
      <set comment="kpoint 3">
       <r>    0.9037    1.0000 </r>
       <r>    4.7654    1.0000 </r>
       <r>    5.3013    1.0000 </r>
       <r>    9.3531    0.0000 </r>
       <r>   10.0455    0.0000 </r>
       <r>   10.5339    0.0000 </r>
      </set>
      <set comment="kpoint 4">
       <r>    1.5337    1.0000 </r>
       <r>    4.3155    1.0000 </r>
       <r>    6.1103    0.0000 </r>
       <r>    9.6759    0.0000 </r>
       <r>   10.4101    0.0000 </r>
       <r>   12.6696    0.0000 </r>
      </set>
      <set comment="kpoint 5">
       <r>    1.5916    1.0000 </r>
       <r>    4.1575    1.0000 </r>
       <r>    6.9848    0.0000 </r>
       <r>    9.6573    0.0000 </r>
       <r>   10.5951    0.0000 </r>
       <r>   13.8158    0.0000 </r>
      </set>
      <set comment="kpoint 6">
       <r>   -1.9613    1.0000 </r>
       <r>    6.4154    0.0000 </r>
       <r>    6.4154    0.0000 </r>
       <r>    6.5528    0.0000 </r>
       <r>    9.3120    0.0000 </r>
       <r>    9.8094    0.0000 </r>
      </set>
      <set comment="kpoint 7">
       <r>    0.8479    1.0000 </r>
       <r>    4.8751    1.0000 </r>
       <r>    4.9485    1.0000 </r>
       <r>    9.2091    0.0000 </r>
       <r>   10.0914    0.0000 </r>
       <r>   10.4579    0.0000 </r>
      </set>
      <set comment="kpoint 8">
       <r>    2.0153    1.0000 </r>
       <r>    4.4036    1.0000 </r>
       <r>    4.9789    1.0000 </r>
       <r>    9.5109    0.0000 </r>
       <r>   10.4346    0.0000 </r>
       <r>   12.6834    0.0000 </r>
      </set>
      <set comment="kpoint 9">
       <r>    2.2943    1.0000 </r>
       <r>    4.1895    1.0000 </r>
       <r>    5.9417    0.0000 </r>
       <r>    9.7632    0.0000 </r>
       <r>   10.6364    0.0000 </r>
       <r>   14.5359    0.0000 </r>
      </set>
      <set comment="kpoint 10">
       <r>   -1.1449    1.0000 </r>
       <r>    5.9612    0.0000 </r>
       <r>    6.1890    0.0000 </r>
       <r>    7.3658    0.0000 </r>
       <r>    8.6304    0.0000 </r>
       <r>    9.9925    0.0000 </r>
      </set>
      <set comment="kpoint 11">
       <r>    2.9360    1.0000 </r>
       <r>    4.2964    1.0000 </r>
       <r>    5.0147    1.0000 </r>
       <r>    9.8257    0.0000 </r>
       <r>   10.5331    0.0000 </r>
       <r>   14.9656    0.0000 </r>
      </set>
      <set comment="kpoint 12">
       <r>    3.1177    1.0000 </r>
       <r>    4.3809    1.0000 </r>
       <r>    5.2541    1.0000 </r>
       <r>   10.0651    0.0000 </r>
       <r>   10.5780    0.0000 </r>
       <r>   14.3886    0.0000 </r>
      </set>
      <set comment="kpoint 13">
       <r>    0.1768    1.0000 </r>
       <r>    5.2723    1.0000 </r>
       <r>    5.6151    1.0354 </r>
       <r>    8.6569    0.0000 </r>
       <r>    8.9794    0.0000 </r>
       <r>   10.1892    0.0000 </r>
      </set>
      <set comment="kpoint 14">
       <r>   -0.0626    1.0000 </r>
       <r>    5.6340    0.9987 </r>
       <r>    5.7066    0.0732 </r>
       <r>    8.0737    0.0000 </r>
       <r>    8.4854    0.0000 </r>
       <r>   10.3924    0.0000 </r>
      </set>
      <set comment="kpoint 15">
       <r>    1.2154    1.0000 </r>
       <r>    4.6775    1.0000 </r>
       <r>    5.6958    0.1895 </r>
       <r>    9.1906    0.0000 </r>
       <r>   10.4175    0.0000 </r>
       <r>   11.1157    0.0000 </r>
      </set>
      <set comment="kpoint 16">
       <r>    1.2413    1.0000 </r>
       <r>    4.9228    1.0000 </r>
       <r>    5.3557    1.0000 </r>
       <r>    8.3768    0.0000 </r>
       <r>   10.3133    0.0000 </r>
       <r>   10.6965    0.0000 </r>
      </set>
      <set comment="kpoint 17">
       <r>    1.4592    1.0000 </r>
       <r>    4.3452    1.0000 </r>
       <r>    6.6968    0.0000 </r>
       <r>    9.3496    0.0000 </r>
       <r>   10.7873    0.0000 </r>
       <r>   13.0638    0.0000 </r>
      </set>
      <set comment="kpoint 18">
       <r>    1.8988    1.0000 </r>
       <r>    4.6223    1.0000 </r>
       <r>    5.5991    1.0261 </r>
       <r>    8.9160    0.0000 </r>
       <r>   10.7315    0.0000 </r>
       <r>   12.7026    0.0000 </r>
      </set>
      <set comment="kpoint 19">
       <r>    2.3654    1.0000 </r>
       <r>    4.3259    1.0000 </r>
       <r>    5.3613    1.0000 </r>
       <r>    8.6841    0.0000 </r>
       <r>   10.4373    0.0000 </r>
       <r>   12.7733    0.0000 </r>
      </set>
      <set comment="kpoint 20">
       <r>    1.9551    1.0000 </r>
       <r>    4.5212    1.0000 </r>
       <r>    6.0918    0.0000 </r>
       <r>    8.8696    0.0000 </r>
       <r>   11.2395    0.0000 </r>
       <r>   13.9547    0.0000 </r>
      </set>
      <set comment="kpoint 21">
       <r>    2.8365    1.0000 </r>
       <r>    4.3848    1.0000 </r>
       <r>    5.2235    1.0000 </r>
       <r>    9.1532    0.0000 </r>
       <r>   10.6583    0.0000 </r>
       <r>   15.0632    0.0000 </r>
      </set>
      <set comment="kpoint 22">
       <r>    3.4982    1.0000 </r>
       <r>    4.4807    1.0000 </r>
       <r>    4.4807    1.0000 </r>
       <r>   10.1166    0.0000 </r>
       <r>   10.1166    0.0000 </r>
       <r>   14.6795    0.0000 </r>
      </set>
      <set comment="kpoint 23">
       <r>    2.2347    1.0000 </r>
       <r>    4.3908    1.0000 </r>
       <r>    4.3908    1.0000 </r>
       <r>   10.0589    0.0000 </r>
       <r>   10.0589    0.0000 </r>
       <r>   12.7911    0.0000 </r>
      </set>
      <set comment="kpoint 24">
       <r>    3.1437    1.0000 </r>
       <r>    4.1449    1.0000 </r>
       <r>    4.7870    1.0000 </r>
       <r>   10.2260    0.0000 </r>
       <r>   10.5368    0.0000 </r>
       <r>   14.9769    0.0000 </r>
      </set>
      <set comment="kpoint 25">
       <r>    3.1519    1.0000 </r>
       <r>    4.0730    1.0000 </r>
       <r>    5.6083    1.0335 </r>
       <r>   10.2862    0.0000 </r>
       <r>   10.6888    0.0000 </r>
       <r>   14.3748    0.0000 </r>
      </set>
      <set comment="kpoint 26">
       <r>   -0.3678    1.0000 </r>
       <r>    6.3725    0.0000 </r>
       <r>    6.3725    0.0000 </r>
       <r>    7.1721    0.0000 </r>
       <r>    7.3724    0.0000 </r>
       <r>   10.5888    0.0000 </r>
      </set>
      <set comment="kpoint 27">
       <r>    3.7466    1.0000 </r>
       <r>    4.4068    1.0000 </r>
       <r>    4.8348    1.0000 </r>
       <r>   10.5398    0.0000 </r>
       <r>   10.6695    0.0000 </r>
       <r>   13.6662    0.0000 </r>
      </set>
      <set comment="kpoint 28">
       <r>    0.8948    1.0000 </r>
       <r>    5.5168    1.0000 </r>
       <r>    6.0145    0.0000 </r>
       <r>    7.2413    0.0000 </r>
       <r>    8.7330    0.0000 </r>
       <r>   10.7934    0.0000 </r>
      </set>
      <set comment="kpoint 29">
       <r>    1.9402    1.0000 </r>
       <r>    4.8900    1.0000 </r>
       <r>    5.5066    1.0000 </r>
       <r>    8.0452    0.0000 </r>
       <r>   10.8606    0.0000 </r>
       <r>   10.8975    0.0000 </r>
      </set>
      <set comment="kpoint 30">
       <r>    2.0645    1.0000 </r>
       <r>    4.5720    1.0000 </r>
       <r>    6.1480    0.0000 </r>
       <r>    7.5240    0.0000 </r>
       <r>    9.9901    0.0000 </r>
       <r>   10.9591    0.0000 </r>
      </set>
      <set comment="kpoint 31">
       <r>    2.1640    1.0000 </r>
       <r>    5.2079    1.0000 </r>
       <r>    5.2602    1.0000 </r>
       <r>    8.0197    0.0000 </r>
       <r>   11.9945    0.0000 </r>
       <r>   12.8610    0.0000 </r>
      </set>
      <set comment="kpoint 32">
       <r>    2.7704    1.0000 </r>
       <r>    4.1866    1.0000 </r>
       <r>    5.7489   -0.0293 </r>
       <r>    8.1581    0.0000 </r>
       <r>   10.7282    0.0000 </r>
       <r>   12.9174    0.0000 </r>
      </set>
      <set comment="kpoint 33">
       <r>    2.7827    1.0000 </r>
       <r>    4.5647    1.0000 </r>
       <r>    5.3021    1.0000 </r>
       <r>    8.1526    0.0000 </r>
       <r>   11.7645    0.0000 </r>
       <r>   14.5716    0.0000 </r>
      </set>
      <set comment="kpoint 34">
       <r>    3.6509    1.0000 </r>
       <r>    3.7120    1.0000 </r>
       <r>    4.9775    1.0000 </r>
       <r>    9.4217    0.0000 </r>
       <r>   10.5907    0.0000 </r>
       <r>   15.3762    0.0000 </r>
      </set>
      <set comment="kpoint 35">
       <r>    4.4766    1.0000 </r>
       <r>    4.4766    1.0000 </r>
       <r>    4.4766    1.0000 </r>
       <r>   10.7481    0.0000 </r>
       <r>   10.7481    0.0000 </r>
       <r>   12.7506    0.0000 </r>
      </set>
      <set comment="kpoint 36">
       <r>    1.9713    1.0000 </r>
       <r>    4.7877    1.0000 </r>
       <r>    6.9620    0.0000 </r>
       <r>    6.9620    0.0000 </r>
       <r>    8.8918    0.0000 </r>
       <r>   10.6924    0.0000 </r>
      </set>
      <set comment="kpoint 37">
       <r>    2.7945    1.0000 </r>
       <r>    3.8579    1.0000 </r>
       <r>    7.0219    0.0000 </r>
       <r>    7.6124    0.0000 </r>
       <r>   10.5546    0.0000 </r>
       <r>   10.8413    0.0000 </r>
      </set>
      <set comment="kpoint 38">
       <r>    2.8301    1.0000 </r>
       <r>    3.7713    1.0000 </r>
       <r>    6.8517    0.0000 </r>
       <r>    7.4951    0.0000 </r>
       <r>   12.5509    0.0000 </r>
       <r>   12.8288    0.0000 </r>
      </set>
      <set comment="kpoint 39">
       <r>    3.1210    1.0000 </r>
       <r>    3.1836    1.0000 </r>
       <r>    6.8631    0.0000 </r>
       <r>    8.8402    0.0000 </r>
       <r>   10.8228    0.0000 </r>
       <r>   12.9348    0.0000 </r>
      </set>
      <set comment="kpoint 40">
       <r>    2.9120    1.0000 </r>
       <r>    3.2360    1.0000 </r>
       <r>    6.5855    0.0000 </r>
       <r>    9.3559    0.0000 </r>
       <r>   11.6678    0.0000 </r>
       <r>   15.2766    0.0000 </r>
      </set>
      <set comment="kpoint 41">
       <r>    2.8982    1.0000 </r>
       <r>    2.9981    1.0000 </r>
       <r>    8.6192    0.0000 </r>
       <r>    8.6192    0.0000 </r>
       <r>   10.7767    0.0000 </r>
       <r>   10.9491    0.0000 </r>
      </set>
      <set comment="kpoint 42">
       <r>    2.5186    1.0000 </r>
       <r>    2.6810    1.0000 </r>
       <r>    9.0833    0.0000 </r>
       <r>    9.0910    0.0000 </r>
       <r>   12.2699    0.0000 </r>
       <r>   13.0754    0.0000 </r>
      </set>
      <set comment="kpoint 43">
       <r>    2.3646    1.0000 </r>
       <r>    2.3646    1.0000 </r>
       <r>    9.0157    0.0000 </r>
       <r>   11.4455    0.0000 </r>
       <r>   11.4455    0.0000 </r>
       <r>   15.5847    0.0000 </r>
      </set>
      <set comment="kpoint 44">
       <r>    2.0627    1.0000 </r>
       <r>    2.1095    1.0000 </r>
       <r>   11.3491    0.0000 </r>
       <r>   11.3491    0.0000 </r>
       <r>   12.2590    0.0000 </r>
       <r>   13.5558    0.0000 </r>
      </set>
     </set>
     <set comment="spin 2">
      <set comment="kpoint 1">
       <r>   -1.5508    1.0000 </r>
       <r>    6.0869    0.0000 </r>
       <r>    6.0869    0.0000 </r>
       <r>    7.2022    0.0000 </r>
       <r>    9.4471    0.0000 </r>
       <r>    9.4471    0.0000 </r>
      </set>
      <set comment="kpoint 2">
       <r>   -0.4281    1.0000 </r>
       <r>    5.4135    1.0000 </r>
       <r>    5.5971    1.0243 </r>
       <r>    8.5519    0.0000 </r>
       <r>    9.1303    0.0000 </r>
       <r>    9.7150    0.0000 </r>
      </set>
      <set comment="kpoint 3">
       <r>    0.8979    1.0000 </r>
       <r>    4.7562    1.0000 </r>
       <r>    5.2951    1.0000 </r>
       <r>    9.3485    0.0000 </r>
       <r>   10.0428    0.0000 </r>
       <r>   10.5250    0.0000 </r>
      </set>
      <set comment="kpoint 4">
       <r>    1.5276    1.0000 </r>
       <r>    4.3064    1.0000 </r>
       <r>    6.1053    0.0000 </r>
       <r>    9.6709    0.0000 </r>
       <r>   10.4068    0.0000 </r>
       <r>   12.6616    0.0000 </r>
      </set>
      <set comment="kpoint 5">
       <r>    1.5854    1.0000 </r>
       <r>    4.1484    1.0000 </r>
       <r>    6.9802    0.0000 </r>
       <r>    9.6525    0.0000 </r>
       <r>   10.5916    0.0000 </r>
       <r>   13.8085    0.0000 </r>
      </set>
      <set comment="kpoint 6">
       <r>   -1.9666    1.0000 </r>
       <r>    6.4056    0.0000 </r>
       <r>    6.4056    0.0000 </r>
       <r>    6.5429    0.0000 </r>
       <r>    9.3106    0.0000 </r>
       <r>    9.8080    0.0000 </r>
      </set>
      <set comment="kpoint 7">
       <r>    0.8423    1.0000 </r>
       <r>    4.8676    1.0000 </r>
       <r>    4.9399    1.0000 </r>
       <r>    9.2053    0.0000 </r>
       <r>   10.0884    0.0000 </r>
       <r>   10.4491    0.0000 </r>
      </set>
      <set comment="kpoint 8">
       <r>    2.0091    1.0000 </r>
       <r>    4.3956    1.0000 </r>
       <r>    4.9721    1.0000 </r>
       <r>    9.5063    0.0000 </r>
       <r>   10.4311    0.0000 </r>
       <r>   12.6756    0.0000 </r>
      </set>
      <set comment="kpoint 9">
       <r>    2.2879    1.0000 </r>
       <r>    4.1810    1.0000 </r>
       <r>    5.9364    0.0000 </r>
       <r>    9.7584    0.0000 </r>
       <r>   10.6325    0.0000 </r>
       <r>   14.5295    0.0000 </r>
      </set>
      <set comment="kpoint 10">
       <r>   -1.1502    1.0000 </r>
       <r>    5.9516    0.0000 </r>
       <r>    6.1801    0.0000 </r>
       <r>    7.3561    0.0000 </r>
       <r>    8.6281    0.0000 </r>
       <r>    9.9907    0.0000 </r>
      </set>
      <set comment="kpoint 11">
       <r>    2.9287    1.0000 </r>
       <r>    4.2903    1.0000 </r>
       <r>    5.0078    1.0000 </r>
       <r>    9.8208    0.0000 </r>
       <r>   10.5289    0.0000 </r>
       <r>   14.9596    0.0000 </r>
      </set>
      <set comment="kpoint 12">
       <r>    3.1100    1.0000 </r>
       <r>    4.3743    1.0000 </r>
       <r>    5.2487    1.0000 </r>
       <r>   10.0603    0.0000 </r>
       <r>   10.5734    0.0000 </r>
       <r>   14.3796    0.0000 </r>
      </set>
      <set comment="kpoint 13">
       <r>    0.1713    1.0000 </r>
       <r>    5.2629    1.0000 </r>
       <r>    5.6086    1.0336 </r>
       <r>    8.6526    0.0000 </r>
       <r>    8.9701    0.0000 </r>
       <r>   10.1866    0.0000 </r>
      </set>
      <set comment="kpoint 14">
       <r>   -0.0680    1.0000 </r>
       <r>    5.6266    1.0234 </r>
       <r>    5.6973    0.1705 </r>
       <r>    8.0699    0.0000 </r>
       <r>    8.4760    0.0000 </r>
       <r>   10.3899    0.0000 </r>
      </set>
      <set comment="kpoint 15">
       <r>    1.2095    1.0000 </r>
       <r>    4.6682    1.0000 </r>
       <r>    5.6911    0.2540 </r>
       <r>    9.1853    0.0000 </r>
       <r>   10.4143    0.0000 </r>
       <r>   11.1069    0.0000 </r>
      </set>
      <set comment="kpoint 16">
       <r>    1.2357    1.0000 </r>
       <r>    4.9162    1.0000 </r>
       <r>    5.3479    1.0000 </r>
       <r>    8.3714    0.0000 </r>
       <r>   10.3055    0.0000 </r>
       <r>   10.6921    0.0000 </r>
      </set>
      <set comment="kpoint 17">
       <r>    1.4531    1.0000 </r>
       <r>    4.3360    1.0000 </r>
       <r>    6.6929    0.0000 </r>
       <r>    9.3446    0.0000 </r>
       <r>   10.7835    0.0000 </r>
       <r>   13.0558    0.0000 </r>
      </set>
      <set comment="kpoint 18">
       <r>    1.8929    1.0000 </r>
       <r>    4.6140    1.0000 </r>
       <r>    5.5944    1.0218 </r>
       <r>    8.9105    0.0000 </r>
       <r>   10.7268    0.0000 </r>
       <r>   12.6950    0.0000 </r>
      </set>
      <set comment="kpoint 19">
       <r>    2.3593    1.0000 </r>
       <r>    4.3209    1.0000 </r>
       <r>    5.3535    1.0000 </r>
       <r>    8.6781    0.0000 </r>
       <r>   10.4323    0.0000 </r>
       <r>   12.7661    0.0000 </r>
      </set>
      <set comment="kpoint 20">
       <r>    1.9491    1.0000 </r>
       <r>    4.5124    1.0000 </r>
       <r>    6.0881    0.0000 </r>
       <r>    8.8646    0.0000 </r>
       <r>   11.2344    0.0000 </r>
       <r>   13.9477    0.0000 </r>
      </set>
      <set comment="kpoint 21">
       <r>    2.8300    1.0000 </r>
       <r>    4.3788    1.0000 </r>
       <r>    5.2184    1.0000 </r>
       <r>    9.1472    0.0000 </r>
       <r>   10.6524    0.0000 </r>
       <r>   15.0569    0.0000 </r>
      </set>
      <set comment="kpoint 22">
       <r>    3.4897    1.0000 </r>
       <r>    4.4765    1.0000 </r>
       <r>    4.4765    1.0000 </r>
       <r>   10.1102    0.0000 </r>
       <r>   10.1102    0.0000 </r>
       <r>   14.6712    0.0000 </r>
      </set>
      <set comment="kpoint 23">
       <r>    2.2289    1.0000 </r>
       <r>    4.3829    1.0000 </r>
       <r>    4.3829    1.0000 </r>
       <r>   10.0553    0.0000 </r>
       <r>   10.0553    0.0000 </r>
       <r>   12.7833    0.0000 </r>
      </set>
      <set comment="kpoint 24">
       <r>    3.1372    1.0000 </r>
       <r>    4.1367    1.0000 </r>
       <r>    4.7804    1.0000 </r>
       <r>   10.2219    0.0000 </r>
       <r>   10.5333    0.0000 </r>
       <r>   14.9706    0.0000 </r>
      </set>
      <set comment="kpoint 25">
       <r>    3.1452    1.0000 </r>
       <r>    4.0646    1.0000 </r>
       <r>    5.6022    1.0289 </r>
       <r>   10.2820    0.0000 </r>
       <r>   10.6853    0.0000 </r>
       <r>   14.3655    0.0000 </r>
      </set>
      <set comment="kpoint 26">
       <r>   -0.3730    1.0000 </r>
       <r>    6.3631    0.0000 </r>
       <r>    6.3631    0.0000 </r>
       <r>    7.1702    0.0000 </r>
       <r>    7.3627    0.0000 </r>
       <r>   10.5864    0.0000 </r>
      </set>
      <set comment="kpoint 27">
       <r>    3.7389    1.0000 </r>
       <r>    4.3998    1.0000 </r>
       <r>    4.8281    1.0000 </r>
       <r>   10.5359    0.0000 </r>
       <r>   10.6659    0.0000 </r>
       <r>   13.6566    0.0000 </r>
      </set>
      <set comment="kpoint 28">
       <r>    0.8897    1.0000 </r>
       <r>    5.5124    1.0000 </r>
       <r>    6.0053    0.0000 </r>
       <r>    7.2347    0.0000 </r>
       <r>    8.7236    0.0000 </r>
       <r>   10.7900    0.0000 </r>
      </set>
      <set comment="kpoint 29">
       <r>    1.9349    1.0000 </r>
       <r>    4.8867    1.0000 </r>
       <r>    5.4974    1.0000 </r>
       <r>    8.0387    0.0000 </r>
       <r>   10.8518    0.0000 </r>
       <r>   10.8928    0.0000 </r>
      </set>
      <set comment="kpoint 30">
       <r>    2.0595    1.0000 </r>
       <r>    4.5685    1.0000 </r>
       <r>    6.1394    0.0000 </r>
       <r>    7.5164    0.0000 </r>
       <r>    9.9821    0.0000 </r>
       <r>   10.9535    0.0000 </r>
      </set>
      <set comment="kpoint 31">
       <r>    2.1587    1.0000 </r>
       <r>    5.1988    1.0000 </r>
       <r>    5.2571    1.0000 </r>
       <r>    8.0142    0.0000 </r>
       <r>   11.9889    0.0000 </r>
       <r>   12.8530    0.0000 </r>
      </set>
      <set comment="kpoint 32">
       <r>    2.7655    1.0000 </r>
       <r>    4.1832    1.0000 </r>
       <r>    5.7411   -0.0346 </r>
       <r>    8.1510    0.0000 </r>
       <r>   10.7213    0.0000 </r>
       <r>   12.9100    0.0000 </r>
      </set>
      <set comment="kpoint 33">
       <r>    2.7780    1.0000 </r>
       <r>    4.5617    1.0000 </r>
       <r>    5.2941    1.0000 </r>
       <r>    8.1457    0.0000 </r>
       <r>   11.7573    0.0000 </r>
       <r>   14.5649    0.0000 </r>
      </set>
      <set comment="kpoint 34">
       <r>    3.6465    1.0000 </r>
       <r>    3.7088    1.0000 </r>
       <r>    4.9702    1.0000 </r>
       <r>    9.4141    0.0000 </r>
       <r>   10.5833    0.0000 </r>
       <r>   15.3692    0.0000 </r>
      </set>
      <set comment="kpoint 35">
       <r>    4.4693    1.0000 </r>
       <r>    4.4693    1.0000 </r>
       <r>    4.4693    1.0000 </r>
       <r>   10.7446    0.0000 </r>
       <r>   10.7446    0.0000 </r>
       <r>   12.7407    0.0000 </r>
      </set>
      <set comment="kpoint 36">
       <r>    1.9668    1.0000 </r>
       <r>    4.7856    1.0000 </r>
       <r>    6.9530    0.0000 </r>
       <r>    6.9530    0.0000 </r>
       <r>    8.8825    0.0000 </r>
       <r>   10.6876    0.0000 </r>
      </set>
      <set comment="kpoint 37">
       <r>    2.7906    1.0000 </r>
       <r>    3.8554    1.0000 </r>
       <r>    7.0130    0.0000 </r>
       <r>    7.6044    0.0000 </r>
       <r>   10.5458    0.0000 </r>
       <r>   10.8351    0.0000 </r>
      </set>
      <set comment="kpoint 38">
       <r>    2.8267    1.0000 </r>
       <r>    3.7687    1.0000 </r>
       <r>    6.8427    0.0000 </r>
       <r>    7.4879    0.0000 </r>
       <r>   12.5428    0.0000 </r>
       <r>   12.8217    0.0000 </r>
      </set>
      <set comment="kpoint 39">
       <r>    3.1179    1.0000 </r>
       <r>    3.1812    1.0000 </r>
       <r>    6.8548    0.0000 </r>
       <r>    8.8318    0.0000 </r>
       <r>   10.8150    0.0000 </r>
       <r>   12.9272    0.0000 </r>
      </set>
      <set comment="kpoint 40">
       <r>    2.9094    1.0000 </r>
       <r>    3.2335    1.0000 </r>
       <r>    6.5771    0.0000 </r>
       <r>    9.3477    0.0000 </r>
       <r>   11.6598    0.0000 </r>
       <r>   15.2689    0.0000 </r>
      </set>
      <set comment="kpoint 41">
       <r>    2.8953    1.0000 </r>
       <r>    2.9959    1.0000 </r>
       <r>    8.6106    0.0000 </r>
       <r>    8.6106    0.0000 </r>
       <r>   10.7680    0.0000 </r>
       <r>   10.9422    0.0000 </r>
      </set>
      <set comment="kpoint 42">
       <r>    2.5163    1.0000 </r>
       <r>    2.6786    1.0000 </r>
       <r>    9.0751    0.0000 </r>
       <r>    9.0823    0.0000 </r>
       <r>   12.2618    0.0000 </r>
       <r>   13.0675    0.0000 </r>
      </set>
      <set comment="kpoint 43">
       <r>    2.3623    1.0000 </r>
       <r>    2.3623    1.0000 </r>
       <r>    9.0073    0.0000 </r>
       <r>   11.4372    0.0000 </r>
       <r>   11.4372    0.0000 </r>
       <r>   15.6380    0.0000 </r>
      </set>
      <set comment="kpoint 44">
       <r>    2.0605    1.0000 </r>
       <r>    2.1072    1.0000 </r>
       <r>   11.3408    0.0000 </r>
       <r>   11.3408    0.0000 </r>
       <r>   12.2510    0.0000 </r>
       <r>   13.5474    0.0000 </r>
      </set>
     </set>
    </set>
   </array>
  </eigenvalues>
  <separator name="orbital magnetization" >
   <v name="MAGDIPOLOUT">      0.00000000      0.00000000      0.00000000</v>
  </separator>
  <dos>
   <i name="efermi">      5.67578685 </i>
   <total>
    <array>
     <dimension dim="1">gridpoints</dimension>
     <dimension dim="2">spin</dimension>
     <field>energy</field>
     <field>total</field>
     <field>integrated</field>
     <set>
      <set comment="spin 1">
       <r>    -2.8469     0.0000     0.0000 </r>
       <r>    -2.7823     0.0000     0.0000 </r>
       <r>    -2.7178     0.0000     0.0000 </r>
       <r>    -2.6532     0.0000     0.0000 </r>
       <r>    -2.5886     0.0000     0.0000 </r>
       <r>    -2.5241     0.0000     0.0000 </r>
       <r>    -2.4595     0.0000     0.0000 </r>
       <r>    -2.3950     0.0000     0.0000 </r>
       <r>    -2.3304     0.0000     0.0000 </r>
       <r>    -2.2659     0.0000     0.0000 </r>
       <r>    -2.2013     0.0000     0.0000 </r>
       <r>    -2.1368     0.0000     0.0000 </r>
       <r>    -2.0722    -0.0003     0.0000 </r>
       <r>    -2.0077    -0.0012    -0.0001 </r>
       <r>    -1.9431     0.0745     0.0047 </r>
       <r>    -1.8786     0.0219     0.0061 </r>
       <r>    -1.8140    -0.0019     0.0060 </r>
       <r>    -1.7495     0.0000     0.0060 </r>
       <r>    -1.6849     0.0000     0.0060 </r>
       <r>    -1.6204    -0.0034     0.0058 </r>
       <r>    -1.5558     0.0441     0.0086 </r>
       <r>    -1.4913     0.0872     0.0143 </r>
       <r>    -1.4267    -0.0037     0.0140 </r>
       <r>    -1.3622    -0.0002     0.0140 </r>
       <r>    -1.2976     0.0000     0.0140 </r>
       <r>    -1.2331    -0.0059     0.0136 </r>
       <r>    -1.1685     0.0598     0.0175 </r>
       <r>    -1.1040     0.3159     0.0379 </r>
       <r>    -1.0394     0.0041     0.0381 </r>
       <r>    -0.9749    -0.0021     0.0380 </r>
       <r>    -0.9103     0.0000     0.0380 </r>
       <r>    -0.8458     0.0000     0.0380 </r>
       <r>    -0.7812     0.0000     0.0380 </r>
       <r>    -0.7167     0.0000     0.0380 </r>
       <r>    -0.6521     0.0000     0.0380 </r>
       <r>    -0.5876     0.0000     0.0380 </r>
       <r>    -0.5230    -0.0029     0.0378 </r>
       <r>    -0.4585     0.0146     0.0388 </r>
       <r>    -0.3939     0.3371     0.0605 </r>
       <r>    -0.3294     0.1187     0.0682 </r>
       <r>    -0.2648    -0.0021     0.0680 </r>
       <r>    -0.2003    -0.0008     0.0680 </r>
       <r>    -0.1357    -0.0108     0.0673 </r>
       <r>    -0.0712     0.1436     0.0766 </r>
       <r>    -0.0066     0.2515     0.0928 </r>
       <r>     0.0579    -0.0125     0.0920 </r>
       <r>     0.1225    -0.0118     0.0912 </r>
       <r>     0.1870     0.2606     0.1081 </r>
       <r>     0.2516     0.1335     0.1167 </r>
       <r>     0.3161    -0.0103     0.1160 </r>
       <r>     0.3807    -0.0001     0.1160 </r>
       <r>     0.4452     0.0000     0.1160 </r>
       <r>     0.5098     0.0000     0.1160 </r>
       <r>     0.5743     0.0000     0.1160 </r>
       <r>     0.6389     0.0000     0.1160 </r>
       <r>     0.7034    -0.0001     0.1160 </r>
       <r>     0.7680    -0.0091     0.1154 </r>
       <r>     0.8325     0.0786     0.1205 </r>
       <r>     0.8971     0.6557     0.1628 </r>
       <r>     0.9616     0.4168     0.1897 </r>
       <r>     1.0262    -0.0258     0.1881 </r>
       <r>     1.0907    -0.0013     0.1880 </r>
       <r>     1.1553    -0.0258     0.1863 </r>
       <r>     1.2198     0.3669     0.2100 </r>
       <r>     1.2844     0.7899     0.2610 </r>
       <r>     1.3489    -0.0129     0.2601 </r>
       <r>     1.4135    -0.0080     0.2596 </r>
       <r>     1.4780     0.2886     0.2783 </r>
       <r>     1.5426     0.3329     0.2997 </r>
       <r>     1.6071     0.2780     0.3177 </r>
       <r>     1.6717     0.0402     0.3203 </r>
       <r>     1.7362    -0.0044     0.3200 </r>
       <r>     1.8008    -0.0069     0.3196 </r>
       <r>     1.8653     0.0287     0.3214 </r>
       <r>     1.9299     0.8258     0.3747 </r>
       <r>     1.9944     0.8513     0.4297 </r>
       <r>     2.0590     0.8221     0.4827 </r>
       <r>     2.1235     0.3572     0.5058 </r>
       <r>     2.1881     0.3198     0.5264 </r>
       <r>     2.2526     0.1572     0.5366 </r>
       <r>     2.3172     0.6407     0.5779 </r>
       <r>     2.3817     0.6111     0.6174 </r>
       <r>     2.4463     0.1360     0.6262 </r>
       <r>     2.5108     0.1350     0.6349 </r>
       <r>     2.5754     0.2449     0.6507 </r>
       <r>     2.6399    -0.0090     0.6501 </r>
       <r>     2.7045     0.2744     0.6678 </r>
       <r>     2.7690     0.5685     0.7045 </r>
       <r>     2.8336     1.5732     0.8061 </r>
       <r>     2.8981     0.7552     0.8548 </r>
       <r>     2.9627     0.6140     0.8945 </r>
       <r>     3.0272     0.1042     0.9012 </r>
       <r>     3.0918     0.0687     0.9056 </r>
       <r>     3.1563     1.0671     0.9745 </r>
       <r>     3.2209     0.6570     1.0169 </r>
       <r>     3.2854     0.2766     1.0348 </r>
       <r>     3.3500    -0.0106     1.0341 </r>
       <r>     3.4145    -0.0035     1.0338 </r>
       <r>     3.4791     0.0274     1.0356 </r>
       <r>     3.5436     0.0988     1.0420 </r>
       <r>     3.6082    -0.0028     1.0418 </r>
       <r>     3.6727     0.3040     1.0614 </r>
       <r>     3.7373     0.5472     1.0968 </r>
       <r>     3.8018     0.6162     1.1365 </r>
       <r>     3.8664     0.2663     1.1537 </r>
       <r>     3.9309     0.1392     1.1627 </r>
       <r>     3.9955    -0.0155     1.1617 </r>
       <r>     4.0600     0.0484     1.1648 </r>
       <r>     4.1246     0.1746     1.1761 </r>
       <r>     4.1891     1.2848     1.2590 </r>
       <r>     4.2537     0.7508     1.3075 </r>
       <r>     4.3182     0.6041     1.3465 </r>
       <r>     4.3828     1.6997     1.4562 </r>
       <r>     4.4473     1.7010     1.5660 </r>
       <r>     4.5119     0.3658     1.5896 </r>
       <r>     4.5764     0.7585     1.6386 </r>
       <r>     4.6410     0.8929     1.6962 </r>
       <r>     4.7055     0.4476     1.7251 </r>
       <r>     4.7701     0.3558     1.7481 </r>
       <r>     4.8346     0.7089     1.7938 </r>
       <r>     4.8992     0.8371     1.8479 </r>
       <r>     4.9637     1.4117     1.9390 </r>
       <r>     5.0283     1.2229     2.0179 </r>
       <r>     5.0928     0.0739     2.0227 </r>
       <r>     5.1574    -0.0533     2.0193 </r>
       <r>     5.2219     0.6677     2.0624 </r>
       <r>     5.2865     1.6296     2.1676 </r>
       <r>     5.3510     1.1803     2.2437 </r>
       <r>     5.4156     0.8285     2.2972 </r>
       <r>     5.4801     0.2636     2.3142 </r>
       <r>     5.5447     0.5731     2.3512 </r>
       <r>     5.6092     1.1043     2.4225 </r>
       <r>     5.6738     1.1556     2.4971 </r>
       <r>     5.7383     0.8553     2.5523 </r>
       <r>     5.8029     0.5506     2.5879 </r>
       <r>     5.8674    -0.0527     2.5845 </r>
       <r>     5.9320     0.3011     2.6039 </r>
       <r>     5.9965     0.9217     2.6634 </r>
       <r>     6.0611     0.3202     2.6841 </r>
       <r>     6.1256     0.8737     2.7405 </r>
       <r>     6.1902     0.6661     2.7834 </r>
       <r>     6.2547     0.1778     2.7949 </r>
       <r>     6.3193    -0.0216     2.7935 </r>
       <r>     6.3838     0.1473     2.8030 </r>
       <r>     6.4484     0.2259     2.8176 </r>
       <r>     6.5129    -0.0023     2.8175 </r>
       <r>     6.5775     0.2242     2.8319 </r>
       <r>     6.6421     0.2507     2.8481 </r>
       <r>     6.7066     0.2446     2.8639 </r>
       <r>     6.7712     0.1225     2.8718 </r>
       <r>     6.8357     0.1323     2.8804 </r>
       <r>     6.9003     0.6017     2.9192 </r>
       <r>     6.9648     0.1405     2.9283 </r>
       <r>     7.0294     0.4837     2.9595 </r>
       <r>     7.0939     0.1413     2.9686 </r>
       <r>     7.1585     0.0051     2.9689 </r>
       <r>     7.2230     0.2442     2.9847 </r>
       <r>     7.2876     0.3283     3.0059 </r>
       <r>     7.3521     0.1232     3.0139 </r>
       <r>     7.4167     0.3429     3.0360 </r>
       <r>     7.4812     0.1024     3.0426 </r>
       <r>     7.5458     0.5763     3.0798 </r>
       <r>     7.6103     0.2455     3.0956 </r>
       <r>     7.6749     0.2046     3.1089 </r>
       <r>     7.7394    -0.0128     3.1080 </r>
       <r>     7.8040    -0.0004     3.1080 </r>
       <r>     7.8685     0.0000     3.1080 </r>
       <r>     7.9331    -0.0077     3.1075 </r>
       <r>     7.9976     0.0513     3.1108 </r>
       <r>     8.0622     0.7173     3.1571 </r>
       <r>     8.1267     0.4711     3.1875 </r>
       <r>     8.1913     0.9536     3.2491 </r>
       <r>     8.2558     0.0533     3.2525 </r>
       <r>     8.3204    -0.0332     3.2504 </r>
       <r>     8.3849     0.4950     3.2823 </r>
       <r>     8.4495     0.3071     3.3022 </r>
       <r>     8.5140     0.2955     3.3212 </r>
       <r>     8.5786     0.3151     3.3416 </r>
       <r>     8.6431     0.6294     3.3822 </r>
       <r>     8.7077     0.7865     3.4330 </r>
       <r>     8.7722     0.3426     3.4551 </r>
       <r>     8.8368     0.1809     3.4668 </r>
       <r>     8.9013     0.8125     3.5192 </r>
       <r>     8.9659     0.7257     3.5661 </r>
       <r>     9.0304     0.3227     3.5869 </r>
       <r>     9.0950     0.4959     3.6189 </r>
       <r>     9.1595     1.1135     3.6908 </r>
       <r>     9.2241     0.9523     3.7522 </r>
       <r>     9.2886     0.0766     3.7572 </r>
       <r>     9.3532     0.6536     3.7994 </r>
       <r>     9.4177     0.7753     3.8494 </r>
       <r>     9.4823     0.4822     3.8805 </r>
       <r>     9.5468     0.6498     3.9225 </r>
       <r>     9.6114     0.0114     3.9232 </r>
       <r>     9.6759     0.3341     3.9448 </r>
       <r>     9.7405     0.6743     3.9883 </r>
       <r>     9.8050     0.7891     4.0393 </r>
       <r>     9.8696     0.3611     4.0626 </r>
       <r>     9.9341    -0.0343     4.0603 </r>
       <r>     9.9987     0.4555     4.0898 </r>
       <r>    10.0632     0.9700     4.1524 </r>
       <r>    10.1278     0.8778     4.2090 </r>
       <r>    10.1923     0.3076     4.2289 </r>
       <r>    10.2569     0.4891     4.2605 </r>
       <r>    10.3214     0.6551     4.3027 </r>
       <r>    10.3860     0.5061     4.3354 </r>
       <r>    10.4505     1.8353     4.4539 </r>
       <r>    10.5151     0.8456     4.5085 </r>
       <r>    10.5796     1.8749     4.6295 </r>
       <r>    10.6442     1.4276     4.7216 </r>
       <r>    10.7087     2.1733     4.8619 </r>
       <r>    10.7733     1.7635     4.9758 </r>
       <r>    10.8378     1.1310     5.0488 </r>
       <r>    10.9024     0.8340     5.1026 </r>
       <r>    10.9669     0.4671     5.1328 </r>
       <r>    11.0315     0.1492     5.1424 </r>
       <r>    11.0960     0.0659     5.1466 </r>
       <r>    11.1606     0.2949     5.1657 </r>
       <r>    11.2251     0.1056     5.1725 </r>
       <r>    11.2897     0.2740     5.1902 </r>
       <r>    11.3542     0.1039     5.1969 </r>
       <r>    11.4188     0.1128     5.2042 </r>
       <r>    11.4833     0.2089     5.2177 </r>
       <r>    11.5479     0.0063     5.2181 </r>
       <r>    11.6124    -0.0133     5.2172 </r>
       <r>    11.6770     0.2489     5.2333 </r>
       <r>    11.7415     0.2030     5.2464 </r>
       <r>    11.8061     0.3034     5.2660 </r>
       <r>    11.8706     0.0021     5.2661 </r>
       <r>    11.9352    -0.0146     5.2652 </r>
       <r>    11.9997     0.2318     5.2801 </r>
       <r>    12.0643     0.1649     5.2908 </r>
       <r>    12.1288    -0.0118     5.2900 </r>
       <r>    12.1934    -0.0130     5.2892 </r>
       <r>    12.2579     0.1708     5.3002 </r>
       <r>    12.3225     0.3212     5.3209 </r>
       <r>    12.3870    -0.0134     5.3201 </r>
       <r>    12.4516    -0.0040     5.3198 </r>
       <r>    12.5161     0.0187     5.3210 </r>
       <r>    12.5807     0.3141     5.3413 </r>
       <r>    12.6452     0.0863     5.3468 </r>
       <r>    12.7098     1.4280     5.4390 </r>
       <r>    12.7743     0.6512     5.4811 </r>
       <r>    12.8389     0.5652     5.5175 </r>
       <r>    12.9034     0.6814     5.5615 </r>
       <r>    12.9680     0.8709     5.6177 </r>
       <r>    13.0325     0.0340     5.6199 </r>
       <r>    13.0971     0.6316     5.6607 </r>
       <r>    13.1616     0.0919     5.6666 </r>
       <r>    13.2262    -0.0099     5.6660 </r>
       <r>    13.2907     0.0000     5.6660 </r>
       <r>    13.3553     0.0000     5.6660 </r>
       <r>    13.4198     0.0000     5.6660 </r>
       <r>    13.4844    -0.0028     5.6658 </r>
       <r>    13.5489     0.0378     5.6683 </r>
       <r>    13.6135     0.0501     5.6715 </r>
       <r>    13.6780     0.2663     5.6887 </r>
       <r>    13.7426     0.1177     5.6963 </r>
       <r>    13.8071     0.0618     5.7003 </r>
       <r>    13.8717     0.1183     5.7079 </r>
       <r>    13.9362     0.0800     5.7131 </r>
       <r>    14.0008     0.2988     5.7324 </r>
       <r>    14.0653    -0.0042     5.7321 </r>
       <r>    14.1299    -0.0014     5.7320 </r>
       <r>    14.1944     0.0000     5.7320 </r>
       <r>    14.2590    -0.0008     5.7320 </r>
       <r>    14.3235    -0.0173     5.7308 </r>
       <r>    14.3881     0.3340     5.7524 </r>
       <r>    14.4526     0.2437     5.7681 </r>
       <r>    14.5172     0.1397     5.7772 </r>
       <r>    14.5817     0.8594     5.8326 </r>
       <r>    14.6463     0.1341     5.8413 </r>
       <r>    14.7108     0.0957     5.8475 </r>
       <r>    14.7754     0.0097     5.8481 </r>
       <r>    14.8399    -0.0018     5.8480 </r>
       <r>    14.9045    -0.0238     5.8464 </r>
       <r>    14.9690     0.3605     5.8697 </r>
       <r>    15.0336     0.4948     5.9016 </r>
       <r>    15.0981     0.6271     5.9421 </r>
       <r>    15.1627     0.0342     5.9443 </r>
       <r>    15.2272    -0.0139     5.9434 </r>
       <r>    15.2918     0.2786     5.9614 </r>
       <r>    15.3563     0.1818     5.9731 </r>
       <r>    15.4209     0.2959     5.9922 </r>
       <r>    15.4854    -0.0033     5.9920 </r>
       <r>    15.5500     0.0047     5.9923 </r>
       <r>    15.6145     0.1086     5.9993 </r>
       <r>    15.6791     0.0115     6.0001 </r>
       <r>    15.7436    -0.0014     6.0000 </r>
       <r>    15.8082     0.0000     6.0000 </r>
       <r>    15.8727     0.0000     6.0000 </r>
       <r>    15.9373     0.0000     6.0000 </r>
       <r>    16.0019     0.0000     6.0000 </r>
       <r>    16.0664     0.0000     6.0000 </r>
       <r>    16.1310     0.0000     6.0000 </r>
       <r>    16.1955     0.0000     6.0000 </r>
       <r>    16.2601     0.0000     6.0000 </r>
       <r>    16.3246     0.0000     6.0000 </r>
       <r>    16.3892     0.0000     6.0000 </r>
       <r>    16.4537     0.0000     6.0000 </r>
       <r>    16.5183     0.0000     6.0000 </r>
      </set>
      <set comment="spin 2">
       <r>    -2.8469     0.0000     0.0000 </r>
       <r>    -2.7823     0.0000     0.0000 </r>
       <r>    -2.7178     0.0000     0.0000 </r>
       <r>    -2.6532     0.0000     0.0000 </r>
       <r>    -2.5886     0.0000     0.0000 </r>
       <r>    -2.5241     0.0000     0.0000 </r>
       <r>    -2.4595     0.0000     0.0000 </r>
       <r>    -2.3950     0.0000     0.0000 </r>
       <r>    -2.3304     0.0000     0.0000 </r>
       <r>    -2.2659     0.0000     0.0000 </r>
       <r>    -2.2013     0.0000     0.0000 </r>
       <r>    -2.1368     0.0000     0.0000 </r>
       <r>    -2.0722    -0.0005     0.0000 </r>
       <r>    -2.0077     0.0009     0.0000 </r>
       <r>    -1.9431     0.0788     0.0051 </r>
       <r>    -1.8786     0.0152     0.0061 </r>
       <r>    -1.8140    -0.0015     0.0060 </r>
       <r>    -1.7495     0.0000     0.0060 </r>
       <r>    -1.6849    -0.0001     0.0060 </r>
       <r>    -1.6204    -0.0039     0.0057 </r>
       <r>    -1.5558     0.0554     0.0093 </r>
       <r>    -1.4913     0.0769     0.0143 </r>
       <r>    -1.4267    -0.0042     0.0140 </r>
       <r>    -1.3622    -0.0002     0.0140 </r>
       <r>    -1.2976     0.0000     0.0140 </r>
       <r>    -1.2331    -0.0076     0.0135 </r>
       <r>    -1.1685     0.0864     0.0191 </r>
       <r>    -1.1040     0.2987     0.0384 </r>
       <r>    -1.0394    -0.0044     0.0381 </r>
       <r>    -0.9749    -0.0014     0.0380 </r>
       <r>    -0.9103     0.0000     0.0380 </r>
       <r>    -0.8458     0.0000     0.0380 </r>
       <r>    -0.7812     0.0000     0.0380 </r>
       <r>    -0.7167     0.0000     0.0380 </r>
       <r>    -0.6521     0.0000     0.0380 </r>
       <r>    -0.5876     0.0000     0.0380 </r>
       <r>    -0.5230    -0.0041     0.0377 </r>
       <r>    -0.4585     0.0310     0.0397 </r>
       <r>    -0.3939     0.3444     0.0620 </r>
       <r>    -0.3294     0.0972     0.0682 </r>
       <r>    -0.2648    -0.0034     0.0680 </r>
       <r>    -0.2003    -0.0006     0.0680 </r>
       <r>    -0.1357    -0.0121     0.0672 </r>
       <r>    -0.0712     0.1780     0.0787 </r>
       <r>    -0.0066     0.2194     0.0929 </r>
       <r>     0.0579    -0.0139     0.0920 </r>
       <r>     0.1225    -0.0077     0.0915 </r>
       <r>     0.1870     0.2879     0.1100 </r>
       <r>     0.2516     0.1008     0.1165 </r>
       <r>     0.3161    -0.0084     0.1160 </r>
       <r>     0.3807    -0.0001     0.1160 </r>
       <r>     0.4452     0.0000     0.1160 </r>
       <r>     0.5098     0.0000     0.1160 </r>
       <r>     0.5743     0.0000     0.1160 </r>
       <r>     0.6389     0.0000     0.1160 </r>
       <r>     0.7034    -0.0001     0.1160 </r>
       <r>     0.7680    -0.0112     0.1153 </r>
       <r>     0.8325     0.1116     0.1225 </r>
       <r>     0.8971     0.6959     0.1674 </r>
       <r>     0.9616     0.3442     0.1896 </r>
       <r>     1.0262    -0.0245     0.1880 </r>
       <r>     1.0907    -0.0013     0.1879 </r>
       <r>     1.1553    -0.0278     0.1861 </r>
       <r>     1.2198     0.4602     0.2159 </r>
       <r>     1.2844     0.7107     0.2617 </r>
       <r>     1.3489    -0.0266     0.2600 </r>
       <r>     1.4135     0.0031     0.2602 </r>
       <r>     1.4780     0.3099     0.2802 </r>
       <r>     1.5426     0.3393     0.3021 </r>
       <r>     1.6071     0.2546     0.3185 </r>
       <r>     1.6717     0.0259     0.3202 </r>
       <r>     1.7362    -0.0033     0.3200 </r>
       <r>     1.8008    -0.0098     0.3194 </r>
       <r>     1.8653     0.0666     0.3237 </r>
       <r>     1.9299     0.8799     0.3805 </r>
       <r>     1.9944     0.8359     0.4344 </r>
       <r>     2.0590     0.7945     0.4857 </r>
       <r>     2.1235     0.3242     0.5066 </r>
       <r>     2.1881     0.3272     0.5278 </r>
       <r>     2.2526     0.1705     0.5388 </r>
       <r>     2.3172     0.6661     0.5818 </r>
       <r>     2.3817     0.5855     0.6196 </r>
       <r>     2.4463     0.0991     0.6260 </r>
       <r>     2.5108     0.1525     0.6358 </r>
       <r>     2.5754     0.2307     0.6507 </r>
       <r>     2.6399    -0.0048     0.6504 </r>
       <r>     2.7045     0.2762     0.6682 </r>
       <r>     2.7690     0.6657     0.7112 </r>
       <r>     2.8336     1.5780     0.8130 </r>
       <r>     2.8981     0.6825     0.8571 </r>
       <r>     2.9627     0.6051     0.8962 </r>
       <r>     3.0272     0.0737     0.9009 </r>
       <r>     3.0918     0.1248     0.9090 </r>
       <r>     3.1563     1.0984     0.9799 </r>
       <r>     3.2209     0.5881     1.0178 </r>
       <r>     3.2854     0.2636     1.0348 </r>
       <r>     3.3500    -0.0122     1.0341 </r>
       <r>     3.4145    -0.0043     1.0338 </r>
       <r>     3.4791     0.0436     1.0366 </r>
       <r>     3.5436     0.0851     1.0421 </r>
       <r>     3.6082     0.0028     1.0423 </r>
       <r>     3.6727     0.3198     1.0629 </r>
       <r>     3.7373     0.5900     1.1010 </r>
       <r>     3.8018     0.5594     1.1371 </r>
       <r>     3.8664     0.2705     1.1546 </r>
       <r>     3.9309     0.1251     1.1626 </r>
       <r>     3.9955    -0.0160     1.1616 </r>
       <r>     4.0600     0.0697     1.1661 </r>
       <r>     4.1246     0.2162     1.1801 </r>
       <r>     4.1891     1.3875     1.2696 </r>
       <r>     4.2537     0.5885     1.3076 </r>
       <r>     4.3182     0.7447     1.3557 </r>
       <r>     4.3828     1.8323     1.4740 </r>
       <r>     4.4473     1.4602     1.5682 </r>
       <r>     4.5119     0.3948     1.5937 </r>
       <r>     4.5764     0.7590     1.6427 </r>
       <r>     4.6410     0.9276     1.7026 </r>
       <r>     4.7055     0.3718     1.7266 </r>
       <r>     4.7701     0.4228     1.7539 </r>
       <r>     4.8346     0.6768     1.7976 </r>
       <r>     4.8992     0.8907     1.8550 </r>
       <r>     4.9637     1.4845     1.9509 </r>
       <r>     5.0283     1.0802     2.0206 </r>
       <r>     5.0928     0.0275     2.0224 </r>
       <r>     5.1574    -0.0414     2.0197 </r>
       <r>     5.2219     0.8018     2.0715 </r>
       <r>     5.2865     1.6334     2.1769 </r>
       <r>     5.3510     1.1818     2.2532 </r>
       <r>     5.4156     0.7349     2.3006 </r>
       <r>     5.4801     0.2618     2.3175 </r>
       <r>     5.5447     0.5551     2.3533 </r>
       <r>     5.6092     1.2608     2.4347 </r>
       <r>     5.6738     1.0223     2.5007 </r>
       <r>     5.7383     0.9221     2.5603 </r>
       <r>     5.8029     0.4282     2.5879 </r>
       <r>     5.8674    -0.0600     2.5840 </r>
       <r>     5.9320     0.4088     2.6104 </r>
       <r>     5.9965     0.8897     2.6678 </r>
       <r>     6.0611     0.2916     2.6867 </r>
       <r>     6.1256     0.9292     2.7466 </r>
       <r>     6.1902     0.6310     2.7874 </r>
       <r>     6.2547     0.1133     2.7947 </r>
       <r>     6.3193    -0.0150     2.7937 </r>
       <r>     6.3838     0.1879     2.8058 </r>
       <r>     6.4484     0.1909     2.8182 </r>
       <r>     6.5129    -0.0072     2.8177 </r>
       <r>     6.5775     0.2811     2.8358 </r>
       <r>     6.6421     0.1920     2.8482 </r>
       <r>     6.7066     0.2650     2.8653 </r>
       <r>     6.7712     0.0935     2.8714 </r>
       <r>     6.8357     0.2261     2.8860 </r>
       <r>     6.9003     0.5336     2.9204 </r>
       <r>     6.9648     0.1634     2.9310 </r>
       <r>     7.0294     0.4939     2.9629 </r>
       <r>     7.0939     0.0854     2.9684 </r>
       <r>     7.1585     0.0122     2.9692 </r>
       <r>     7.2230     0.2939     2.9881 </r>
       <r>     7.2876     0.2758     3.0059 </r>
       <r>     7.3521     0.1926     3.0184 </r>
       <r>     7.4167     0.2749     3.0361 </r>
       <r>     7.4812     0.1572     3.0463 </r>
       <r>     7.5458     0.5528     3.0819 </r>
       <r>     7.6103     0.2596     3.0987 </r>
       <r>     7.6749     0.1560     3.1088 </r>
       <r>     7.7394    -0.0115     3.1080 </r>
       <r>     7.8040    -0.0002     3.1080 </r>
       <r>     7.8685    -0.0001     3.1080 </r>
       <r>     7.9331    -0.0103     3.1073 </r>
       <r>     7.9976     0.0882     3.1130 </r>
       <r>     8.0622     0.7377     3.1606 </r>
       <r>     8.1267     0.4974     3.1928 </r>
       <r>     8.1913     0.9170     3.2519 </r>
       <r>     8.2558     0.0048     3.2522 </r>
       <r>     8.3204    -0.0240     3.2507 </r>
       <r>     8.3849     0.5505     3.2862 </r>
       <r>     8.4495     0.2715     3.3038 </r>
       <r>     8.5140     0.3111     3.3238 </r>
       <r>     8.5786     0.3241     3.3448 </r>
       <r>     8.6431     0.6401     3.3861 </r>
       <r>     8.7077     0.7936     3.4373 </r>
       <r>     8.7722     0.2843     3.4557 </r>
       <r>     8.8368     0.2379     3.4710 </r>
       <r>     8.9013     0.8313     3.5247 </r>
       <r>     8.9659     0.7030     3.5701 </r>
       <r>     9.0304     0.2855     3.5885 </r>
       <r>     9.0950     0.5750     3.6256 </r>
       <r>     9.1595     1.1100     3.6973 </r>
       <r>     9.2241     0.8790     3.7540 </r>
       <r>     9.2886     0.0483     3.7571 </r>
       <r>     9.3532     0.7645     3.8065 </r>
       <r>     9.4177     0.7112     3.8524 </r>
       <r>     9.4823     0.4742     3.8830 </r>
       <r>     9.5468     0.6309     3.9237 </r>
       <r>     9.6114    -0.0060     3.9233 </r>
       <r>     9.6759     0.3761     3.9476 </r>
       <r>     9.7405     0.6819     3.9916 </r>
       <r>     9.8050     0.7770     4.0418 </r>
       <r>     9.8696     0.3259     4.0628 </r>
       <r>     9.9341    -0.0339     4.0606 </r>
       <r>     9.9987     0.5101     4.0935 </r>
       <r>    10.0632     0.9814     4.1569 </r>
       <r>    10.1278     0.8342     4.2107 </r>
       <r>    10.1923     0.3060     4.2305 </r>
       <r>    10.2569     0.4920     4.2623 </r>
       <r>    10.3214     0.7157     4.3085 </r>
       <r>    10.3860     0.4631     4.3384 </r>
       <r>    10.4505     1.9119     4.4618 </r>
       <r>    10.5151     0.8419     4.5161 </r>
       <r>    10.5796     1.8918     4.6382 </r>
       <r>    10.6442     1.4234     4.7301 </r>
       <r>    10.7087     2.2287     4.8740 </r>
       <r>    10.7733     1.6578     4.9810 </r>
       <r>    10.8378     1.1749     5.0568 </r>
       <r>    10.9024     0.7492     5.1052 </r>
       <r>    10.9669     0.4647     5.1352 </r>
       <r>    11.0315     0.1062     5.1420 </r>
       <r>    11.0960     0.1186     5.1497 </r>
       <r>    11.1606     0.2535     5.1661 </r>
       <r>    11.2251     0.1279     5.1743 </r>
       <r>    11.2897     0.2501     5.1905 </r>
       <r>    11.3542     0.1221     5.1983 </r>
       <r>    11.4188     0.1133     5.2057 </r>
       <r>    11.4833     0.1950     5.2182 </r>
       <r>    11.5479    -0.0041     5.2180 </r>
       <r>    11.6124    -0.0067     5.2175 </r>
       <r>    11.6770     0.2858     5.2360 </r>
       <r>    11.7415     0.1931     5.2485 </r>
       <r>    11.8061     0.2802     5.2665 </r>
       <r>    11.8706    -0.0080     5.2660 </r>
       <r>    11.9352    -0.0120     5.2652 </r>
       <r>    11.9997     0.2638     5.2823 </r>
       <r>    12.0643     0.1298     5.2907 </r>
       <r>    12.1288    -0.0104     5.2900 </r>
       <r>    12.1934    -0.0152     5.2890 </r>
       <r>    12.2579     0.2343     5.3041 </r>
       <r>    12.3225     0.2619     5.3210 </r>
       <r>    12.3870    -0.0156     5.3200 </r>
       <r>    12.4516    -0.0055     5.3197 </r>
       <r>    12.5161     0.0465     5.3227 </r>
       <r>    12.5807     0.3037     5.3423 </r>
       <r>    12.6452     0.1555     5.3523 </r>
       <r>    12.7098     1.4941     5.4488 </r>
       <r>    12.7743     0.5547     5.4846 </r>
       <r>    12.8389     0.5830     5.5222 </r>
       <r>    12.9034     0.7295     5.5693 </r>
       <r>    12.9680     0.7700     5.6190 </r>
       <r>    13.0325     0.0582     5.6228 </r>
       <r>    13.0971     0.6373     5.6639 </r>
       <r>    13.1616     0.0388     5.6664 </r>
       <r>    13.2262    -0.0062     5.6660 </r>
       <r>    13.2907     0.0000     5.6660 </r>
       <r>    13.3553     0.0000     5.6660 </r>
       <r>    13.4198    -0.0001     5.6660 </r>
       <r>    13.4844    -0.0032     5.6658 </r>
       <r>    13.5489     0.0504     5.6690 </r>
       <r>    13.6135     0.0475     5.6721 </r>
       <r>    13.6780     0.3065     5.6919 </r>
       <r>    13.7426     0.0638     5.6960 </r>
       <r>    13.8071     0.0883     5.7017 </r>
       <r>    13.8717     0.0940     5.7078 </r>
       <r>    13.9362     0.1193     5.7155 </r>
       <r>    14.0008     0.2672     5.7327 </r>
       <r>    14.0653    -0.0105     5.7321 </r>
       <r>    14.1299    -0.0008     5.7320 </r>
       <r>    14.1944     0.0000     5.7320 </r>
       <r>    14.2590    -0.0016     5.7319 </r>
       <r>    14.3235    -0.0107     5.7312 </r>
       <r>    14.3881     0.4076     5.7575 </r>
       <r>    14.4526     0.1559     5.7676 </r>
       <r>    14.5172     0.2209     5.7818 </r>
       <r>    14.5817     0.8348     5.8357 </r>
       <r>    14.6463     0.0924     5.8417 </r>
       <r>    14.7108     0.0964     5.8479 </r>
       <r>    14.7754     0.0021     5.8480 </r>
       <r>    14.8399    -0.0017     5.8479 </r>
       <r>    14.9045    -0.0240     5.8464 </r>
       <r>    14.9690     0.4335     5.8744 </r>
       <r>    15.0336     0.4695     5.9047 </r>
       <r>    15.0981     0.6067     5.9438 </r>
       <r>    15.1627     0.0045     5.9441 </r>
       <r>    15.2272    -0.0014     5.9440 </r>
       <r>    15.2918     0.3045     5.9637 </r>
       <r>    15.3563     0.1805     5.9753 </r>
       <r>    15.4209     0.2685     5.9927 </r>
       <r>    15.4854    -0.0096     5.9921 </r>
       <r>    15.5500    -0.0029     5.9919 </r>
       <r>    15.6145     0.0202     5.9932 </r>
       <r>    15.6791     0.1051     6.0000 </r>
       <r>    15.7436     0.0013     6.0000 </r>
       <r>    15.8082    -0.0007     6.0000 </r>
       <r>    15.8727     0.0000     6.0000 </r>
       <r>    15.9373     0.0000     6.0000 </r>
       <r>    16.0019     0.0000     6.0000 </r>
       <r>    16.0664     0.0000     6.0000 </r>
       <r>    16.1310     0.0000     6.0000 </r>
       <r>    16.1955     0.0000     6.0000 </r>
       <r>    16.2601     0.0000     6.0000 </r>
       <r>    16.3246     0.0000     6.0000 </r>
       <r>    16.3892     0.0000     6.0000 </r>
       <r>    16.4537     0.0000     6.0000 </r>
       <r>    16.5183     0.0000     6.0000 </r>
      </set>
     </set>
    </array>
   </total>
   <partial>
    <array>
     <dimension dim="1">gridpoints</dimension>
     <dimension dim="2">spin</dimension>
     <dimension dim="3">ion</dimension>
     <field>energy</field>
     <field>  s</field>
     <field> py</field>
     <field> pz</field>
     <field> px</field>
     <field>dxy</field>
     <field>dyz</field>
     <field>dz2</field>
     <field>dxz</field>
     <field>dx2</field>
     <set>
      <set comment="ion 1">
       <set comment="spin 1">
        <r>    -2.8469     0.0000     0.0000     0.0000     0.0000     0.0000     0.0000     0.0000     0.0000     0.0000 </r>
        <r>    -2.7823     0.0000     0.0000     0.0000     0.0000     0.0000     0.0000     0.0000     0.0000     0.0000 </r>
        <r>    -2.7178     0.0000     0.0000     0.0000     0.0000     0.0000     0.0000     0.0000     0.0000     0.0000 </r>
        <r>    -2.6532     0.0000     0.0000     0.0000     0.0000     0.0000     0.0000     0.0000     0.0000     0.0000 </r>
        <r>    -2.5886     0.0000     0.0000     0.0000     0.0000     0.0000     0.0000     0.0000     0.0000     0.0000 </r>
        <r>    -2.5241     0.0000     0.0000     0.0000     0.0000     0.0000     0.0000     0.0000     0.0000     0.0000 </r>
        <r>    -2.4595     0.0000     0.0000     0.0000     0.0000     0.0000     0.0000     0.0000     0.0000     0.0000 </r>
        <r>    -2.3950     0.0000     0.0000     0.0000     0.0000     0.0000     0.0000     0.0000     0.0000     0.0000 </r>
        <r>    -2.3304     0.0000     0.0000     0.0000     0.0000     0.0000     0.0000     0.0000     0.0000     0.0000 </r>
        <r>    -2.2659     0.0000     0.0000     0.0000     0.0000     0.0000     0.0000     0.0000     0.0000     0.0000 </r>
        <r>    -2.2013     0.0000     0.0000     0.0000     0.0000     0.0000     0.0000     0.0000     0.0000     0.0000 </r>
        <r>    -2.1368     0.0000     0.0000     0.0000     0.0000     0.0000     0.0000     0.0000     0.0000     0.0000 </r>
        <r>    -2.0722    -0.0003     0.0000     0.0000     0.0000     0.0000     0.0000     0.0000     0.0000     0.0000 </r>
        <r>    -2.0077    -0.0010     0.0000     0.0000     0.0000     0.0000     0.0000     0.0000     0.0000     0.0000 </r>
        <r>    -1.9431     0.0627     0.0002     0.0006     0.0004     0.0000     0.0000     0.0000     0.0000     0.0000 </r>
        <r>    -1.8786     0.0184     0.0001     0.0002     0.0001     0.0000     0.0000     0.0000     0.0000     0.0000 </r>
        <r>    -1.8140    -0.0016     0.0000     0.0000     0.0000     0.0000     0.0000     0.0000     0.0000     0.0000 </r>
        <r>    -1.7495     0.0000     0.0000     0.0000     0.0000     0.0000     0.0000     0.0000     0.0000     0.0000 </r>
        <r>    -1.6849     0.0000     0.0000     0.0000     0.0000     0.0000     0.0000     0.0000     0.0000     0.0000 </r>
        <r>    -1.6204    -0.0028     0.0000    -0.0001     0.0000     0.0000     0.0000     0.0000     0.0000     0.0000 </r>
        <r>    -1.5558     0.0359     0.0005     0.0014     0.0002     0.0000     0.0001     0.0000     0.0000     0.0000 </r>
        <r>    -1.4913     0.0711     0.0009     0.0027     0.0005     0.0000     0.0002     0.0001     0.0001     0.0000 </r>
        <r>    -1.4267    -0.0030     0.0000    -0.0001     0.0000     0.0000     0.0000     0.0000     0.0000     0.0000 </r>
[...]
       <set comment="band 1">
        <r>  0.5681 </r>
       </set>
       <set comment="band 2">
        <r>  0.0000 </r>
       </set>
       <set comment="band 3">
        <r>  0.0362 </r>
       </set>
       <set comment="band 4">
        <r>  0.0041 </r>
       </set>
       <set comment="band 5">
        <r>  0.0000 </r>
       </set>
       <set comment="band 6">
        <r>  0.0014 </r>
       </set>
      </set>
      <set comment="kpoint 4">
       <set comment="band 1">
        <r>  0.3529 </r>
       </set>
       <set comment="band 2">
        <r>  0.0000 </r>
       </set>
       <set comment="band 3">
        <r>  0.0694 </r>
       </set>
       <set comment="band 4">
        <r>  0.0235 </r>
       </set>
       <set comment="band 5">
        <r>  0.0000 </r>
       </set>
       <set comment="band 6">
        <r>  0.0001 </r>
       </set>
      </set>
      <set comment="kpoint 5">
       <set comment="band 1">
        <r>  0.2781 </r>
       </set>
       <set comment="band 2">
        <r>  0.0000 </r>
       </set>
       <set comment="band 3">
        <r>  0.0000 </r>
       </set>
       <set comment="band 4">
        <r>  0.0736 </r>
       </set>
       <set comment="band 5">
        <r>  0.0000 </r>
       </set>
       <set comment="band 6">
        <r>  0.0000 </r>
       </set>
      </set>
      <set comment="kpoint 6">
       <set comment="band 1">
        <r>  0.8419 </r>
       </set>
       <set comment="band 2">
        <r>  0.0000 </r>
       </set>
       <set comment="band 3">
        <r>  0.0000 </r>
       </set>
       <set comment="band 4">
        <r>  0.0000 </r>
       </set>
       <set comment="band 5">
        <r>  0.0000 </r>
       </set>
       <set comment="band 6">
        <r>  0.0002 </r>
       </set>
      </set>
      <set comment="kpoint 7">
       <set comment="band 1">
        <r>  0.6231 </r>
       </set>
       <set comment="band 2">
        <r>  0.0000 </r>
       </set>
       <set comment="band 3">
        <r>  0.0055 </r>
       </set>
       <set comment="band 4">
        <r>  0.0000 </r>
       </set>
       <set comment="band 5">
        <r>  0.0040 </r>
       </set>
       <set comment="band 6">
        <r>  0.0037 </r>
       </set>
      </set>
      <set comment="kpoint 8">
       <set comment="band 1">
        <r>  0.4209 </r>
       </set>
       <set comment="band 2">
        <r>  0.0002 </r>
       </set>
       <set comment="band 3">
        <r>  0.0467 </r>
       </set>
       <set comment="band 4">
        <r>  0.0028 </r>
       </set>
       <set comment="band 5">
        <r>  0.0140 </r>
       </set>
       <set comment="band 6">
        <r>  0.0025 </r>
       </set>
      </set>
      <set comment="kpoint 9">
       <set comment="band 1">
        <r>  0.2497 </r>
       </set>
       <set comment="band 2">
        <r>  0.0000 </r>
       </set>
       <set comment="band 3">
        <r>  0.0255 </r>
       </set>
       <set comment="band 4">
        <r>  0.0412 </r>
       </set>
       <set comment="band 5">
        <r>  0.0091 </r>
       </set>
       <set comment="band 6">
        <r>  0.0001 </r>
       </set>
      </set>
      <set comment="kpoint 10">
       <set comment="band 1">
        <r>  0.7875 </r>
       </set>
       <set comment="band 2">
        <r>  0.0000 </r>
       </set>
       <set comment="band 3">
        <r>  0.0012 </r>
       </set>
       <set comment="band 4">
        <r>  0.0000 </r>
       </set>
       <set comment="band 5">
        <r>  0.0000 </r>
       </set>
       <set comment="band 6">
        <r>  0.0018 </r>
       </set>
      </set>
      <set comment="kpoint 11">
       <set comment="band 1">
        <r>  0.2389 </r>
       </set>
       <set comment="band 2">
        <r>  0.0000 </r>
       </set>
       <set comment="band 3">
        <r>  0.0425 </r>
       </set>
       <set comment="band 4">
        <r>  0.0000 </r>
       </set>
       <set comment="band 5">
        <r>  0.0417 </r>
       </set>
       <set comment="band 6">
        <r>  0.0006 </r>
       </set>
      </set>
      <set comment="kpoint 12">
       <set comment="band 1">
        <r>  0.1618 </r>
       </set>
       <set comment="band 2">
        <r>  0.0008 </r>
       </set>
       <set comment="band 3">
        <r>  0.0000 </r>
       </set>
       <set comment="band 4">
        <r>  0.0244 </r>
       </set>
       <set comment="band 5">
        <r>  0.0000 </r>
       </set>
       <set comment="band 6">
        <r>  0.6778 </r>
       </set>
      </set>
      <set comment="kpoint 13">
       <set comment="band 1">
        <r>  0.6650 </r>
       </set>
       <set comment="band 2">
        <r>  0.0000 </r>
       </set>
       <set comment="band 3">
        <r>  0.0165 </r>
       </set>
       <set comment="band 4">
        <r>  0.0001 </r>
       </set>
       <set comment="band 5">
        <r>  0.0000 </r>
       </set>
       <set comment="band 6">
        <r>  0.0072 </r>
       </set>
      </set>
      <set comment="kpoint 14">
       <set comment="band 1">
        <r>  0.7005 </r>
       </set>
       <set comment="band 2">
        <r>  0.0000 </r>
       </set>
       <set comment="band 3">
        <r>  0.0030 </r>
       </set>
       <set comment="band 4">
        <r>  0.0000 </r>
       </set>
       <set comment="band 5">
        <r>  0.0013 </r>
       </set>
       <set comment="band 6">
        <r>  0.0119 </r>
       </set>
      </set>
      <set comment="kpoint 15">
       <set comment="band 1">
        <r>  0.4531 </r>
       </set>
       <set comment="band 2">
        <r>  0.0000 </r>
       </set>
       <set comment="band 3">
        <r>  0.0664 </r>
       </set>
       <set comment="band 4">
        <r>  0.0032 </r>
       </set>
       <set comment="band 5">
        <r>  0.0203 </r>
       </set>
       <set comment="band 6">
        <r>  0.0000 </r>
       </set>
      </set>
      <set comment="kpoint 16">
       <set comment="band 1">
        <r>  0.5375 </r>
       </set>
       <set comment="band 2">
        <r>  0.0041 </r>
       </set>
       <set comment="band 3">
        <r>  0.0184 </r>
       </set>
       <set comment="band 4">
        <r>  0.0000 </r>
       </set>
       <set comment="band 5">
        <r>  0.0037 </r>
       </set>
       <set comment="band 6">
        <r>  0.0376 </r>
       </set>
      </set>
      <set comment="kpoint 17">
       <set comment="band 1">
        <r>  0.3003 </r>
       </set>
       <set comment="band 2">
        <r>  0.0000 </r>
       </set>
       <set comment="band 3">
        <r>  0.0285 </r>
       </set>
       <set comment="band 4">
        <r>  0.0567 </r>
       </set>
       <set comment="band 5">
        <r>  0.0089 </r>
       </set>
       <set comment="band 6">
        <r>  0.0000 </r>
       </set>
      </set>
      <set comment="kpoint 18">
       <set comment="band 1">
        <r>  0.3240 </r>
       </set>
       <set comment="band 2">
        <r>  0.0035 </r>
       </set>
       <set comment="band 3">
        <r>  0.0436 </r>
       </set>
       <set comment="band 4">
        <r>  0.0201 </r>
       </set>
       <set comment="band 5">
        <r>  0.0563 </r>
       </set>
       <set comment="band 6">
        <r>  0.0057 </r>
       </set>
      </set>
      <set comment="kpoint 19">
       <set comment="band 1">
        <r>  0.3673 </r>
       </set>
       <set comment="band 2">
        <r>  0.0000 </r>
       </set>
       <set comment="band 3">
        <r>  0.0163 </r>
       </set>
       <set comment="band 4">
        <r>  0.0000 </r>
       </set>
       <set comment="band 5">
        <r>  0.0830 </r>
       </set>
       <set comment="band 6">
        <r>  0.0190 </r>
       </set>
      </set>
      <set comment="kpoint 20">
       <set comment="band 1">
        <r>  0.2466 </r>
       </set>
       <set comment="band 2">
        <r>  0.0014 </r>
       </set>
       <set comment="band 3">
        <r>  0.0000 </r>
       </set>
       <set comment="band 4">
        <r>  0.0862 </r>
       </set>
       <set comment="band 5">
        <r>  0.0000 </r>
       </set>
       <set comment="band 6">
        <r>  0.0000 </r>
       </set>
      </set>
      <set comment="kpoint 21">
       <set comment="band 1">
        <r>  0.2135 </r>
       </set>
       <set comment="band 2">
        <r>  0.0103 </r>
       </set>
       <set comment="band 3">
        <r>  0.0025 </r>
       </set>
       <set comment="band 4">
        <r>  0.0361 </r>
       </set>
       <set comment="band 5">
        <r>  0.0446 </r>
       </set>
       <set comment="band 6">
        <r>  0.0325 </r>
       </set>
      </set>
      <set comment="kpoint 22">
       <set comment="band 1">
        <r>  0.1779 </r>
       </set>
       <set comment="band 2">
        <r>  0.0000 </r>
       </set>
       <set comment="band 3">
        <r>  0.0000 </r>
       </set>
       <set comment="band 4">
        <r>  0.0000 </r>
       </set>
       <set comment="band 5">
        <r>  0.0000 </r>
       </set>
       <set comment="band 6">
        <r>  0.6076 </r>
       </set>
      </set>
      <set comment="kpoint 23">
       <set comment="band 1">
        <r>  0.5007 </r>
       </set>
       <set comment="band 2">
        <r>  0.0000 </r>
       </set>
       <set comment="band 3">
        <r>  0.0000 </r>
       </set>
       <set comment="band 4">
        <r>  0.0000 </r>
       </set>
       <set comment="band 5">
        <r>  0.0000 </r>
       </set>
       <set comment="band 6">
        <r>  0.0036 </r>
       </set>
      </set>
      <set comment="kpoint 24">
       <set comment="band 1">
        <r>  0.2503 </r>
       </set>
       <set comment="band 2">
        <r>  0.0000 </r>
       </set>
       <set comment="band 3">
        <r>  0.0613 </r>
       </set>
       <set comment="band 4">
        <r>  0.0084 </r>
       </set>
       <set comment="band 5">
        <r>  0.0000 </r>
       </set>
       <set comment="band 6">
        <r>  0.0000 </r>
       </set>
      </set>
      <set comment="kpoint 25">
       <set comment="band 1">
        <r>  0.1617 </r>
       </set>
       <set comment="band 2">
        <r>  0.0000 </r>
       </set>
       <set comment="band 3">
        <r>  0.0000 </r>
       </set>
       <set comment="band 4">
        <r>  0.0356 </r>
       </set>
       <set comment="band 5">
        <r>  0.0000 </r>
       </set>
       <set comment="band 6">
        <r>  0.7001 </r>
       </set>
      </set>
      <set comment="kpoint 26">
       <set comment="band 1">
        <r>  0.7281 </r>
       </set>
       <set comment="band 2">
        <r>  0.0000 </r>
       </set>
       <set comment="band 3">
        <r>  0.0000 </r>
       </set>
       <set comment="band 4">
        <r>  0.0000 </r>
       </set>
       <set comment="band 5">
        <r>  0.0000 </r>
       </set>
       <set comment="band 6">
        <r>  0.0165 </r>
       </set>
      </set>
      <set comment="kpoint 27">
       <set comment="band 1">
        <r>  0.0789 </r>
       </set>
       <set comment="band 2">
        <r>  0.0000 </r>
       </set>
       <set comment="band 3">
        <r>  0.0354 </r>
       </set>
       <set comment="band 4">
        <r>  0.0000 </r>
       </set>
       <set comment="band 5">
        <r>  0.0071 </r>
       </set>
       <set comment="band 6">
        <r>  0.7998 </r>
       </set>
      </set>
      <set comment="kpoint 28">
       <set comment="band 1">
        <r>  0.5993 </r>
       </set>
       <set comment="band 2">
        <r>  0.0034 </r>
       </set>
       <set comment="band 3">
        <r>  0.0000 </r>
       </set>
       <set comment="band 4">
        <r>  0.0008 </r>
       </set>
       <set comment="band 5">
        <r>  0.0000 </r>
       </set>
       <set comment="band 6">
        <r>  0.0592 </r>
       </set>
      </set>
      <set comment="kpoint 29">
       <set comment="band 1">
        <r>  0.3902 </r>
       </set>
       <set comment="band 2">
        <r>  0.0300 </r>
       </set>
       <set comment="band 3">
        <r>  0.0000 </r>
       </set>
       <set comment="band 4">
        <r>  0.0046 </r>
       </set>
       <set comment="band 5">
        <r>  0.0000 </r>
       </set>
       <set comment="band 6">
        <r>  0.1271 </r>
       </set>
      </set>
      <set comment="kpoint 30">
       <set comment="band 1">
        <r>  0.4318 </r>
       </set>
       <set comment="band 2">
        <r>  0.0000 </r>
       </set>
       <set comment="band 3">
        <r>  0.0012 </r>
       </set>
       <set comment="band 4">
        <r>  0.0000 </r>
       </set>
       <set comment="band 5">
        <r>  0.0266 </r>
       </set>
       <set comment="band 6">
        <r>  0.1288 </r>
       </set>
      </set>
      <set comment="kpoint 31">
       <set comment="band 1">
        <r>  0.2271 </r>
       </set>
       <set comment="band 2">
        <r>  0.0000 </r>
       </set>
       <set comment="band 3">
        <r>  0.0172 </r>
       </set>
       <set comment="band 4">
        <r>  0.0915 </r>
       </set>
       <set comment="band 5">
        <r>  0.0506 </r>
       </set>
       <set comment="band 6">
        <r>  0.0000 </r>
       </set>
      </set>
      <set comment="kpoint 32">
       <set comment="band 1">
        <r>  0.2258 </r>
       </set>
       <set comment="band 2">
        <r>  0.0236 </r>
       </set>
       <set comment="band 3">
        <r>  0.0050 </r>
       </set>
       <set comment="band 4">
        <r>  0.0346 </r>
       </set>
       <set comment="band 5">
        <r>  0.1196 </r>
       </set>
       <set comment="band 6">
        <r>  0.0576 </r>
       </set>
      </set>
      <set comment="kpoint 33">
       <set comment="band 1">
        <r>  0.1361 </r>
       </set>
       <set comment="band 2">
        <r>  0.0000 </r>
       </set>
       <set comment="band 3">
        <r>  0.0448 </r>
       </set>
       <set comment="band 4">
        <r>  0.0954 </r>
       </set>
       <set comment="band 5">
        <r>  0.0000 </r>
       </set>
       <set comment="band 6">
        <r>  0.0000 </r>
       </set>
      </set>
      <set comment="kpoint 34">
       <set comment="band 1">
        <r>  0.1011 </r>
       </set>
       <set comment="band 2">
        <r>  0.0000 </r>
       </set>
       <set comment="band 3">
        <r>  0.0840 </r>
       </set>
       <set comment="band 4">
        <r>  0.0000 </r>
       </set>
       <set comment="band 5">
        <r>  0.0594 </r>
       </set>
       <set comment="band 6">
        <r>  0.2755 </r>
       </set>
      </set>
      <set comment="kpoint 35">
       <set comment="band 1">
        <r>  0.0000 </r>
       </set>
       <set comment="band 2">
        <r>  0.0000 </r>
       </set>
       <set comment="band 3">
        <r>  0.0000 </r>
       </set>
       <set comment="band 4">
        <r>  0.0000 </r>
       </set>
       <set comment="band 5">
        <r>  0.0000 </r>
       </set>
       <set comment="band 6">
        <r>  0.9509 </r>
       </set>
      </set>
      <set comment="kpoint 36">
       <set comment="band 1">
        <r>  0.4479 </r>
       </set>
       <set comment="band 2">
        <r>  0.0000 </r>
       </set>
       <set comment="band 3">
        <r>  0.0000 </r>
       </set>
       <set comment="band 4">
        <r>  0.0000 </r>
       </set>
       <set comment="band 5">
        <r>  0.0000 </r>
       </set>
       <set comment="band 6">
        <r>  0.1756 </r>
       </set>
      </set>
      <set comment="kpoint 37">
       <set comment="band 1">
        <r>  0.2369 </r>
       </set>
       <set comment="band 2">
        <r>  0.0051 </r>
       </set>
       <set comment="band 3">
        <r>  0.0000 </r>
       </set>
       <set comment="band 4">
        <r>  0.0270 </r>
       </set>
       <set comment="band 5">
        <r>  0.0000 </r>
       </set>
       <set comment="band 6">
        <r>  0.2731 </r>
       </set>
      </set>
      <set comment="kpoint 38">
       <set comment="band 1">
        <r>  0.0785 </r>
       </set>
       <set comment="band 2">
        <r>  0.0115 </r>
       </set>
       <set comment="band 3">
        <r>  0.0000 </r>
       </set>
       <set comment="band 4">
        <r>  0.1581 </r>
       </set>
       <set comment="band 5">
        <r>  0.0000 </r>
       </set>
       <set comment="band 6">
        <r>  0.1160 </r>
       </set>
      </set>
      <set comment="kpoint 39">
       <set comment="band 1">
        <r>  0.0770 </r>
       </set>
       <set comment="band 2">
        <r>  0.0000 </r>
       </set>
       <set comment="band 3">
        <r>  0.0803 </r>
       </set>
       <set comment="band 4">
        <r>  0.0000 </r>
       </set>
       <set comment="band 5">
        <r>  0.1508 </r>
       </set>
       <set comment="band 6">
        <r>  0.1174 </r>
       </set>
      </set>
      <set comment="kpoint 40">
       <set comment="band 1">
        <r>  0.0138 </r>
       </set>
       <set comment="band 2">
        <r>  0.0000 </r>
       </set>
       <set comment="band 3">
        <r>  0.1263 </r>
       </set>
       <set comment="band 4">
        <r>  0.0387 </r>
       </set>
       <set comment="band 5">
        <r>  0.0000 </r>
       </set>
       <set comment="band 6">
        <r>  0.0000 </r>
       </set>
      </set>
      <set comment="kpoint 41">
       <set comment="band 1">
        <r>  0.0745 </r>
       </set>
       <set comment="band 2">
        <r>  0.0000 </r>
       </set>
       <set comment="band 3">
        <r>  0.0000 </r>
       </set>
       <set comment="band 4">
        <r>  0.0000 </r>
       </set>
       <set comment="band 5">
        <r>  0.0000 </r>
       </set>
       <set comment="band 6">
        <r>  0.3872 </r>
       </set>
      </set>
      <set comment="kpoint 42">
       <set comment="band 1">
        <r>  0.0043 </r>
       </set>
       <set comment="band 2">
        <r>  0.0072 </r>
       </set>
       <set comment="band 3">
        <r>  0.1054 </r>
       </set>
       <set comment="band 4">
        <r>  0.0000 </r>
       </set>
       <set comment="band 5">
        <r>  0.0000 </r>
       </set>
       <set comment="band 6">
        <r>  0.1686 </r>
       </set>
      </set>
      <set comment="kpoint 43">
       <set comment="band 1">
        <r>  0.0000 </r>
       </set>
       <set comment="band 2">
        <r>  0.0000 </r>
       </set>
       <set comment="band 3">
        <r>  0.0753 </r>
       </set>
       <set comment="band 4">
        <r>  0.0000 </r>
       </set>
       <set comment="band 5">
        <r>  0.0000 </r>
       </set>
       <set comment="band 6">
        <r>  0.2488 </r>
       </set>
      </set>
      <set comment="kpoint 44">
       <set comment="band 1">
        <r>  0.0000 </r>
       </set>
       <set comment="band 2">
        <r>  0.0007 </r>
       </set>
       <set comment="band 3">
        <r>  0.0000 </r>
       </set>
       <set comment="band 4">
        <r>  0.0000 </r>
       </set>
       <set comment="band 5">
        <r>  0.0000 </r>
       </set>
       <set comment="band 6">
        <r>  0.1261 </r>
       </set>
      </set>
     </set>
    </set>
   </array>
  </projected>
 </calculation>
 <structure name="finalpos" >
  <crystal>
   <varray name="basis" >
    <v>       2.86654409       0.00000000       0.00000000 </v>
    <v>      -0.95551470       2.70260368       0.00000000 </v>
    <v>      -0.95551470      -1.35130184       2.34052345 </v>
   </varray>
   <i name="volume">     18.13234550 </i>
   <varray name="rec_basis" >
    <v>       0.34885213       0.12333785       0.21362743 </v>
    <v>       0.00000000       0.37001356       0.21362743 </v>
    <v>       0.00000000       0.00000000       0.42725485 </v>
   </varray>
  </crystal>
  <varray name="positions" >
   <v>       0.00000000       0.00000000       0.00000000 </v>
  </varray>
 </structure>
</modeling>
