<?xml version="1.0" encoding="ISO-8859-1"?>
<modeling>
 <generator>
  <i name="program" type="string">vasp </i>
  <i name="version" type="string">5.2.12  </i>
  <i name="subversion" type="string">11Nov11 complex                                                      parallel </i>
  <i name="platform" type="string">LinuxIFC </i>
  <i name="date" type="string">2012 10 14 </i>
  <i name="time" type="string">15:12:12 </i>
 </generator>
 <incar>
  <i type="string" name="PREC">accurate</i>
  <i name="ENCUT">    500.00000000</i>
  <i type="logical" name="LREAL"> F  </i>
  <i type="int" name="ISMEAR">     1</i>
  <i name="SIGMA">      0.05000000</i>
 </incar>
 <kpoints>
  <generation param="Monkhorst-Pack">
   <v type="int" name="divisions">      10       10       10 </v>
   <v name="usershift">      0.00000000       0.00000000       0.00000000 </v>
   <v name="genvec1">      0.10000000       0.00000000       0.00000000 </v>
   <v name="genvec2">      0.00000000       0.10000000       0.00000000 </v>
   <v name="genvec3">      0.00000000       0.00000000       0.10000000 </v>
   <v name="shift">      0.50000000       0.50000000       0.50000000 </v>
  </generation>
  <varray name="kpointlist" >
   <v>       0.05000000       0.05000000       0.05000000 </v>
   <v>       0.15000000       0.05000000       0.05000000 </v>
   <v>       0.25000000       0.05000000       0.05000000 </v>
   <v>       0.35000000       0.05000000       0.05000000 </v>
   <v>       0.45000000       0.05000000       0.05000000 </v>
   <v>      -0.05000000       0.05000000       0.05000000 </v>
   <v>       0.15000000       0.15000000       0.05000000 </v>
   <v>       0.25000000       0.15000000       0.05000000 </v>
   <v>       0.35000000       0.15000000       0.05000000 </v>
   <v>      -0.15000000       0.15000000       0.05000000 </v>
   <v>       0.25000000       0.25000000       0.05000000 </v>
   <v>       0.35000000       0.25000000       0.05000000 </v>
   <v>      -0.25000000       0.25000000       0.05000000 </v>
   <v>      -0.15000000       0.25000000       0.05000000 </v>
   <v>      -0.35000000       0.35000000       0.05000000 </v>
   <v>      -0.25000000       0.35000000       0.05000000 </v>
   <v>      -0.45000000       0.45000000       0.05000000 </v>
   <v>      -0.35000000       0.45000000       0.05000000 </v>
   <v>      -0.25000000       0.45000000       0.05000000 </v>
   <v>      -0.45000000      -0.45000000       0.05000000 </v>
   <v>      -0.35000000      -0.45000000       0.05000000 </v>
   <v>      -0.35000000      -0.35000000       0.05000000 </v>
   <v>       0.15000000       0.15000000       0.15000000 </v>
   <v>       0.25000000       0.15000000       0.15000000 </v>
   <v>       0.35000000       0.15000000       0.15000000 </v>
   <v>      -0.15000000       0.15000000       0.15000000 </v>
   <v>       0.25000000       0.25000000       0.15000000 </v>
   <v>      -0.25000000       0.25000000       0.15000000 </v>
   <v>      -0.35000000       0.35000000       0.15000000 </v>
   <v>      -0.25000000       0.35000000       0.15000000 </v>
   <v>      -0.45000000       0.45000000       0.15000000 </v>
   <v>      -0.35000000       0.45000000       0.15000000 </v>
   <v>      -0.45000000      -0.45000000       0.15000000 </v>
   <v>      -0.35000000      -0.45000000       0.15000000 </v>
   <v>       0.25000000       0.25000000       0.25000000 </v>
   <v>      -0.25000000       0.25000000       0.25000000 </v>
   <v>      -0.35000000       0.35000000       0.25000000 </v>
   <v>      -0.45000000       0.45000000       0.25000000 </v>
   <v>      -0.35000000       0.45000000       0.25000000 </v>
   <v>      -0.45000000      -0.45000000       0.25000000 </v>
   <v>      -0.35000000       0.35000000       0.35000000 </v>
   <v>      -0.45000000       0.45000000       0.35000000 </v>
   <v>      -0.45000000      -0.45000000       0.35000000 </v>
   <v>      -0.45000000       0.45000000       0.45000000 </v>
  </varray>
  <varray name="weights" >
   <v>       0.00800000 </v>
   <v>       0.02400000 </v>
   <v>       0.02400000 </v>
   <v>       0.02400000 </v>
   <v>       0.01200000 </v>
   <v>       0.00600000 </v>
   <v>       0.02400000 </v>
   <v>       0.04800000 </v>
   <v>       0.04800000 </v>
   <v>       0.02400000 </v>
   <v>       0.02400000 </v>
   <v>       0.02400000 </v>
   <v>       0.02400000 </v>
   <v>       0.02400000 </v>
   <v>       0.02400000 </v>
   <v>       0.04800000 </v>
   <v>       0.02400000 </v>
   <v>       0.04800000 </v>
   <v>       0.02400000 </v>
   <v>       0.02400000 </v>
   <v>       0.04800000 </v>
   <v>       0.00800000 </v>
   <v>       0.00800000 </v>
   <v>       0.02400000 </v>
   <v>       0.01200000 </v>
   <v>       0.00600000 </v>
   <v>       0.02400000 </v>
   <v>       0.02400000 </v>
   <v>       0.02400000 </v>
   <v>       0.02400000 </v>
   <v>       0.02400000 </v>
   <v>       0.04800000 </v>
   <v>       0.02400000 </v>
   <v>       0.02400000 </v>
   <v>       0.00200000 </v>
   <v>       0.00600000 </v>
   <v>       0.02400000 </v>
   <v>       0.02400000 </v>
   <v>       0.02400000 </v>
   <v>       0.02400000 </v>
   <v>       0.00600000 </v>
   <v>       0.02400000 </v>
   <v>       0.00800000 </v>
   <v>       0.00600000 </v>
  </varray>
 </kpoints>
 <parameters>
  <separator name="general" >
   <i type="string" name="SYSTEM">unknown system</i>
   <i type="logical" name="LCOMPAT"> F  </i>
  </separator>
  <separator name="electronic" >
   <i type="string" name="PREC">accura</i>
   <i name="ENMAX">    500.00000000</i>
   <i name="ENAUG">    332.07500000</i>
   <i name="EDIFF">      0.00010000</i>
   <i type="int" name="IALGO">    38</i>
   <i type="int" name="IWAVPR">    10</i>
   <i type="int" name="NBANDS">     6</i>
   <i name="NELECT">      5.00000000</i>
   <i type="int" name="TURBO">     0</i>
   <i type="int" name="IRESTART">     0</i>
   <i type="int" name="NREBOOT">     0</i>
   <i type="int" name="NMIN">     0</i>
   <i name="EREF">      0.00000000</i>
   <separator name="electronic smearing" >
    <i type="int" name="ISMEAR">     1</i>
    <i name="SIGMA">      0.05000000</i>
    <i name="KSPACING">      0.50000000</i>
    <i type="logical" name="KGAMMA"> T  </i>
   </separator>
   <separator name="electronic projectors" >
    <i type="logical" name="LREAL"> F  </i>
    <v name="ROPT">      0.00000000</v>
    <i type="int" name="LMAXPAW">  -100</i>
    <i type="int" name="LMAXMIX">     2</i>
    <i type="logical" name="NLSPLINE"> F  </i>
   </separator>
   <separator name="electronic startup" >
    <i type="int" name="ISTART">     0</i>
    <i type="int" name="ICHARG">     2</i>
    <i type="int" name="INIWAV">     1</i>
   </separator>
   <separator name="electronic spin" >
    <i type="int" name="ISPIN">     1</i>
    <i type="logical" name="LNONCOLLINEAR"> F  </i>
    <v name="MAGMOM">      1.00000000</v>
    <i name="NUPDOWN">     -1.00000000</i>
    <i type="logical" name="LSORBIT"> F  </i>
    <v name="SAXIS">      0.00000000      0.00000000      1.00000000</v>
    <i type="logical" name="LSPIRAL"> F  </i>
    <v name="QSPIRAL">      0.00000000      0.00000000      0.00000000</v>
    <i type="logical" name="LZEROZ"> F  </i>
   </separator>
   <separator name="electronic exchange-correlation" >
    <i type="logical" name="LASPH"> F  </i>
    <i type="logical" name="LMETAGGA"> F  </i>
   </separator>
   <separator name="electronic convergence" >
    <i type="int" name="NELM">    60</i>
    <i type="int" name="NELMDL">    -5</i>
    <i type="int" name="NELMIN">     2</i>
    <i name="ENINI">    500.00000000</i>
    <separator name="electronic convergence detail" >
     <i type="logical" name="LDIAG"> T  </i>
     <i type="logical" name="LSUBROT"> T  </i>
     <i name="WEIMIN">      0.00000000</i>
     <i name="EBREAK">      0.00000417</i>
     <i name="DEPER">      0.30000000</i>
     <i type="int" name="NRMM">     4</i>
     <i name="TIME">      0.40000000</i>
    </separator>
   </separator>
   <separator name="electronic mixer" >
    <i name="AMIX">      0.40000000</i>
    <i name="BMIX">      1.00000000</i>
    <i name="AMIN">      0.10000000</i>
    <i name="AMIX_MAG">      1.60000000</i>
    <i name="BMIX_MAG">      1.00000000</i>
    <separator name="electronic mixer details" >
     <i type="int" name="IMIX">     4</i>
     <i type="int" name="MAXMIX">   -45</i>
     <i name="WC">    100.00000000</i>
     <i type="int" name="INIMIX">     1</i>
     <i type="int" name="MIXPRE">     1</i>
     <i type="int" name="MREMOVE">     5</i>
    </separator>
   </separator>
   <separator name="electronic dipolcorrection" >
    <i type="logical" name="LDIPOL"> F  </i>
    <i type="logical" name="LMONO"> F  </i>
    <i type="int" name="IDIPOL">     0</i>
    <i name="EPSILON">      1.00000000</i>
    <v name="DIPOL">   -100.00000000   -100.00000000   -100.00000000</v>
    <i name="EFIELD">      0.00000000</i>
   </separator>
  </separator>
  <separator name="grids" >
   <i type="int" name="NGX">    24</i>
   <i type="int" name="NGY">    24</i>
   <i type="int" name="NGZ">    24</i>
   <i type="int" name="NGXF">    48</i>
   <i type="int" name="NGYF">    48</i>
   <i type="int" name="NGZF">    48</i>
   <i type="logical" name="ADDGRID"> F  </i>
  </separator>
  <separator name="ionic" >
   <i type="int" name="NSW">     0</i>
   <i type="int" name="IBRION">    -1</i>
   <i type="int" name="ISIF">     2</i>
   <i name="PSTRESS">      0.00000000</i>
   <i name="EDIFFG">      0.00100000</i>
   <i type="int" name="NFREE">     0</i>
   <i name="POTIM">      0.50000000</i>
   <i name="SMASS">     -3.00000000</i>
   <i name="SCALEE">      1.00000000</i>
  </separator>
  <separator name="ionic md" >
   <i name="TEBEG">      0.00010000</i>
   <i name="TEEND">      0.00010000</i>
   <i type="int" name="NBLOCK">     1</i>
   <i type="int" name="KBLOCK">     1</i>
   <i type="int" name="NPACO">   256</i>
   <i name="APACO">     16.00000000</i>
  </separator>
  <separator name="symmetry" >
   <i type="int" name="ISYM">     2</i>
   <i name="SYMPREC">      0.00001000</i>
  </separator>
  <separator name="dos" >
   <i type="logical" name="LORBIT"> F  </i>
   <v name="RWIGS">     -1.00000000</v>
   <i type="int" name="NEDOS">   301</i>
   <i name="EMIN">     10.00000000</i>
   <i name="EMAX">    -10.00000000</i>
   <i name="EFERMI">      0.00000000</i>
  </separator>
  <separator name="writing" >
   <i type="int" name="NWRITE">     2</i>
   <i type="logical" name="LWAVE"> T  </i>
   <i type="logical" name="LCHARG"> T  </i>
   <i type="logical" name="LPARD"> F  </i>
   <i type="logical" name="LVTOT"> F  </i>
   <i type="logical" name="LVHAR"> F  </i>
   <i type="logical" name="LELF"> F  </i>
   <i type="logical" name="LOPTICS"> F  </i>
   <v name="STM">      0.00000000      0.00000000      0.00000000      0.00000000      0.00000000      0.00000000      0.00000000</v>
  </separator>
  <separator name="performance" >
   <i type="int" name="NPAR">     1</i>
   <i type="int" name="NSIM">     4</i>
   <i type="int" name="NBLK">    -1</i>
   <i type="logical" name="LPLANE"> T  </i>
   <i type="logical" name="LSCALAPACK"> F  </i>
   <i type="logical" name="LSCAAWARE"> F  </i>
   <i type="logical" name="LSCALU"> F  </i>
   <i type="logical" name="LASYNC"> F  </i>
   <i type="logical" name="LORBITALREAL"> F  </i>
  </separator>
  <separator name="miscellaneous" >
   <i type="int" name="IDIOT">     3</i>
   <i type="logical" name="LMUSIC"> F  </i>
   <v name="POMASS">    180.94800000</v>
   <v name="DARWINR">      0.00000000</v>
   <v name="DARWINV">      1.00000000</v>
   <i type="logical" name="LCORR"> T  </i>
  </separator>
  <i type="logical" name="GGA_COMPAT"> T  </i>
  <i type="logical" name="LBERRY"> F  </i>
  <i type="int" name="ICORELEVEL">     0</i>
  <i type="logical" name="LDAU"> F  </i>
  <i type="int" name="I_CONSTRAINED_M">     0</i>
  <separator name="electronic exchange-correlation" >
   <i type="string" name="GGA">--</i>
   <i type="int" name="VOSKOWN">     0</i>
   <i type="logical" name="LHFCALC"> F  </i>
   <i type="string" name="PRECFOCK"></i>
   <i type="logical" name="LHFONE"> F  </i>
   <i type="logical" name="LRHFCALC"> F  </i>
   <i type="logical" name="LTHOMAS"> F  </i>
   <i type="logical" name="LMODELHF"> F  </i>
   <i name="ENCUT4O">     -1.00000000</i>
   <i type="int" name="EXXOEP">     0</i>
   <i type="int" name="FOURORBIT">     0</i>
   <i name="AEXX">      0.00000000</i>
   <i name="HFALPHA">      0.00000000</i>
   <i name="ALDAX">      1.00000000</i>
   <i name="AGGAX">      1.00000000</i>
   <i name="ALDAC">      1.00000000</i>
   <i name="AGGAC">      1.00000000</i>
   <i type="int" name="NKREDX">     1</i>
   <i type="int" name="NKREDY">     1</i>
   <i type="int" name="NKREDZ">     1</i>
   <i type="logical" name="SHIFTRED"> F  </i>
   <i type="logical" name="ODDONLY"> F  </i>
   <i type="logical" name="EVENONLY"> F  </i>
   <i type="int" name="LMAXFOCK">     0</i>
   <i type="int" name="NMAXFOCKAE">     0</i>
   <i type="logical" name="LFOCKAEDFT"> F  </i>
   <i name="HFSCREEN">      0.00000000</i>
   <i name="HFSCREENC">      0.00000000</i>
  </separator>
  <separator name="vdW DFT" >
   <i type="logical" name="LUSE_VDW"> F  </i>
   <i name="Zab_VDW">     -0.84910000</i>
   <i name="PARAM1">      0.12340000</i>
   <i name="PARAM2">      1.00000000</i>
   <i name="PARAM3">      0.00000000</i>
  </separator>
  <separator name="model GW" >
   <i type="int" name="MODEL_GW">     0</i>
   <i name="MODEL_EPS0">     10.87940730</i>
   <i name="MODEL_ALPHA">      1.00000000</i>
  </separator>
  <separator name="linear response parameters" >
   <i type="logical" name="LEPSILON"> F  </i>
   <i type="logical" name="LRPA"> F  </i>
   <i type="logical" name="LNABLA"> F  </i>
   <i type="logical" name="LVEL"> F  </i>
   <i type="int" name="KINTER">     0</i>
   <i name="CSHIFT">      0.10000000</i>
   <i name="OMEGAMAX">     -1.00000000</i>
  </separator>
  <separator name="orbital magnetization" >
   <i type="logical" name="NUCIND"> F  </i>
   <v name="MAGPOS">      0.00000000      0.00000000      0.00000000</v>
   <i type="logical" name="LNICSALL"> T  </i>
   <i type="logical" name="ORBITALMAG"> F  </i>
   <i type="logical" name="LMAGBLOCH"> F  </i>
   <i type="logical" name="LCHIMAG"> F  </i>
   <i type="logical" name="LGAUGE"> T  </i>
   <i type="int" name="MAGATOM">     0</i>
   <v name="MAGDIPOL">      0.00000000      0.00000000      0.00000000</v>
   <v name="AVECCONST">      0.00000000      0.00000000      0.00000000</v>
  </separator>
  <separator name="response functions" >
   <i type="logical" name="LADDER"> F  </i>
   <i type="logical" name="LHARTREE"> T  </i>
   <i type="int" name="IBSE">     0</i>
   <i type="logical" name="LTCTE"> F  </i>
   <i type="logical" name="LTETE"> F  </i>
   <i type="logical" name="LFXCEPS"> F  </i>
   <i type="logical" name="L2ORDER"> F  </i>
   <i type="logical" name="LUSEW"> F  </i>
   <i name="ENCUTGW">     -2.00000000</i>
   <i name="ENCUTGWSOFT">     -2.00000000</i>
   <i name="ENCUTLF">     -1.00000000</i>
   <i type="int" name="LMAXMP2">    -1</i>
   <i name="SCISSOR">      0.00000000</i>
   <i type="int" name="NOMEGA">     0</i>
   <i type="int" name="NOMEGAR">     0</i>
   <i type="int" name="NBANDSGW">    -1</i>
   <i type="int" name="NBANDSO">    -1</i>
   <i type="int" name="NBANDSV">    -1</i>
   <i name="OPTEMAX">      0.00000000</i>
   <i type="int" name="NELM">     1</i>
   <i type="int" name="DIM">     3</i>
   <i type="int" name="ANTIRES">     0</i>
   <i name="OMEGAMAX">    -30.00000000</i>
   <i name="OMEGATL">   -200.00000000</i>
   <i type="int" name="OMEGAGRID">     0</i>
   <i name="CSHIFT">     -0.10000000</i>
   <i type="logical" name="SELFENERGY"> F  </i>
   <i type="logical" name="LSPECTRAL"> F  </i>
   <i type="logical" name="ODDONLYGW"> F  </i>
   <i type="logical" name="EVENONLYGW"> F  </i>
   <i type="int" name="NKREDLFX">     1</i>
   <i type="int" name="NKREDLFY">     1</i>
   <i type="int" name="NKREDLFZ">     1</i>
   <i type="int" name="MAXMEM">  1800</i>
   <i type="int" name="TELESCOPE">     0</i>
  </separator>
 </parameters>
 <atominfo>
  <atoms>       1 </atoms>
  <types>       1 </types>
  <array name="atoms" >
   <dimension dim="1">ion</dimension>
   <field type="string">element</field>
   <field type="int">atomtype</field>
   <set>
    <rc><c>Ta</c><c>   1</c></rc>
   </set>
  </array>
  <array name="atomtypes" >
   <dimension dim="1">type</dimension>
   <field type="int">atomspertype</field>
   <field type="string">element</field>
   <field>mass</field>
   <field>valence</field>
   <field type="string">pseudopotential</field>
   <set>
    <rc><c>   1</c><c>Ta</c><c>    180.94800000</c><c>      5.00000000</c><c>  PAW_PBE Ta 17Jan2003                  </c></rc>
   </set>
  </array>
 </atominfo>
 <structure name="initialpos" >
  <crystal>
   <varray name="basis" >
    <v>       2.86654409       0.00000000       0.00000000 </v>
    <v>      -0.95551470       2.70260368       0.00000000 </v>
    <v>      -0.95551470      -1.35130184       2.34052345 </v>
   </varray>
   <i name="volume">     18.13234550 </i>
   <varray name="rec_basis" >
    <v>       0.34885213       0.12333785       0.21362743 </v>
    <v>       0.00000000       0.37001356       0.21362743 </v>
    <v>       0.00000000       0.00000000       0.42725485 </v>
   </varray>
  </crystal>
  <varray name="positions" >
   <v>       0.00000000       0.00000000       0.00000000 </v>
  </varray>
 </structure>
 <calculation>
  <scstep>
   <time name="dav">    1.23    1.35</time>
   <time name="total">    1.43    1.57</time>
   <energy>
    <i name="alphaZ">     30.58334069 </i>
    <i name="ewald">   -197.90100875 </i>
    <i name="hartreedc">     -2.50452612 </i>
    <i name="XCdc">    -66.68582617 </i>
    <i name="pawpsdc">    148.27821850 </i>
    <i name="pawaedc">    -73.99089003 </i>
    <i name="eentropy">      0.00000332 </i>
    <i name="bandstr">     32.02678481 </i>
    <i name="atom">    130.64936373 </i>
    <i name="e_fr_energy">      0.45545998 </i>
    <i name="e_wo_entrp">      0.45545666 </i>
    <i name="e_0_energy">      0.45545887 </i>
   </energy>
  </scstep>
  <scstep>
   <time name="dav">    1.88    1.99</time>
   <time name="total">    1.89    2.28</time>
   <energy>
    <i name="e_fr_energy">    -12.28293264 </i>
    <i name="e_wo_entrp">    -12.28205943 </i>
    <i name="e_0_energy">    -12.28264157 </i>
   </energy>
  </scstep>
  <scstep>
   <time name="dav">    1.27    1.27</time>
   <time name="total">    1.27    1.47</time>
   <energy>
    <i name="e_fr_energy">    -12.34438274 </i>
    <i name="e_wo_entrp">    -12.34374807 </i>
    <i name="e_0_energy">    -12.34417119 </i>
   </energy>
  </scstep>
  <scstep>
   <time name="dav">    1.47    1.47</time>
   <time name="total">    1.47    1.48</time>
   <energy>
    <i name="e_fr_energy">    -12.34447718 </i>
    <i name="e_wo_entrp">    -12.34384259 </i>
    <i name="e_0_energy">    -12.34426565 </i>
   </energy>
  </scstep>
  <scstep>
   <time name="dav">    1.10    1.10</time>
   <time name="total">    1.35    1.66</time>
   <energy>
    <i name="e_fr_energy">    -12.34447741 </i>
    <i name="e_wo_entrp">    -12.34384281 </i>
    <i name="e_0_energy">    -12.34426587 </i>
   </energy>
  </scstep>
  <scstep>
   <time name="dav">    1.35    1.35</time>
   <time name="total">    1.69    1.74</time>
   <energy>
    <i name="e_fr_energy">    -12.01636570 </i>
    <i name="e_wo_entrp">    -12.01626018 </i>
    <i name="e_0_energy">    -12.01633053 </i>
   </energy>
  </scstep>
  <scstep>
   <time name="dav">    1.36    1.42</time>
   <time name="total">    1.71    2.13</time>
   <energy>
    <i name="e_fr_energy">    -11.86515926 </i>
    <i name="e_wo_entrp">    -11.86570194 </i>
    <i name="e_0_energy">    -11.86534015 </i>
   </energy>
  </scstep>
  <scstep>
   <time name="dav">    1.29    1.41</time>
   <time name="total">    1.63    1.79</time>
   <energy>
    <i name="e_fr_energy">    -11.86419754 </i>
    <i name="e_wo_entrp">    -11.86481329 </i>
    <i name="e_0_energy">    -11.86440279 </i>
   </energy>
  </scstep>
  <scstep>
   <time name="dav">    0.95    0.95</time>
   <time name="total">    1.16    1.61</time>
   <energy>
    <i name="alphaZ">     30.58334069 </i>
    <i name="ewald">   -197.90100875 </i>
    <i name="hartreedc">     -0.58991012 </i>
    <i name="XCdc">    -66.00253951 </i>
    <i name="pawpsdc">    192.85629363 </i>
    <i name="pawaedc">   -119.43491769 </i>
    <i name="eentropy">      0.00062181 </i>
    <i name="bandstr">     17.97454409 </i>
    <i name="atom">    130.64936373 </i>
    <i name="e_fr_energy">    -11.86421213 </i>
    <i name="e_wo_entrp">    -11.86483394 </i>
    <i name="e_0_energy">    -11.86441940 </i>
   </energy>
  </scstep>
  <parameters_embedded>
   <separator name="dft+d2" >
    <i type="logical" name="LVDW"> F  </i>
   </separator>
  </parameters_embedded>
  <structure>
   <crystal>
    <varray name="basis" >
     <v>       2.86654409       0.00000000       0.00000000 </v>
     <v>      -0.95551470       2.70260368       0.00000000 </v>
     <v>      -0.95551470      -1.35130184       2.34052345 </v>
    </varray>
    <i name="volume">     18.13234550 </i>
    <varray name="rec_basis" >
     <v>       0.34885213       0.12333785       0.21362743 </v>
     <v>       0.00000000       0.37001356       0.21362743 </v>
     <v>       0.00000000       0.00000000       0.42725485 </v>
    </varray>
   </crystal>
   <varray name="positions" >
    <v>       0.00000000       0.00000000       0.00000000 </v>
   </varray>
  </structure>
  <varray name="forces" >
   <v>       0.00000000       0.00000000       0.00000000 </v>
  </varray>
  <varray name="stress" >
   <v>      -9.14014285       0.00000000       0.00000000 </v>
   <v>       0.00000000      -9.14014285       0.00000000 </v>
   <v>       0.00000000       0.00000000      -9.14014285 </v>
  </varray>
  <energy>
   <i name="e_fr_energy">    -11.86421213 </i>
   <i name="e_wo_entrp">    -11.86441940 </i>
   <i name="e_0_energy">      0.00062181 </i>
  </energy>
  <time name="totalsc">   15.56   21.42</time>
  <eigenvalues>
   <array>
    <dimension dim="1">band</dimension>
    <dimension dim="2">kpoint</dimension>
    <dimension dim="3">spin</dimension>
    <field>eigene</field>
    <field>occ</field>
    <set>
     <set comment="spin 1">
      <set comment="kpoint 1">
       <r>   -1.5465    1.0000 </r>
       <r>    6.0874    0.0000 </r>
       <r>    6.0874    0.0000 </r>
       <r>    7.2022    0.0000 </r>
       <r>    9.4435    0.0000 </r>
       <r>    9.4435    0.0000 </r>
      </set>
      <set comment="kpoint 2">
       <r>   -0.4239    1.0000 </r>
       <r>    5.4143    1.0000 </r>
       <r>    5.5978    1.0267 </r>
       <r>    8.5515    0.0000 </r>
       <r>    9.1273    0.0000 </r>
       <r>    9.7114    0.0000 </r>
      </set>
      <set comment="kpoint 3">
       <r>    0.9018    1.0000 </r>
       <r>    4.7573    1.0000 </r>
       <r>    5.2965    1.0000 </r>
       <r>    9.3458    0.0000 </r>
       <r>   10.0391    0.0000 </r>
       <r>   10.5240    0.0000 </r>
      </set>
      <set comment="kpoint 4">
       <r>    1.5303    1.0000 </r>
       <r>    4.3076    1.0000 </r>
       <r>    6.1083    0.0000 </r>
       <r>    9.6683    0.0000 </r>
       <r>   10.4029    0.0000 </r>
       <r>   12.6594    0.0000 </r>
      </set>
      <set comment="kpoint 5">
       <r>    1.5877    1.0000 </r>
       <r>    4.1497    1.0000 </r>
       <r>    6.9843    0.0000 </r>
       <r>    9.6499    0.0000 </r>
       <r>   10.5875    0.0000 </r>
       <r>   13.8051    0.0000 </r>
      </set>
      <set comment="kpoint 6">
       <r>   -1.9623    1.0000 </r>
       <r>    6.4059    0.0000 </r>
       <r>    6.4059    0.0000 </r>
       <r>    6.5431    0.0000 </r>
       <r>    9.3070    0.0000 </r>
       <r>    9.8039    0.0000 </r>
      </set>
      <set comment="kpoint 7">
       <r>    0.8464    1.0000 </r>
       <r>    4.8685    1.0000 </r>
       <r>    4.9409    1.0000 </r>
       <r>    9.2024    0.0000 </r>
       <r>   10.0847    0.0000 </r>
       <r>   10.4484    0.0000 </r>
      </set>
      <set comment="kpoint 8">
       <r>    2.0125    1.0000 </r>
       <r>    4.3968    1.0000 </r>
       <r>    4.9740    1.0000 </r>
       <r>    9.5035    0.0000 </r>
       <r>   10.4272    0.0000 </r>
       <r>   12.6743    0.0000 </r>
      </set>
      <set comment="kpoint 9">
       <r>    2.2903    1.0000 </r>
       <r>    4.1824    1.0000 </r>
       <r>    5.9393    0.0000 </r>
       <r>    9.7557    0.0000 </r>
       <r>   10.6287    0.0000 </r>
       <r>   14.5273    0.0000 </r>
      </set>
      <set comment="kpoint 10">
       <r>   -1.1459    1.0000 </r>
       <r>    5.9521    0.0000 </r>
       <r>    6.1806    0.0000 </r>
       <r>    7.3561    0.0000 </r>
       <r>    8.6253    0.0000 </r>
       <r>    9.9867    0.0000 </r>
      </set>
      <set comment="kpoint 11">
       <r>    2.9313    1.0000 </r>
       <r>    4.2917    1.0000 </r>
       <r>    5.0101    1.0000 </r>
       <r>    9.8180    0.0000 </r>
       <r>   10.5254    0.0000 </r>
       <r>   14.9580    0.0000 </r>
      </set>
      <set comment="kpoint 12">
       <r>    3.1122    1.0000 </r>
       <r>    4.3759    1.0000 </r>
       <r>    5.2509    1.0000 </r>
       <r>   10.0574    0.0000 </r>
       <r>   10.5700    0.0000 </r>
       <r>   14.3831    0.0000 </r>
      </set>
      <set comment="kpoint 13">
       <r>    0.1755    1.0000 </r>
       <r>    5.2637    1.0000 </r>
       <r>    5.6094    1.0349 </r>
       <r>    8.6504    0.0000 </r>
       <r>    8.9695    0.0000 </r>
       <r>   10.1827    0.0000 </r>
      </set>
      <set comment="kpoint 14">
       <r>   -0.0637    1.0000 </r>
       <r>    5.6270    1.0170 </r>
       <r>    5.6981    0.1377 </r>
       <r>    8.0679    0.0000 </r>
       <r>    8.4757    0.0000 </r>
       <r>   10.3859    0.0000 </r>
      </set>
      <set comment="kpoint 15">
       <r>    1.2128    1.0000 </r>
       <r>    4.6692    1.0000 </r>
       <r>    5.6931    0.1990 </r>
       <r>    9.1834    0.0000 </r>
       <r>   10.4106    0.0000 </r>
       <r>   11.1053    0.0000 </r>
      </set>
      <set comment="kpoint 16">
       <r>    1.2395    1.0000 </r>
       <r>    4.9169    1.0000 </r>
       <r>    5.3491    1.0000 </r>
       <r>    8.3698    0.0000 </r>
       <r>   10.3039    0.0000 </r>
       <r>   10.6890    0.0000 </r>
      </set>
      <set comment="kpoint 17">
       <r>    1.4555    1.0000 </r>
       <r>    4.3372    1.0000 </r>
       <r>    6.6961    0.0000 </r>
       <r>    9.3426    0.0000 </r>
       <r>   10.7803    0.0000 </r>
       <r>   13.0524    0.0000 </r>
      </set>
      <set comment="kpoint 18">
       <r>    1.8955    1.0000 </r>
       <r>    4.6151    1.0000 </r>
       <r>    5.5964    1.0254 </r>
       <r>    8.9090    0.0000 </r>
       <r>   10.7239    0.0000 </r>
       <r>   12.6929    0.0000 </r>
      </set>
      <set comment="kpoint 19">
       <r>    2.3624    1.0000 </r>
       <r>    4.3216    1.0000 </r>
       <r>    5.3551    1.0000 </r>
       <r>    8.6766    0.0000 </r>
       <r>   10.4295    0.0000 </r>
       <r>   12.7646    0.0000 </r>
      </set>
      <set comment="kpoint 20">
       <r>    1.9513    1.0000 </r>
       <r>    4.5136    1.0000 </r>
       <r>    6.0904    0.0000 </r>
       <r>    8.8629    0.0000 </r>
       <r>   11.2323    0.0000 </r>
       <r>   13.9447    0.0000 </r>
      </set>
      <set comment="kpoint 21">
       <r>    2.8321    1.0000 </r>
       <r>    4.3799    1.0000 </r>
       <r>    5.2201    1.0000 </r>
       <r>    9.1457    0.0000 </r>
       <r>   10.6503    0.0000 </r>
       <r>   15.0549    0.0000 </r>
      </set>
      <set comment="kpoint 22">
       <r>    3.4918    1.0000 </r>
       <r>    4.4777    1.0000 </r>
       <r>    4.4777    1.0000 </r>
       <r>   10.1084    0.0000 </r>
       <r>   10.1084    0.0000 </r>
       <r>   14.6741    0.0000 </r>
      </set>
      <set comment="kpoint 23">
       <r>    2.2329    1.0000 </r>
       <r>    4.3842    1.0000 </r>
       <r>    4.3842    1.0000 </r>
       <r>   10.0517    0.0000 </r>
       <r>   10.0517    0.0000 </r>
       <r>   12.7820    0.0000 </r>
      </set>
      <set comment="kpoint 24">
       <r>    3.1400    1.0000 </r>
       <r>    4.1383    1.0000 </r>
       <r>    4.7827    1.0000 </r>
       <r>   10.2184    0.0000 </r>
       <r>   10.5293    0.0000 </r>
       <r>   14.9689    0.0000 </r>
      </set>
      <set comment="kpoint 25">
       <r>    3.1474    1.0000 </r>
       <r>    4.0663    1.0000 </r>
       <r>    5.6050    1.0327 </r>
       <r>   10.2786    0.0000 </r>
       <r>   10.6811    0.0000 </r>
       <r>   14.3692    0.0000 </r>
      </set>
      <set comment="kpoint 26">
       <r>   -0.3687    1.0000 </r>
       <r>    6.3637    0.0000 </r>
       <r>    6.3637    0.0000 </r>
       <r>    7.1683    0.0000 </r>
       <r>    7.3626    0.0000 </r>
       <r>   10.5822    0.0000 </r>
      </set>
      <set comment="kpoint 27">
       <r>    3.7410    1.0000 </r>
       <r>    4.4018    1.0000 </r>
       <r>    4.8306    1.0000 </r>
       <r>   10.5320    0.0000 </r>
       <r>   10.6618    0.0000 </r>
       <r>   13.6612    0.0000 </r>
      </set>
      <set comment="kpoint 28">
       <r>    0.8937    1.0000 </r>
       <r>    5.5122    1.0000 </r>
       <r>    6.0060    0.0000 </r>
       <r>    7.2343    0.0000 </r>
       <r>    8.7231    0.0000 </r>
       <r>   10.7862    0.0000 </r>
      </set>
      <set comment="kpoint 29">
       <r>    1.9380    1.0000 </r>
       <r>    4.8872    1.0000 </r>
       <r>    5.4983    1.0000 </r>
       <r>    8.0384    0.0000 </r>
       <r>   10.8503    0.0000 </r>
       <r>   10.8906    0.0000 </r>
      </set>
      <set comment="kpoint 30">
       <r>    2.0629    1.0000 </r>
       <r>    4.5683    1.0000 </r>
       <r>    6.1404    0.0000 </r>
       <r>    7.5163    0.0000 </r>
       <r>    9.9807    0.0000 </r>
       <r>   10.9517    0.0000 </r>
      </set>
      <set comment="kpoint 31">
       <r>    2.1607    1.0000 </r>
       <r>    5.1999    1.0000 </r>
       <r>    5.2584    1.0000 </r>
       <r>    8.0136    0.0000 </r>
       <r>   11.9887    0.0000 </r>
       <r>   12.8498    0.0000 </r>
      </set>
      <set comment="kpoint 32">
       <r>    2.7676    1.0000 </r>
       <r>    4.1838    1.0000 </r>
       <r>    5.7421   -0.0329 </r>
       <r>    8.1508    0.0000 </r>
       <r>   10.7204    0.0000 </r>
       <r>   12.9088    0.0000 </r>
      </set>
      <set comment="kpoint 33">
       <r>    2.7794    1.0000 </r>
       <r>    4.5626    1.0000 </r>
       <r>    5.2951    1.0000 </r>
       <r>    8.1456    0.0000 </r>
       <r>   11.7562    0.0000 </r>
       <r>   14.5638    0.0000 </r>
      </set>
      <set comment="kpoint 34">
       <r>    3.6479    1.0000 </r>
       <r>    3.7092    1.0000 </r>
       <r>    4.9715    1.0000 </r>
       <r>    9.4136    0.0000 </r>
       <r>   10.5826    0.0000 </r>
       <r>   15.3686    0.0000 </r>
      </set>
      <set comment="kpoint 35">
       <r>    4.4714    1.0000 </r>
       <r>    4.4714    1.0000 </r>
       <r>    4.4714    1.0000 </r>
       <r>   10.7403    0.0000 </r>
       <r>   10.7403    0.0000 </r>
       <r>   12.7461    0.0000 </r>
      </set>
      <set comment="kpoint 36">
       <r>    1.9703    1.0000 </r>
       <r>    4.7848    1.0000 </r>
       <r>    6.9538    0.0000 </r>
       <r>    6.9538    0.0000 </r>
       <r>    8.8817    0.0000 </r>
       <r>   10.6855    0.0000 </r>
      </set>
      <set comment="kpoint 37">
       <r>    2.7928    1.0000 </r>
       <r>    3.8551    1.0000 </r>
       <r>    7.0138    0.0000 </r>
       <r>    7.6050    0.0000 </r>
       <r>   10.5444    0.0000 </r>
       <r>   10.8355    0.0000 </r>
      </set>
      <set comment="kpoint 38">
       <r>    2.8275    1.0000 </r>
       <r>    3.7691    1.0000 </r>
       <r>    6.8435    0.0000 </r>
       <r>    7.4887    0.0000 </r>
       <r>   12.5399    0.0000 </r>
       <r>   12.8239    0.0000 </r>
      </set>
      <set comment="kpoint 39">
       <r>    3.1189    1.0000 </r>
       <r>    3.1810    1.0000 </r>
       <r>    6.8559    0.0000 </r>
       <r>    8.8322    0.0000 </r>
       <r>   10.8151    0.0000 </r>
       <r>   12.9272    0.0000 </r>
      </set>
      <set comment="kpoint 40">
       <r>    2.9095    1.0000 </r>
       <r>    3.2337    1.0000 </r>
       <r>    6.5786    0.0000 </r>
       <r>    9.3481    0.0000 </r>
       <r>   11.6590    0.0000 </r>
       <r>   15.2704    0.0000 </r>
      </set>
      <set comment="kpoint 41">
       <r>    2.8964    1.0000 </r>
       <r>    2.9955    1.0000 </r>
       <r>    8.6113    0.0000 </r>
       <r>    8.6113    0.0000 </r>
       <r>   10.7662    0.0000 </r>
       <r>   10.9450    0.0000 </r>
      </set>
      <set comment="kpoint 42">
       <r>    2.5162    1.0000 </r>
       <r>    2.6788    1.0000 </r>
       <r>    9.0763    0.0000 </r>
       <r>    9.0827    0.0000 </r>
       <r>   12.2590    0.0000 </r>
       <r>   13.0714    0.0000 </r>
      </set>
      <set comment="kpoint 43">
       <r>    2.3623    1.0000 </r>
       <r>    2.3623    1.0000 </r>
       <r>    9.0083    0.0000 </r>
       <r>   11.4367    0.0000 </r>
       <r>   11.4367    0.0000 </r>
       <r>   15.5793    0.0000 </r>
      </set>
      <set comment="kpoint 44">
       <r>    2.0604    1.0000 </r>
       <r>    2.1072    1.0000 </r>
       <r>   11.3403    0.0000 </r>
       <r>   11.3403    0.0000 </r>
       <r>   12.2480    0.0000 </r>
       <r>   13.5529    0.0000 </r>
      </set>
     </set>
    </set>
   </array>
  </eigenvalues>
  <separator name="orbital magnetization" >
   <v name="MAGDIPOLOUT">      0.00000000      0.00000000      0.00000000</v>
  </separator>
  <dos>
   <i name="efermi">      5.67378409 </i>
   <total>
    <array>
     <dimension dim="1">gridpoints</dimension>
     <dimension dim="2">spin</dimension>
     <field>energy</field>
     <field>total</field>
     <field>integrated</field>
     <set>
      <set comment="spin 1">
       <r>    -2.8394     0.0000     0.0000 </r>
       <r>    -2.7750     0.0000     0.0000 </r>
       <r>    -2.7107     0.0000     0.0000 </r>
       <r>    -2.6464     0.0000     0.0000 </r>
       <r>    -2.5821     0.0000     0.0000 </r>
       <r>    -2.5178     0.0000     0.0000 </r>
       <r>    -2.4534     0.0000     0.0000 </r>
       <r>    -2.3891     0.0000     0.0000 </r>
       <r>    -2.3248     0.0000     0.0000 </r>
       <r>    -2.2605     0.0000     0.0000 </r>
       <r>    -2.1962     0.0000     0.0000 </r>
       <r>    -2.1318     0.0000     0.0000 </r>
       <r>    -2.0675    -0.0010    -0.0001 </r>
       <r>    -2.0032     0.0020     0.0001 </r>
       <r>    -1.9389     0.1579     0.0102 </r>
       <r>    -1.8746     0.0307     0.0122 </r>
       <r>    -1.8103    -0.0030     0.0120 </r>
       <r>    -1.7459     0.0000     0.0120 </r>
       <r>    -1.6816    -0.0001     0.0120 </r>
       <r>    -1.6173    -0.0076     0.0115 </r>
       <r>    -1.5530     0.1050     0.0183 </r>
       <r>    -1.4887     0.1602     0.0286 </r>
       <r>    -1.4243    -0.0083     0.0280 </r>
       <r>    -1.3600    -0.0004     0.0280 </r>
       <r>    -1.2957    -0.0001     0.0280 </r>
       <r>    -1.2314    -0.0135     0.0271 </r>
       <r>    -1.1671     0.1441     0.0364 </r>
       <r>    -1.1027     0.6190     0.0762 </r>
       <r>    -1.0384     0.0002     0.0762 </r>
       <r>    -0.9741    -0.0036     0.0760 </r>
       <r>    -0.9098     0.0000     0.0760 </r>
       <r>    -0.8455     0.0000     0.0760 </r>
       <r>    -0.7812     0.0000     0.0760 </r>
       <r>    -0.7168     0.0000     0.0760 </r>
       <r>    -0.6525     0.0000     0.0760 </r>
       <r>    -0.5882     0.0000     0.0760 </r>
       <r>    -0.5239    -0.0060     0.0756 </r>
       <r>    -0.4596     0.0297     0.0775 </r>
       <r>    -0.3952     0.6745     0.1209 </r>
       <r>    -0.3309     0.2396     0.1363 </r>
       <r>    -0.2666    -0.0038     0.1361 </r>
       <r>    -0.2023    -0.0016     0.1360 </r>
       <r>    -0.1380    -0.0209     0.1346 </r>
       <r>    -0.0736     0.2716     0.1521 </r>
       <r>    -0.0093     0.5197     0.1855 </r>
       <r>     0.0550    -0.0237     0.1840 </r>
       <r>     0.1193    -0.0253     0.1824 </r>
       <r>     0.1836     0.5000     0.2145 </r>
       <r>     0.2480     0.2936     0.2334 </r>
       <r>     0.3123    -0.0220     0.2320 </r>
       <r>     0.3766    -0.0003     0.2320 </r>
       <r>     0.4409     0.0000     0.2320 </r>
       <r>     0.5052     0.0000     0.2320 </r>
       <r>     0.5695     0.0000     0.2320 </r>
       <r>     0.6339     0.0000     0.2320 </r>
       <r>     0.6982    -0.0001     0.2320 </r>
       <r>     0.7625    -0.0152     0.2310 </r>
       <r>     0.8268     0.1149     0.2384 </r>
       <r>     0.8911     1.2376     0.3180 </r>
       <r>     0.9555     0.9545     0.3794 </r>
       <r>     1.0198    -0.0505     0.3762 </r>
       <r>     1.0841    -0.0031     0.3760 </r>
       <r>     1.1484    -0.0457     0.3730 </r>
       <r>     1.2127     0.5848     0.4106 </r>
       <r>     1.2771     1.6913     0.5194 </r>
       <r>     1.3414     0.0181     0.5206 </r>
       <r>     1.4057    -0.0284     0.5188 </r>
       <r>     1.4700     0.5401     0.5535 </r>
       <r>     1.5343     0.6555     0.5957 </r>
       <r>     1.5987     0.5947     0.6339 </r>
       <r>     1.6630     0.1054     0.6407 </r>
       <r>     1.7273    -0.0106     0.6400 </r>
       <r>     1.7916    -0.0094     0.6394 </r>
       <r>     1.8559     0.0032     0.6396 </r>
       <r>     1.9202     1.4940     0.7357 </r>
       <r>     1.9846     1.7540     0.8485 </r>
       <r>     2.0489     1.6430     0.9542 </r>
       <r>     2.1132     0.8459     1.0086 </r>
       <r>     2.1775     0.6215     1.0486 </r>
       <r>     2.2418     0.3211     1.0692 </r>
       <r>     2.3062     1.1961     1.1462 </r>
       <r>     2.3705     1.2262     1.2250 </r>
       <r>     2.4348     0.4406     1.2534 </r>
       <r>     2.4991     0.1499     1.2630 </r>
       <r>     2.5634     0.5870     1.3008 </r>
       <r>     2.6278    -0.0298     1.2988 </r>
       <r>     2.6921     0.4933     1.3306 </r>
       <r>     2.7564     0.8345     1.3842 </r>
       <r>     2.8207     3.1251     1.5852 </r>
       <r>     2.8850     1.7705     1.6991 </r>
       <r>     2.9494     1.2825     1.7816 </r>
       <r>     3.0137     0.3169     1.8020 </r>
       <r>     3.0780     0.0299     1.8039 </r>
       <r>     3.1423     1.8836     1.9251 </r>
       <r>     3.2066     1.5232     2.0230 </r>
       <r>     3.2709     0.6918     2.0675 </r>
       <r>     3.3353     0.0126     2.0683 </r>
       <r>     3.3996    -0.0086     2.0678 </r>
       <r>     3.4639     0.0280     2.0696 </r>
       <r>     3.5282     0.2149     2.0834 </r>
       <r>     3.5925    -0.0156     2.0824 </r>
       <r>     3.6569     0.4704     2.1127 </r>
       <r>     3.7212     0.9700     2.1751 </r>
       <r>     3.7855     1.3945     2.2648 </r>
       <r>     3.8498     0.5013     2.2970 </r>
       <r>     3.9141     0.4461     2.3257 </r>
       <r>     3.9785    -0.0314     2.3237 </r>
       <r>     4.0428     0.0493     2.3268 </r>
       <r>     4.1071     0.2983     2.3460 </r>
       <r>     4.1714     1.9679     2.4726 </r>
       <r>     4.2357     2.2027     2.6143 </r>
       <r>     4.3001     0.7894     2.6650 </r>
       <r>     4.3644     2.9365     2.8539 </r>
       <r>     4.4287     4.0712     3.1158 </r>
       <r>     4.4930     0.7769     3.1657 </r>
       <r>     4.5573     1.2919     3.2488 </r>
       <r>     4.6216     1.9302     3.3730 </r>
       <r>     4.6860     1.1331     3.4459 </r>
       <r>     4.7503     0.4941     3.4777 </r>
       <r>     4.8146     1.4309     3.5697 </r>
       <r>     4.8789     1.4343     3.6619 </r>
       <r>     4.9432     2.6420     3.8319 </r>
       <r>     5.0076     2.8407     4.0146 </r>
       <r>     5.0719     0.5031     4.0469 </r>
       <r>     5.1362    -0.1042     4.0402 </r>
       <r>     5.2005     0.6442     4.0817 </r>
       <r>     5.2648     3.1444     4.2839 </r>
       <r>     5.3292     2.5965     4.4509 </r>
       <r>     5.3935     2.0253     4.5812 </r>
       <r>     5.4578     0.6000     4.6198 </r>
       <r>     5.5221     1.0542     4.6876 </r>
       <r>     5.5864     1.4003     4.7777 </r>
       <r>     5.6508     3.0769     4.9756 </r>
       <r>     5.7151     1.4513     5.0689 </r>
       <r>     5.7794     1.5948     5.1715 </r>
       <r>     5.8437    -0.0001     5.1715 </r>
       <r>     5.9080     0.0982     5.1778 </r>
       <r>     5.9723     1.9619     5.3040 </r>
       <r>     6.0367     0.8419     5.3581 </r>
       <r>     6.1010     1.2361     5.4376 </r>
       <r>     6.1653     1.7427     5.5497 </r>
       <r>     6.2296     0.6248     5.5899 </r>
       <r>     6.2939    -0.0406     5.5873 </r>
       <r>     6.3583     0.1559     5.5973 </r>
       <r>     6.4226     0.5264     5.6312 </r>
       <r>     6.4869     0.0675     5.6355 </r>
       <r>     6.5512     0.2042     5.6487 </r>
       <r>     6.6155     0.7044     5.6940 </r>
       <r>     6.6799     0.2162     5.7079 </r>
       <r>     6.7442     0.5682     5.7444 </r>
       <r>     6.8085     0.0115     5.7452 </r>
       <r>     6.8728     1.2275     5.8241 </r>
       <r>     6.9371     0.3333     5.8455 </r>
       <r>     7.0015     0.8050     5.8973 </r>
       <r>     7.0658     0.6307     5.9379 </r>
       <r>     7.1301    -0.0359     5.9356 </r>
       <r>     7.1944     0.2709     5.9530 </r>
       <r>     7.2587     0.8181     6.0056 </r>
       <r>     7.3230     0.1539     6.0155 </r>
       <r>     7.3874     0.7958     6.0667 </r>
       <r>     7.4517     0.0867     6.0723 </r>
       <r>     7.5160     1.0203     6.1379 </r>
       <r>     7.5803     0.6034     6.1767 </r>
       <r>     7.6446     0.6025     6.2155 </r>
       <r>     7.7090     0.0127     6.2163 </r>
       <r>     7.7733    -0.0046     6.2160 </r>
       <r>     7.8376     0.0000     6.2160 </r>
       <r>     7.9019    -0.0029     6.2158 </r>
       <r>     7.9662    -0.0388     6.2133 </r>
       <r>     8.0306     0.9060     6.2716 </r>
       <r>     8.0949     1.2653     6.3530 </r>
       <r>     8.1592     1.6151     6.4568 </r>
       <r>     8.2235     0.7957     6.5080 </r>
       <r>     8.2878    -0.0936     6.5020 </r>
       <r>     8.3521     0.3590     6.5251 </r>
       <r>     8.4165     1.1628     6.5999 </r>
       <r>     8.4808     0.4209     6.6270 </r>
       <r>     8.5451     0.6095     6.6662 </r>
       <r>     8.6094     0.8246     6.7192 </r>
       <r>     8.6737     1.7441     6.8314 </r>
       <r>     8.7381     1.0924     6.9016 </r>
       <r>     8.8024     0.2017     6.9146 </r>
       <r>     8.8667     1.1353     6.9876 </r>
       <r>     8.9310     1.7923     7.1029 </r>
       <r>     8.9953     0.9289     7.1627 </r>
       <r>     9.0597     0.5231     7.1963 </r>
       <r>     9.1240     1.7895     7.3114 </r>
       <r>     9.1883     2.3611     7.4633 </r>
       <r>     9.2526     0.8373     7.5171 </r>
       <r>     9.3169     0.3126     7.5372 </r>
       <r>     9.3813     2.0451     7.6688 </r>
       <r>     9.4456     0.9818     7.7319 </r>
       <r>     9.5099     1.2426     7.8119 </r>
       <r>     9.5742     0.5900     7.8498 </r>
       <r>     9.6385     0.1252     7.8579 </r>
       <r>     9.7028     1.1636     7.9327 </r>
       <r>     9.7672     1.5932     8.0352 </r>
       <r>     9.8315     1.1941     8.1120 </r>
       <r>     9.8958     0.1842     8.1238 </r>
       <r>     9.9601     0.1907     8.1361 </r>
       <r>    10.0244     1.5476     8.2356 </r>
       <r>    10.0888     2.2224     8.3786 </r>
       <r>    10.1531     0.8476     8.4331 </r>
       <r>    10.2174     0.9596     8.4948 </r>
       <r>    10.2817     0.9293     8.5546 </r>
       <r>    10.3460     1.3079     8.6387 </r>
       <r>    10.4104     2.0760     8.7722 </r>
       <r>    10.4747     3.1165     8.9727 </r>
       <r>    10.5390     2.4937     9.1331 </r>
       <r>    10.6033     3.3001     9.3453 </r>
       <r>    10.6676     3.5069     9.5709 </r>
       <r>    10.7320     4.4325     9.8560 </r>
       <r>    10.7963     2.5201    10.0181 </r>
       <r>    10.8606     2.2099    10.1602 </r>
       <r>    10.9249     1.1121    10.2317 </r>
       <r>    10.9892     0.8016    10.2833 </r>
       <r>    11.0535    -0.0041    10.2830 </r>
       <r>    11.1179     0.5399    10.3178 </r>
       <r>    11.1822     0.2219    10.3320 </r>
       <r>    11.2465     0.5406    10.3668 </r>
       <r>    11.3108     0.2544    10.3832 </r>
       <r>    11.3751     0.2910    10.4019 </r>
       <r>    11.4395     0.3082    10.4217 </r>
       <r>    11.5038     0.2390    10.4371 </r>
       <r>    11.5681    -0.0267    10.4354 </r>
       <r>    11.6324     0.0933    10.4414 </r>
       <r>    11.6967     0.6198    10.4812 </r>
       <r>    11.7611     0.4823    10.5123 </r>
       <r>    11.8254     0.3312    10.5336 </r>
       <r>    11.8897    -0.0301    10.5316 </r>
       <r>    11.9540     0.0375    10.5340 </r>
       <r>    12.0183     0.6525    10.5760 </r>
       <r>    12.0827     0.0710    10.5806 </r>
       <r>    12.1470    -0.0126    10.5797 </r>
       <r>    12.2113    -0.0055    10.5794 </r>
       <r>    12.2756     0.7473    10.6275 </r>
       <r>    12.3399     0.2139    10.6412 </r>
       <r>    12.4042    -0.0192    10.6400 </r>
       <r>    12.4686    -0.0228    10.6385 </r>
       <r>    12.5329     0.3078    10.6583 </r>
       <r>    12.5972     0.4067    10.6845 </r>
       <r>    12.6615     0.9857    10.7479 </r>
       <r>    12.7258     2.7924    10.9275 </r>
       <r>    12.7902     0.9079    10.9859 </r>
       <r>    12.8545     1.2285    11.0649 </r>
       <r>    12.9188     1.7160    11.1753 </r>
       <r>    12.9831     0.9760    11.2380 </r>
       <r>    13.0474     0.3863    11.2629 </r>
       <r>    13.1118     1.0948    11.3333 </r>
       <r>    13.1761    -0.0149    11.3323 </r>
       <r>    13.2404    -0.0053    11.3320 </r>
       <r>    13.3047     0.0000    11.3320 </r>
       <r>    13.3690     0.0000    11.3320 </r>
       <r>    13.4334    -0.0003    11.3320 </r>
       <r>    13.4977    -0.0058    11.3316 </r>
       <r>    13.5620     0.1212    11.3394 </r>
       <r>    13.6263     0.1074    11.3463 </r>
       <r>    13.6906     0.6458    11.3878 </r>
       <r>    13.7549     0.0639    11.3920 </r>
       <r>    13.8193     0.2723    11.4095 </r>
       <r>    13.8836     0.0843    11.4149 </r>
       <r>    13.9479     0.4312    11.4426 </r>
       <r>    14.0122     0.3574    11.4656 </r>
       <r>    14.0765    -0.0245    11.4640 </r>
       <r>    14.1409    -0.0005    11.4640 </r>
       <r>    14.2052     0.0000    11.4640 </r>
       <r>    14.2695    -0.0053    11.4637 </r>
       <r>    14.3338     0.0017    11.4638 </r>
       <r>    14.3981     0.8963    11.5214 </r>
       <r>    14.4625     0.1915    11.5337 </r>
       <r>    14.5268     0.7890    11.5845 </r>
       <r>    14.5911     1.4531    11.6779 </r>
       <r>    14.6554     0.0946    11.6840 </r>
       <r>    14.7197     0.1895    11.6962 </r>
       <r>    14.7841    -0.0024    11.6961 </r>
       <r>    14.8484    -0.0053    11.6957 </r>
       <r>    14.9127    -0.0303    11.6938 </r>
       <r>    14.9770     1.0664    11.7624 </r>
       <r>    15.0413     0.9161    11.8213 </r>
       <r>    15.1056     1.0775    11.8906 </r>
       <r>    15.1700    -0.0420    11.8879 </r>
       <r>    15.2343     0.0257    11.8895 </r>
       <r>    15.2986     0.6264    11.9298 </r>
       <r>    15.3629     0.4069    11.9560 </r>
       <r>    15.4272     0.4615    11.9857 </r>
       <r>    15.4916    -0.0291    11.9838 </r>
       <r>    15.5559     0.0399    11.9864 </r>
       <r>    15.6202     0.2106    11.9999 </r>
       <r>    15.6845     0.0027    12.0001 </r>
       <r>    15.7488    -0.0014    12.0000 </r>
       <r>    15.8132     0.0000    12.0000 </r>
       <r>    15.8775     0.0000    12.0000 </r>
       <r>    15.9418     0.0000    12.0000 </r>
       <r>    16.0061     0.0000    12.0000 </r>
       <r>    16.0704     0.0000    12.0000 </r>
       <r>    16.1348     0.0000    12.0000 </r>
       <r>    16.1991     0.0000    12.0000 </r>
       <r>    16.2634     0.0000    12.0000 </r>
       <r>    16.3277     0.0000    12.0000 </r>
       <r>    16.3920     0.0000    12.0000 </r>
       <r>    16.4563     0.0000    12.0000 </r>
      </set>
     </set>
    </array>
   </total>
  </dos>
 </calculation>
 <structure name="finalpos" >
  <crystal>
   <varray name="basis" >
    <v>       2.86654409       0.00000000       0.00000000 </v>
    <v>      -0.95551470       2.70260368       0.00000000 </v>
    <v>      -0.95551470      -1.35130184       2.34052345 </v>
   </varray>
   <i name="volume">     18.13234550 </i>
   <varray name="rec_basis" >
    <v>       0.34885213       0.12333785       0.21362743 </v>
    <v>       0.00000000       0.37001356       0.21362743 </v>
    <v>       0.00000000       0.00000000       0.42725485 </v>
   </varray>
  </crystal>
  <varray name="positions" >
   <v>       0.00000000       0.00000000       0.00000000 </v>
  </varray>
 </structure>
</modeling>
