   1   1   1   0
  0.1919141E+02  0.3005204E-09  0.3005204E-09  0.3005204E-09  0.5000000E-15
  1.000000000000000E-004
  CAR 
 unknown system                          
     23.70814319     -3.52179933  301      5.57030545      1.00000000
     -3.522  0.0000E+00  0.0000E+00  0.0000E+00  0.0000E+00
     -3.431  0.0000E+00  0.0000E+00  0.0000E+00  0.0000E+00
     -3.340  0.0000E+00  0.0000E+00  0.0000E+00  0.0000E+00
     -3.249  0.0000E+00  0.0000E+00  0.0000E+00  0.0000E+00
     -3.159  0.0000E+00  0.0000E+00  0.0000E+00  0.0000E+00
     -3.068  0.0000E+00  0.0000E+00  0.0000E+00  0.0000E+00
     -2.977  0.0000E+00  0.0000E+00  0.0000E+00  0.0000E+00
     -2.886  0.0000E+00  0.0000E+00  0.0000E+00  0.0000E+00
     -2.796  0.0000E+00  0.0000E+00  0.0000E+00  0.0000E+00
     -2.705 -0.5459E-34 -0.1757E-31 -0.4955E-35 -0.1595E-32
     -2.614 -0.1023E-21 -0.9530E-20 -0.9285E-23 -0.8650E-21
     -2.523 -0.2360E-12 -0.6279E-11 -0.2142E-13 -0.5699E-12
     -2.433 -0.6435E-06 -0.4735E-05 -0.5841E-07 -0.4297E-06
     -2.342 -0.1201E-02 -0.1486E-02 -0.1091E-03 -0.1353E-03
     -2.251  0.3379E-01  0.4217E-01  0.2958E-02  0.3692E-02
     -2.160  0.1067E-01  0.2415E-02  0.3926E-02  0.3911E-02
     -2.070 -0.2157E-03 -0.5612E-04  0.3906E-02  0.3906E-02
     -1.979 -0.9458E-03 -0.2456E-02  0.3820E-02  0.3683E-02
     -1.888  0.4296E-01  0.8068E-01  0.7720E-02  0.1101E-01
     -1.797  0.9005E-01  0.5213E-01  0.1589E-01  0.1574E-01
     -1.706 -0.2954E-02 -0.1241E-02  0.1563E-01  0.1562E-01
     -1.616 -0.6496E-03 -0.1865E-02  0.1557E-01  0.1546E-01
     -1.525  0.3207E-01  0.6813E-01  0.1848E-01  0.2164E-01
     -1.434  0.1013E+00  0.6456E-01  0.2767E-01  0.2750E-01
     -1.343 -0.3600E-02 -0.1716E-02  0.2734E-01  0.2734E-01
     -1.253 -0.1414E-02 -0.2911E-02  0.2722E-01  0.2708E-01
     -1.162  0.5283E-01  0.9650E-01  0.3201E-01  0.3584E-01
     -1.071  0.1252E+00  0.8088E-01  0.4337E-01  0.4318E-01
     -0.980 -0.4456E-02 -0.2337E-02  0.4297E-01  0.4297E-01
     -0.890 -0.6058E-02 -0.9102E-02  0.4242E-01  0.4214E-01
     -0.799  0.1827E+00  0.2417E+00  0.5901E-01  0.6408E-01
     -0.708  0.8335E-01  0.2617E-01  0.6657E-01  0.6645E-01
     -0.617 -0.4236E-02 -0.4779E-02  0.6619E-01  0.6602E-01
     -0.527  0.7999E-01  0.1131E+00  0.7345E-01  0.7629E-01
     -0.436  0.5281E-01  0.2064E-01  0.7824E-01  0.7816E-01
     -0.345 -0.1267E-02 -0.4152E-03  0.7812E-01  0.7812E-01
     -0.254 -0.5712E-02 -0.8031E-02  0.7761E-01  0.7739E-01
     -0.163  0.1735E+00  0.2323E+00  0.9335E-01  0.9848E-01
     -0.073  0.8829E-01  0.3157E-01  0.1014E+00  0.1013E+00
      0.018  0.1130E+00  0.1276E+00  0.1116E+00  0.1129E+00
      0.109  0.7453E-01  0.1280E+00  0.1184E+00  0.1245E+00
      0.200  0.2094E+00  0.1374E+00  0.1374E+00  0.1370E+00
      0.290 -0.5478E-02  0.2261E-01  0.1369E+00  0.1391E+00
      0.381  0.1747E+00  0.1520E+00  0.1528E+00  0.1529E+00
      0.472 -0.4567E-02 -0.5725E-02  0.1523E+00  0.1523E+00
      0.563 -0.1422E-02 -0.3990E-02  0.1522E+00  0.1520E+00
      0.653  0.5789E-01  0.1445E+00  0.1575E+00  0.1651E+00
      0.744  0.4542E+00  0.3787E+00  0.1987E+00  0.1995E+00
      0.835  0.2043E+00  0.2426E+00  0.2172E+00  0.2215E+00
      0.926  0.6038E-01  0.1179E-01  0.2227E+00  0.2226E+00
      1.017  0.1601E-01  0.4763E-01  0.2242E+00  0.2269E+00
      1.107  0.3181E+00  0.3482E+00  0.2530E+00  0.2585E+00
      1.198  0.1587E+00  0.1725E+00  0.2675E+00  0.2741E+00
      1.289  0.3299E+00  0.2544E+00  0.2974E+00  0.2972E+00
      1.380  0.4133E-01  0.1452E+00  0.3012E+00  0.3104E+00
      1.470  0.7478E+00  0.7432E+00  0.3690E+00  0.3779E+00
      1.561  0.3822E+00  0.3317E+00  0.4037E+00  0.4080E+00
      1.652  0.3736E+00  0.3255E+00  0.4376E+00  0.4375E+00
      1.743  0.1959E+00  0.3410E+00  0.4554E+00  0.4685E+00
      1.833  0.6320E+00  0.6067E+00  0.5128E+00  0.5235E+00
      1.924  0.3225E+00  0.2525E+00  0.5420E+00  0.5465E+00
      2.015  0.3363E+00  0.3638E+00  0.5726E+00  0.5795E+00
      2.106  0.3012E+00  0.2298E+00  0.5999E+00  0.6003E+00
      2.196  0.5108E+00  0.6152E+00  0.6463E+00  0.6562E+00
      2.287  0.2392E+00  0.2406E+00  0.6680E+00  0.6780E+00
      2.378  0.4180E+00  0.3229E+00  0.7059E+00  0.7073E+00
      2.469  0.5687E+00  0.7479E+00  0.7575E+00  0.7752E+00
      2.560  0.6826E+00  0.5633E+00  0.8195E+00  0.8263E+00
      2.650  0.3735E+00  0.3230E+00  0.8534E+00  0.8556E+00
      2.741  0.3610E+00  0.3942E+00  0.8862E+00  0.8914E+00
      2.832  0.1733E+00  0.1392E+00  0.9019E+00  0.9041E+00
      2.923  0.6250E+00  0.7387E+00  0.9586E+00  0.9711E+00
      3.013  0.4639E+00  0.4222E+00  0.1001E+01  0.1009E+01
      3.104  0.5009E+00  0.6093E+00  0.1046E+01  0.1065E+01
      3.195  0.6608E+00  0.4757E+00  0.1106E+01  0.1108E+01
      3.286  0.4954E+00  0.4931E+00  0.1151E+01  0.1153E+01
      3.376  0.2393E+00  0.3444E+00  0.1173E+01  0.1184E+01
      3.467  0.3191E+00  0.2442E+00  0.1202E+01  0.1206E+01
      3.558  0.4261E+00  0.4524E+00  0.1241E+01  0.1247E+01
      3.649  0.6036E+00  0.6997E+00  0.1295E+01  0.1311E+01
      3.740  0.8446E+00  0.7668E+00  0.1372E+01  0.1380E+01
      3.830  0.1645E+00  0.1233E+00  0.1387E+01  0.1391E+01
      3.921  0.5731E+00  0.6532E+00  0.1439E+01  0.1451E+01
      4.012  0.9227E+00  0.8765E+00  0.1523E+01  0.1530E+01
      4.103  0.4042E+00  0.3526E+00  0.1559E+01  0.1562E+01
      4.193  0.1277E+00  0.1919E+00  0.1571E+01  0.1580E+01
      4.284  0.3834E+00  0.3749E+00  0.1606E+01  0.1614E+01
      4.375  0.6406E+00  0.6819E+00  0.1664E+01  0.1676E+01
      4.466  0.9427E+00  0.9735E+00  0.1749E+01  0.1764E+01
      4.556  0.5305E+00  0.3601E+00  0.1798E+01  0.1797E+01
      4.647  0.2835E+00  0.4153E+00  0.1823E+01  0.1834E+01
      4.738  0.6210E+00  0.5896E+00  0.1880E+01  0.1888E+01
      4.829  0.5160E+00  0.5686E+00  0.1927E+01  0.1940E+01
      4.919  0.1224E+01  0.1267E+01  0.2038E+01  0.2055E+01
      5.010  0.6324E+00  0.5144E+00  0.2095E+01  0.2101E+01
      5.101  0.6901E+00  0.9042E+00  0.2158E+01  0.2183E+01
      5.192  0.6425E+00  0.4023E+00  0.2216E+01  0.2220E+01
      5.283  0.3181E+00  0.4394E+00  0.2245E+01  0.2260E+01
      5.373  0.1371E+01  0.1398E+01  0.2369E+01  0.2387E+01
      5.464  0.6698E+00  0.5379E+00  0.2430E+01  0.2435E+01
      5.555  0.4447E+00  0.6246E+00  0.2470E+01  0.2492E+01
      5.646  0.6874E+00  0.4505E+00  0.2533E+01  0.2533E+01
      5.736  0.3435E+00  0.4539E+00  0.2564E+01  0.2574E+01
      5.827  0.5725E+00  0.5902E+00  0.2616E+01  0.2628E+01
      5.918  0.7099E+00  0.7809E+00  0.2680E+01  0.2699E+01
      6.009  0.9238E+00  0.7565E+00  0.2764E+01  0.2767E+01
      6.099  0.3202E+00  0.4267E+00  0.2793E+01  0.2806E+01
      6.190  0.4509E+00  0.3863E+00  0.2834E+01  0.2841E+01
      6.281  0.7889E+00  0.9053E+00  0.2906E+01  0.2923E+01
      6.372  0.6052E+00  0.4281E+00  0.2961E+01  0.2962E+01
      6.463  0.5729E+00  0.7968E+00  0.3013E+01  0.3035E+01
      6.553  0.7169E+00  0.5296E+00  0.3078E+01  0.3083E+01
      6.644  0.5468E+00  0.6061E+00  0.3128E+01  0.3138E+01
      6.735  0.3987E+00  0.3979E+00  0.3164E+01  0.3174E+01
      6.826  0.6266E+00  0.5798E+00  0.3221E+01  0.3226E+01
      6.916  0.1748E+00  0.1464E+00  0.3236E+01  0.3240E+01
      7.007  0.5063E+00  0.5526E+00  0.3282E+01  0.3290E+01
      7.098  0.4491E+00  0.4289E+00  0.3323E+01  0.3329E+01
      7.189  0.1511E+00  0.2582E+00  0.3337E+01  0.3352E+01
      7.279  0.7352E+00  0.6010E+00  0.3404E+01  0.3407E+01
      7.370  0.5458E+00  0.6486E+00  0.3453E+01  0.3466E+01
      7.461  0.3482E+00  0.2072E+00  0.3485E+01  0.3484E+01
      7.552  0.9991E-01  0.1930E+00  0.3494E+01  0.3502E+01
      7.642  0.3420E+00  0.3778E+00  0.3525E+01  0.3536E+01
      7.733  0.6918E+00  0.7393E+00  0.3588E+01  0.3603E+01
      7.824  0.7606E+00  0.7024E+00  0.3657E+01  0.3667E+01
      7.915  0.5788E+00  0.6069E+00  0.3709E+01  0.3722E+01
      8.006  0.6316E+00  0.7214E+00  0.3767E+01  0.3788E+01
      8.096  0.7781E+00  0.5418E+00  0.3837E+01  0.3837E+01
      8.187  0.1227E+00  0.2527E+00  0.3848E+01  0.3860E+01
      8.278  0.4557E+00  0.4834E+00  0.3890E+01  0.3904E+01
      8.369  0.4821E+00  0.3888E+00  0.3933E+01  0.3939E+01
      8.459  0.2242E+00  0.1626E+00  0.3954E+01  0.3954E+01
      8.550 -0.2097E-01 -0.1605E-01  0.3952E+01  0.3952E+01
      8.641  0.3676E+00  0.4659E+00  0.3985E+01  0.3994E+01
      8.732  0.4028E+00  0.4933E+00  0.4022E+01  0.4039E+01
      8.822  0.1116E+01  0.1102E+01  0.4123E+01  0.4139E+01
      8.913  0.4039E+00  0.2720E+00  0.4160E+01  0.4164E+01
      9.004  0.4870E+00  0.5727E+00  0.4204E+01  0.4216E+01
      9.095  0.2563E+00  0.1194E+00  0.4227E+01  0.4227E+01
      9.186 -0.2147E-02  0.3823E-01  0.4227E+01  0.4230E+01
      9.276  0.2456E+00  0.2329E+00  0.4249E+01  0.4251E+01
      9.367  0.3642E+00  0.4343E+00  0.4282E+01  0.4291E+01
      9.458  0.3281E+00  0.2749E+00  0.4312E+01  0.4316E+01
      9.549  0.1551E+00  0.1981E+00  0.4326E+01  0.4334E+01
      9.639  0.3552E+00  0.3049E+00  0.4359E+01  0.4361E+01
      9.730  0.6233E-01  0.1039E+00  0.4364E+01  0.4371E+01
      9.821  0.1060E+01  0.1204E+01  0.4460E+01  0.4480E+01
      9.912  0.6454E+00  0.5146E+00  0.4519E+01  0.4527E+01
     10.002  0.5187E+00  0.5897E+00  0.4566E+01  0.4580E+01
     10.093  0.6736E+00  0.5583E+00  0.4627E+01  0.4631E+01
     10.184  0.1229E+00  0.1417E+00  0.4638E+01  0.4644E+01
     10.275  0.2620E+00  0.2403E+00  0.4662E+01  0.4666E+01
     10.365  0.5536E-01  0.1273E-01  0.4667E+01  0.4667E+01
     10.456  0.2978E+00  0.3739E+00  0.4694E+01  0.4701E+01
     10.547  0.4221E+00  0.4223E+00  0.4732E+01  0.4739E+01
     10.638  0.3663E+00  0.3738E+00  0.4766E+01  0.4773E+01
     10.729  0.6697E+00  0.8254E+00  0.4827E+01  0.4848E+01
     10.819  0.1650E+01  0.1590E+01  0.4976E+01  0.4992E+01
     10.910  0.3520E+00  0.2580E+00  0.5008E+01  0.5016E+01
     11.001  0.1110E+01  0.1141E+01  0.5109E+01  0.5119E+01
     11.092  0.4349E+00  0.3690E+00  0.5149E+01  0.5153E+01
     11.182  0.2388E+00  0.2264E+00  0.5170E+01  0.5173E+01
     11.273  0.1975E+00  0.2911E+00  0.5188E+01  0.5200E+01
     11.364  0.5762E+00  0.4804E+00  0.5240E+01  0.5243E+01
     11.455  0.4231E+00  0.5258E+00  0.5279E+01  0.5291E+01
     11.545  0.4511E+00  0.4075E+00  0.5320E+01  0.5328E+01
     11.636  0.7604E+00  0.7827E+00  0.5389E+01  0.5399E+01
     11.727  0.6190E+00  0.5539E+00  0.5445E+01  0.5449E+01
     11.818  0.4794E-01 -0.1138E-02  0.5449E+01  0.5449E+01
     11.909 -0.1922E-02 -0.2542E-02  0.5449E+01  0.5449E+01
     11.999  0.3026E-01  0.7405E-01  0.5452E+01  0.5456E+01
     12.090  0.3291E+00  0.3004E+00  0.5482E+01  0.5483E+01
     12.181  0.3938E+00  0.5359E+00  0.5518E+01  0.5532E+01
     12.272  0.4188E+00  0.2528E+00  0.5556E+01  0.5555E+01
     12.362  0.1418E+00  0.3015E+00  0.5568E+01  0.5582E+01
     12.453  0.7188E+00  0.6259E+00  0.5634E+01  0.5639E+01
     12.544  0.4395E+00  0.5008E+00  0.5674E+01  0.5684E+01
     12.635  0.2471E+00  0.1249E+00  0.5696E+01  0.5696E+01
     12.725 -0.7260E-02  0.2856E-01  0.5695E+01  0.5698E+01
     12.816  0.4001E+00  0.4907E+00  0.5732E+01  0.5743E+01
     12.907  0.5164E+00  0.3950E+00  0.5778E+01  0.5779E+01
     12.998  0.2131E-02  0.3713E-01  0.5779E+01  0.5782E+01
     13.088  0.2473E+00  0.2381E+00  0.5801E+01  0.5804E+01
     13.179  0.4383E+00  0.4780E+00  0.5841E+01  0.5847E+01
     13.270  0.3099E+00  0.2661E+00  0.5869E+01  0.5871E+01
     13.361  0.1135E+00  0.2052E+00  0.5879E+01  0.5890E+01
     13.452  0.4408E+00  0.3213E+00  0.5919E+01  0.5919E+01
     13.542 -0.1189E-01  0.1586E-01  0.5918E+01  0.5920E+01
     13.633  0.1298E+00  0.1075E+00  0.5930E+01  0.5930E+01
     13.724 -0.3989E-02 -0.3959E-02  0.5930E+01  0.5930E+01
     13.815 -0.2326E-04 -0.1026E-04  0.5930E+01  0.5930E+01
     13.905 -0.4627E-02 -0.8305E-02  0.5929E+01  0.5929E+01
     13.996  0.1523E+00  0.2143E+00  0.5943E+01  0.5948E+01
     14.087  0.2481E+00  0.3036E+00  0.5966E+01  0.5976E+01
     14.178  0.5164E+00  0.4067E+00  0.6012E+01  0.6013E+01
     14.268 -0.1315E-01  0.7938E-02  0.6011E+01  0.6014E+01
     14.359  0.2553E+00  0.2437E+00  0.6034E+01  0.6036E+01
     14.450  0.2373E+00  0.2525E+00  0.6056E+01  0.6059E+01
     14.541  0.7388E-01  0.8475E-01  0.6063E+01  0.6066E+01
     14.631  0.3221E+00  0.3067E+00  0.6092E+01  0.6094E+01
     14.722  0.1154E-01  0.9190E-03  0.6093E+01  0.6094E+01
     14.813  0.2456E+00  0.2538E+00  0.6115E+01  0.6117E+01
     14.904  0.3233E+00  0.4235E+00  0.6145E+01  0.6156E+01
     14.995  0.3485E+00  0.2633E+00  0.6176E+01  0.6180E+01
     15.085  0.3731E+00  0.4627E+00  0.6210E+01  0.6222E+01
     15.176  0.4456E+00  0.3447E+00  0.6251E+01  0.6253E+01
     15.267  0.2860E+00  0.3006E+00  0.6277E+01  0.6280E+01
     15.358  0.5194E-01  0.4066E-01  0.6281E+01  0.6284E+01
     15.448  0.2614E+00  0.2500E+00  0.6305E+01  0.6307E+01
     15.539  0.1206E+00  0.1016E+00  0.6316E+01  0.6316E+01
     15.630  0.2702E+00  0.4248E+00  0.6340E+01  0.6354E+01
     15.721  0.3023E+00  0.1404E+00  0.6368E+01  0.6367E+01
     15.811  0.5030E-01  0.1663E+00  0.6372E+01  0.6382E+01
     15.902  0.5824E+00  0.4919E+00  0.6425E+01  0.6427E+01
     15.993  0.1496E-02 -0.5988E-02  0.6425E+01  0.6426E+01
     16.084  0.1851E+00  0.2458E+00  0.6442E+01  0.6449E+01
     16.175  0.6152E+00  0.6194E+00  0.6498E+01  0.6505E+01
     16.265  0.1103E+00  0.3414E-01  0.6508E+01  0.6508E+01
     16.356 -0.5928E-02 -0.7915E-02  0.6508E+01  0.6507E+01
     16.447  0.1155E+00  0.1961E+00  0.6518E+01  0.6525E+01
     16.538  0.1393E+00  0.5664E-01  0.6531E+01  0.6530E+01
     16.628  0.2943E+00  0.3894E+00  0.6557E+01  0.6565E+01
     16.719  0.2267E+00  0.1769E+00  0.6578E+01  0.6582E+01
     16.810  0.4333E+00  0.4741E+00  0.6617E+01  0.6625E+01
     16.901  0.2130E+00  0.1248E+00  0.6637E+01  0.6636E+01
     16.991  0.2948E+00  0.4258E+00  0.6663E+01  0.6675E+01
     17.082  0.3419E+00  0.3395E+00  0.6694E+01  0.6705E+01
     17.173  0.4570E+00  0.3924E+00  0.6736E+01  0.6741E+01
     17.264  0.3797E+00  0.3273E+00  0.6770E+01  0.6771E+01
     17.354 -0.9148E-02 -0.1266E-01  0.6770E+01  0.6770E+01
     17.445 -0.1038E-03 -0.1422E-04  0.6770E+01  0.6770E+01
     17.536 -0.1340E-02 -0.3915E-02  0.6769E+01  0.6769E+01
     17.627  0.6587E-01  0.1405E+00  0.6775E+01  0.6782E+01
     17.718  0.1968E+00  0.1169E+00  0.6793E+01  0.6793E+01
     17.808  0.1340E+00  0.2113E+00  0.6805E+01  0.6812E+01
     17.899  0.1587E+00  0.1385E+00  0.6820E+01  0.6824E+01
     17.990  0.2715E+00  0.2703E+00  0.6844E+01  0.6849E+01
     18.081  0.7437E+00  0.8624E+00  0.6912E+01  0.6927E+01
     18.171  0.4905E+00  0.3513E+00  0.6956E+01  0.6959E+01
     18.262  0.2173E+00  0.2474E+00  0.6976E+01  0.6981E+01
     18.353  0.3523E+00  0.3312E+00  0.7008E+01  0.7011E+01
     18.444  0.5702E-01  0.7052E-01  0.7013E+01  0.7018E+01
     18.534  0.3099E+00  0.3285E+00  0.7041E+01  0.7048E+01
     18.625  0.3081E+00  0.2455E+00  0.7069E+01  0.7070E+01
     18.716  0.1499E+00  0.2437E+00  0.7083E+01  0.7092E+01
     18.807  0.7618E+00  0.7433E+00  0.7152E+01  0.7160E+01
     18.898  0.2605E+00  0.1813E+00  0.7176E+01  0.7176E+01
     18.988 -0.1461E+00 -0.1944E+00  0.7163E+01  0.7158E+01
     19.079  0.9568E+01  0.9481E+01  0.8031E+01  0.8019E+01
     19.170  0.1633E+01  0.2053E+01  0.8179E+01  0.8205E+01
     19.261 -0.9530E-02 -0.3860E-01  0.8178E+01  0.8202E+01
     19.351  0.4600E+00  0.5678E+00  0.8220E+01  0.8253E+01
     19.442  0.2060E+00  0.9544E-01  0.8239E+01  0.8262E+01
     19.533 -0.1632E-01  0.1523E-02  0.8237E+01  0.8262E+01
     19.624  0.3532E+00  0.2674E+00  0.8269E+01  0.8286E+01
     19.714  0.6664E+00  0.9027E+00  0.8330E+01  0.8368E+01
     19.805  0.5449E+00  0.3292E+00  0.8379E+01  0.8398E+01
     19.896  0.2902E+00  0.3575E+00  0.8406E+01  0.8431E+01
     19.987  0.5242E+00  0.5945E+00  0.8453E+01  0.8485E+01
     20.077  0.8886E+00  0.5444E+00  0.8534E+01  0.8534E+01
     20.168  0.1918E+00  0.2363E+00  0.8551E+01  0.8555E+01
     20.259  0.3002E+00  0.2596E+00  0.8579E+01  0.8579E+01
     20.350 -0.1816E-01 -0.1902E-01  0.8577E+01  0.8577E+01
     20.441  0.3656E+00  0.4098E+00  0.8610E+01  0.8614E+01
     20.531  0.1691E+00  0.2176E+00  0.8625E+01  0.8634E+01
     20.622  0.2354E-01  0.1589E+00  0.8628E+01  0.8649E+01
     20.713  0.2809E+00  0.1109E+00  0.8653E+01  0.8659E+01
     20.804  0.3843E+00  0.7010E+00  0.8688E+01  0.8722E+01
     20.894  0.4577E+00  0.2470E+00  0.8729E+01  0.8745E+01
     20.985  0.2639E+00  0.1940E+00  0.8753E+01  0.8762E+01
     21.076  0.2285E+00  0.1792E-02  0.8774E+01  0.8763E+01
     21.167  0.2739E+00  0.3586E+00  0.8799E+01  0.8795E+01
     21.257  0.2286E+00  0.3264E+00  0.8820E+01  0.8825E+01
     21.348  0.1385E+00  0.7713E-01  0.8832E+01  0.8832E+01
     21.439  0.3409E-01  0.1708E+00  0.8835E+01  0.8847E+01
     21.530  0.4434E+00  0.3319E+00  0.8876E+01  0.8877E+01
     21.621  0.3644E-01  0.1810E-01  0.8879E+01  0.8879E+01
     21.711 -0.5356E-02 -0.9587E-02  0.8879E+01  0.8878E+01
     21.802  0.1283E+00  0.2959E+00  0.8890E+01  0.8905E+01
     21.893  0.5221E+00  0.3645E+00  0.8938E+01  0.8938E+01
     21.984  0.4249E-01  0.6655E-01  0.8941E+01  0.8944E+01
     22.074  0.2659E+00  0.2381E+00  0.8966E+01  0.8966E+01
     22.165 -0.7458E-02 -0.9054E-02  0.8965E+01  0.8965E+01
     22.256 -0.5490E-04 -0.1866E-04  0.8965E+01  0.8965E+01
     22.347 -0.3856E-02 -0.4957E-02  0.8964E+01  0.8964E+01
     22.437  0.1145E+00  0.1488E+00  0.8975E+01  0.8978E+01
     22.528  0.2864E+00  0.2527E+00  0.9001E+01  0.9001E+01
     22.619 -0.9597E-02 -0.9196E-02  0.9000E+01  0.9000E+01
     22.710 -0.2843E-04 -0.1088E-04  0.9000E+01  0.9000E+01
     22.800 -0.3768E-10 -0.7600E-11  0.9000E+01  0.9000E+01
     22.891  0.0000E+00  0.0000E+00  0.9000E+01  0.9000E+01
     22.982  0.0000E+00  0.0000E+00  0.9000E+01  0.9000E+01
     23.073  0.0000E+00  0.0000E+00  0.9000E+01  0.9000E+01
     23.164  0.0000E+00  0.0000E+00  0.9000E+01  0.9000E+01
     23.254  0.0000E+00  0.0000E+00  0.9000E+01  0.9000E+01
     23.345  0.0000E+00  0.0000E+00  0.9000E+01  0.9000E+01
     23.436  0.0000E+00  0.0000E+00  0.9000E+01  0.9000E+01
     23.527  0.0000E+00  0.0000E+00  0.9000E+01  0.9000E+01
     23.617  0.0000E+00  0.0000E+00  0.9000E+01  0.9000E+01
     23.708  0.0000E+00  0.0000E+00  0.9000E+01  0.9000E+01
     23.70814319     -3.52179933  301      5.57030545      1.00000000
     -3.522  0.0000E+00  0.0000E+00  0.0000E+00  0.0000E+00  0.0000E+00  0.0000E+00  0.0000E+00  0.0000E+00  0.0000E+00  0.0000E+00  0.0000E+00  0.0000E+00  0.0000E+00  0.0000E+00  0.0000E+00  0.0000E+00  0.0000E+00  0.0000E+00
     -3.431  0.0000E+00  0.0000E+00  0.0000E+00  0.0000E+00  0.0000E+00  0.0000E+00  0.0000E+00  0.0000E+00  0.0000E+00  0.0000E+00  0.0000E+00  0.0000E+00  0.0000E+00  0.0000E+00  0.0000E+00  0.0000E+00  0.0000E+00  0.0000E+00
     -3.340  0.0000E+00  0.0000E+00  0.0000E+00  0.0000E+00  0.0000E+00  0.0000E+00  0.0000E+00  0.0000E+00  0.0000E+00  0.0000E+00  0.0000E+00  0.0000E+00  0.0000E+00  0.0000E+00  0.0000E+00  0.0000E+00  0.0000E+00  0.0000E+00
     -3.249  0.0000E+00  0.0000E+00  0.0000E+00  0.0000E+00  0.0000E+00  0.0000E+00  0.0000E+00  0.0000E+00  0.0000E+00  0.0000E+00  0.0000E+00  0.0000E+00  0.0000E+00  0.0000E+00  0.0000E+00  0.0000E+00  0.0000E+00  0.0000E+00
     -3.159  0.0000E+00  0.0000E+00  0.0000E+00  0.0000E+00  0.0000E+00  0.0000E+00  0.0000E+00  0.0000E+00  0.0000E+00  0.0000E+00  0.0000E+00  0.0000E+00  0.0000E+00  0.0000E+00  0.0000E+00  0.0000E+00  0.0000E+00  0.0000E+00
     -3.068  0.0000E+00  0.0000E+00  0.0000E+00  0.0000E+00  0.0000E+00  0.0000E+00  0.0000E+00  0.0000E+00  0.0000E+00  0.0000E+00  0.0000E+00  0.0000E+00  0.0000E+00  0.0000E+00  0.0000E+00  0.0000E+00  0.0000E+00  0.0000E+00
     -2.977  0.0000E+00  0.0000E+00  0.0000E+00  0.0000E+00  0.0000E+00  0.0000E+00  0.0000E+00  0.0000E+00  0.0000E+00  0.0000E+00  0.0000E+00  0.0000E+00  0.0000E+00  0.0000E+00  0.0000E+00  0.0000E+00  0.0000E+00  0.0000E+00
     -2.886  0.0000E+00  0.0000E+00  0.0000E+00  0.0000E+00  0.0000E+00  0.0000E+00  0.0000E+00  0.0000E+00  0.0000E+00  0.0000E+00  0.0000E+00  0.0000E+00  0.0000E+00  0.0000E+00  0.0000E+00  0.0000E+00  0.0000E+00  0.0000E+00
     -2.796  0.0000E+00  0.0000E+00  0.0000E+00  0.0000E+00  0.0000E+00  0.0000E+00  0.0000E+00  0.0000E+00  0.0000E+00  0.0000E+00  0.0000E+00  0.0000E+00  0.0000E+00  0.0000E+00  0.0000E+00  0.0000E+00  0.0000E+00  0.0000E+00
     -2.705 -0.4362E-34 -0.1403E-31 -0.2005E-36 -0.6450E-34 -0.2005E-36 -0.6450E-34 -0.2005E-36 -0.6450E-34 -0.4126E-38 -0.1329E-35 -0.4126E-38 -0.1329E-35 -0.6600E-45 -0.4259E-46 -0.4126E-38 -0.1329E-35 -0.1030E-44 -0.2445E-46
     -2.614 -0.8174E-22 -0.7612E-20 -0.3756E-24 -0.3498E-22 -0.3756E-24 -0.3498E-22 -0.3756E-24 -0.3498E-22 -0.7730E-26 -0.7208E-24 -0.7730E-26 -0.7208E-24 -0.1237E-32 -0.2310E-34 -0.7731E-26 -0.7208E-24 -0.1929E-32 -0.1326E-34
     -2.523 -0.1886E-12 -0.5015E-11 -0.8664E-15 -0.2305E-13 -0.8664E-15 -0.2305E-13 -0.8664E-15 -0.2305E-13 -0.1783E-16 -0.4749E-15 -0.1783E-16 -0.4749E-15 -0.2853E-23 -0.1522E-25 -0.1783E-16 -0.4749E-15 -0.4450E-23 -0.8737E-26
     -2.433 -0.5142E-06 -0.3781E-05 -0.2363E-08 -0.1738E-07 -0.2363E-08 -0.1738E-07 -0.2363E-08 -0.1738E-07 -0.4863E-10 -0.3581E-09 -0.4863E-10 -0.3581E-09 -0.7780E-17 -0.1148E-19 -0.4863E-10 -0.3581E-09 -0.1213E-16 -0.6588E-20
     -2.342 -0.9599E-03 -0.1187E-02 -0.4411E-05 -0.5454E-05 -0.4411E-05 -0.5454E-05 -0.4411E-05 -0.5454E-05 -0.9078E-07 -0.1124E-06 -0.9078E-07 -0.1124E-06 -0.1452E-13 -0.3602E-17 -0.9079E-07 -0.1124E-06 -0.2265E-13 -0.2068E-17
     -2.251  0.2700E-01  0.3368E-01  0.1241E-03  0.1548E-03  0.1241E-03  0.1548E-03  0.1241E-03  0.1548E-03  0.2553E-05  0.3189E-05  0.2553E-05  0.3189E-05  0.4085E-12  0.1022E-15  0.2554E-05  0.3189E-05  0.6372E-12  0.5868E-16
     -2.160  0.8523E-02  0.1929E-02  0.3917E-04  0.8865E-05  0.3917E-04  0.8865E-05  0.3917E-04  0.8865E-05  0.8061E-06  0.1827E-06  0.8061E-06  0.1827E-06  0.1290E-12 -0.1492E-16  0.8062E-06  0.1827E-06  0.2012E-12 -0.5895E-16
     -2.070 -0.1724E-03 -0.4481E-04 -0.7921E-06 -0.2059E-06 -0.7921E-06 -0.2059E-06 -0.7935E-06 -0.2216E-06 -0.1633E-07 -0.4562E-08 -0.1630E-07 -0.4256E-08 -0.1100E-10 -0.1183E-09 -0.1633E-07 -0.4562E-08 -0.3301E-10 -0.3549E-09
     -1.979 -0.7334E-03 -0.1903E-02 -0.3259E-05 -0.8461E-05 -0.3259E-05 -0.8461E-05 -0.3057E-04 -0.7937E-04 -0.6235E-06 -0.1619E-05 -0.9182E-07 -0.2385E-06 -0.2048E-06 -0.5325E-06 -0.6234E-06 -0.1619E-05 -0.6149E-06 -0.1598E-05
     -1.888  0.3332E-01  0.6253E-01  0.1481E-03  0.2780E-03  0.1480E-03  0.2780E-03  0.1389E-02  0.2608E-02  0.2832E-04  0.5318E-04  0.4171E-05  0.7837E-05  0.9303E-05  0.1750E-04  0.2832E-04  0.5318E-04  0.2793E-04  0.5249E-04
     -1.797  0.6983E-01  0.4040E-01  0.3103E-03  0.1796E-03  0.3103E-03  0.1796E-03  0.2911E-02  0.1685E-02  0.5936E-04  0.3436E-04  0.8743E-05  0.5064E-05  0.1950E-04  0.1131E-04  0.5936E-04  0.3436E-04  0.5854E-04  0.3392E-04
     -1.706 -0.2291E-02 -0.9621E-03 -0.1018E-04 -0.4284E-05 -0.1018E-04 -0.4284E-05 -0.9549E-04 -0.4011E-04 -0.1947E-05 -0.8182E-06 -0.2869E-06 -0.1220E-06 -0.6396E-06 -0.2692E-06 -0.1947E-05 -0.8182E-06 -0.1920E-05 -0.8076E-06
     -1.616 -0.4885E-03 -0.1401E-02 -0.1969E-04 -0.5659E-04 -0.1969E-04 -0.5659E-04 -0.2059E-05 -0.5833E-05 -0.5516E-06 -0.1584E-05 -0.3750E-05 -0.1078E-04 -0.1140E-06 -0.3274E-06 -0.5516E-06 -0.1584E-05 -0.3420E-06 -0.9823E-06
     -1.525  0.2411E-01  0.5120E-01  0.9733E-03  0.2068E-02  0.9732E-03  0.2068E-02  0.1003E-03  0.2130E-03  0.2724E-04  0.5787E-04  0.1854E-03  0.3938E-03  0.5628E-05  0.1196E-04  0.2724E-04  0.5787E-04  0.1688E-04  0.3589E-04
     -1.434  0.7617E-01  0.4852E-01  0.3074E-02  0.1959E-02  0.3074E-02  0.1959E-02  0.3168E-03  0.2019E-03  0.8604E-04  0.5484E-04  0.5855E-03  0.3731E-03  0.1778E-04  0.1134E-04  0.8604E-04  0.5484E-04  0.5331E-04  0.3401E-04
     -1.343 -0.2707E-02 -0.1289E-02 -0.1093E-03 -0.5206E-04 -0.1093E-03 -0.5207E-04 -0.1127E-04 -0.5422E-05 -0.3060E-05 -0.1473E-05 -0.2081E-04 -0.9919E-05 -0.6319E-06 -0.3020E-06 -0.3060E-05 -0.1473E-05 -0.1894E-05 -0.9024E-06
     -1.253 -0.1028E-02 -0.2113E-02 -0.2793E-04 -0.4562E-04 -0.6451E-04 -0.1608E-03 -0.2788E-04 -0.4561E-04 -0.7254E-05 -0.1141E-04 -0.7945E-05 -0.1356E-04 -0.4026E-05 -0.1270E-04 -0.7936E-05 -0.1356E-04 -0.1011E-08 -0.1091E-09
     -1.162  0.3838E-01  0.7004E-01  0.8852E-03  0.1265E-02  0.2784E-02  0.5915E-02  0.8851E-03  0.1265E-02  0.2243E-03  0.3048E-03  0.2597E-03  0.3915E-03  0.2090E-03  0.5126E-03  0.2597E-03  0.3915E-03  0.4038E-12  0.4500E-14
     -1.071  0.9081E-01  0.5863E-01  0.7390E-03  0.3645E-03  0.9807E-02  0.6601E-02  0.7388E-03  0.3645E-03  0.1263E-03  0.4795E-04  0.2954E-03  0.1642E-03  0.9979E-03  0.6875E-03  0.2954E-03  0.1642E-03  0.1378E-11 -0.3962E-13
     -0.980 -0.3232E-02 -0.1694E-02 -0.2156E-04 -0.9796E-05 -0.3602E-03 -0.1920E-03 -0.2167E-04 -0.1065E-04 -0.3100E-05 -0.1291E-05 -0.9386E-05 -0.4477E-05 -0.3728E-04 -0.2018E-04 -0.9386E-05 -0.4490E-05 -0.6439E-08 -0.4994E-07
     -0.890 -0.4255E-02 -0.6389E-02 -0.1625E-03 -0.2442E-03 -0.1574E-04 -0.2324E-04 -0.4849E-03 -0.7287E-03 -0.9086E-04 -0.1365E-03 -0.8426E-05 -0.1265E-04 -0.1719E-04 -0.2583E-04 -0.1333E-04 -0.2002E-04 -0.1882E-04 -0.2833E-04
     -0.799  0.1283E+00  0.1696E+00  0.4904E-02  0.6486E-02  0.4658E-03  0.6162E-03  0.1463E-01  0.1935E-01  0.2742E-02  0.3626E-02  0.2541E-03  0.3359E-03  0.5179E-03  0.6859E-03  0.4021E-03  0.5317E-03  0.5679E-03  0.7524E-03
     -0.708  0.5854E-01  0.1837E-01  0.2237E-02  0.7022E-03  0.2125E-03  0.6663E-04  0.6675E-02  0.2095E-02  0.1251E-02  0.3925E-03  0.1159E-03  0.3633E-04  0.2362E-03  0.7427E-04  0.1834E-03  0.5749E-04  0.2590E-03  0.8146E-04
     -0.617 -0.2912E-02 -0.3243E-02 -0.1024E-03 -0.1084E-03 -0.5831E-04 -0.9585E-04 -0.3195E-03 -0.3479E-03 -0.7387E-04 -0.8983E-04 -0.3159E-04 -0.5189E-04 -0.7129E-05 -0.4962E-05 -0.5062E-04 -0.8323E-04 -0.1159E-04 -0.1210E-04
     -0.527  0.5408E-01  0.7646E-01  0.1774E-02  0.2509E-02  0.1774E-02  0.2509E-02  0.5755E-02  0.8138E-02  0.1541E-02  0.2178E-02  0.9603E-03  0.1358E-02  0.6555E-04  0.9288E-04  0.1541E-02  0.2178E-02  0.1966E-03  0.2786E-03
     -0.436  0.3570E-01  0.1395E-01  0.1171E-02  0.4576E-03  0.1171E-02  0.4576E-03  0.3799E-02  0.1485E-02  0.1017E-02  0.3974E-03  0.6340E-03  0.2477E-03  0.4328E-04  0.1694E-04  0.1017E-02  0.3974E-03  0.1298E-03  0.5083E-04
     -0.345 -0.8569E-03 -0.2801E-03 -0.2823E-04 -0.1003E-04 -0.2827E-04 -0.1037E-04 -0.9099E-04 -0.2845E-04 -0.2437E-04 -0.7672E-05 -0.1529E-04 -0.5467E-05 -0.1051E-05 -0.4498E-06 -0.2437E-04 -0.7678E-05 -0.3118E-05 -0.1034E-05
     -0.254 -0.3708E-02 -0.5194E-02 -0.2791E-03 -0.3123E-03 -0.5457E-03 -0.8571E-03 -0.1128E-04 -0.1694E-04 -0.1468E-04 -0.1675E-04 -0.1607E-03 -0.1819E-03 -0.8852E-04 -0.1771E-03 -0.1911E-04 -0.2580E-04 -0.1318E-04 -0.1456E-04
     -0.163  0.1125E+00  0.1503E+00  0.7682E-02  0.9356E-02  0.1747E-01  0.2443E-01  0.3532E-03  0.4852E-03  0.4071E-03  0.4991E-03  0.4444E-02  0.5439E-02  0.3210E-02  0.4913E-02  0.5699E-03  0.7496E-03  0.3606E-03  0.4373E-03
     -0.073  0.5690E-01  0.2029E-01  0.1869E-02  0.2699E-03  0.1131E-01  0.4536E-02  0.1530E-03  0.4155E-04 -0.1314E-04 -0.6517E-04  0.1064E-02  0.1357E-03  0.3009E-02  0.1353E-02  0.1438E-03  0.5712E-05  0.8740E-04  0.1332E-04
      0.018  0.7029E-01  0.7939E-01  0.6587E-02  0.7441E-02  0.6203E-02  0.6961E-02  0.1654E-02  0.1872E-02  0.3538E-02  0.3997E-02  0.5779E-02  0.6506E-02 -0.6310E-04 -0.7954E-04  0.3533E-02  0.3993E-02  0.1658E-03  0.1892E-03
      0.109  0.4619E-01  0.7918E-01  0.2298E-02  0.2937E-02  0.9024E-02  0.1794E-01  0.3537E-03  0.2430E-03  0.6917E-03  0.3779E-03  0.2304E-02  0.3220E-02  0.1979E-02  0.4404E-02  0.7410E-03  0.4877E-03  0.3456E-04  0.2192E-04
      0.200  0.1296E+00  0.8504E-01  0.4764E-02  0.3132E-02  0.2947E-01  0.1933E-01  0.3797E-03  0.2433E-03  0.5802E-03  0.3713E-03  0.5239E-02  0.3433E-02  0.7238E-02  0.4760E-02  0.7604E-03  0.4866E-03  0.3425E-04  0.2274E-04
      0.290 -0.3446E-02  0.1313E-01 -0.1420E-03  0.4276E-03 -0.7941E-03  0.2331E-02  0.1784E-04  0.5074E-03  0.2479E-04  0.8593E-03 -0.1248E-03  0.9658E-03 -0.2080E-03  0.3967E-03  0.3820E-04  0.1047E-02 -0.1262E-05 -0.6300E-06
      0.381  0.1022E+00  0.8878E-01  0.3620E-02  0.3176E-02  0.1798E-01  0.1552E-01  0.3620E-02  0.3176E-02  0.6296E-02  0.5539E-02  0.7463E-02  0.6542E-02  0.3217E-02  0.2772E-02  0.7463E-02  0.6542E-02 -0.8063E-09 -0.8983E-10
      0.472 -0.2678E-02 -0.3344E-02 -0.8910E-04 -0.1198E-03 -0.4948E-03 -0.5837E-03 -0.8910E-04 -0.1199E-03 -0.1510E-03 -0.2091E-03 -0.1840E-03 -0.2467E-03 -0.9090E-04 -0.1042E-03 -0.1840E-03 -0.2467E-03 -0.4035E-09 -0.4437E-08
      0.563 -0.8165E-03 -0.2286E-02 -0.8196E-04 -0.2317E-03 -0.4991E-05 -0.4580E-05 -0.1736E-03 -0.4950E-03 -0.1010E-03 -0.2881E-03 -0.1443E-04 -0.4157E-04 -0.1383E-04 -0.3769E-04 -0.1277E-04 -0.3634E-04 -0.1164E-04 -0.3336E-04
      0.653  0.3359E-01  0.8279E-01  0.3595E-02  0.8416E-02 -0.5447E-06  0.1375E-03  0.7506E-02  0.1797E-01  0.4025E-02  0.1043E-01  0.5539E-04  0.1455E-02  0.5961E-03  0.1365E-02  0.2871E-04  0.1269E-02  0.5124E-03  0.1212E-02
      0.744  0.2523E+00  0.2090E+00  0.2201E-01  0.1764E-01  0.9658E-03  0.7475E-03  0.5062E-01  0.4130E-01  0.3628E-01  0.3087E-01  0.1562E-01  0.1490E-01  0.2673E-02  0.1824E-02  0.1400E-01  0.1337E-01  0.3248E-02  0.2627E-02
      0.835  0.9927E-01  0.1176E+00  0.1595E-02  0.1674E-02  0.1964E-01  0.2454E-01  0.6109E-02  0.6612E-02  0.1184E-01  0.1345E-01  0.1248E-01  0.1435E-01  0.1716E-01  0.2160E-01  0.1231E-01  0.1422E-01  0.2572E-03  0.2682E-03
      0.926  0.2952E-01  0.5881E-02  0.4876E-03  0.8971E-04  0.6227E-02  0.1286E-02  0.1750E-02  0.3888E-03  0.3141E-02  0.4925E-03  0.3250E-02  0.5060E-03  0.5527E-02  0.1156E-02  0.3214E-02  0.5078E-03  0.7622E-04  0.1689E-04
      1.017  0.5638E-02  0.1808E-01  0.1783E-03  0.7732E-03 -0.7272E-03 -0.6290E-03  0.4087E-04  0.1518E-03  0.3742E-02  0.9333E-02  0.3773E-02  0.9666E-02 -0.8152E-03 -0.1252E-02  0.3754E-02  0.9355E-02  0.2549E-05  0.1631E-04