    1    1    1    2
  0.1919141E+02  0.3005204E-09  0.3005204E-09  0.3005204E-09  0.5000000E-15
  1.000000000000000E-004
  CAR 
 unknown system                          
    5   60    9
 
  0.6250000E-01  0.6250000E-01  0.6250000E-01  0.3906250E-02
   1       -2.267147     -2.284075
   2        5.910757      5.895308
   3        6.115545      6.099968
   4        6.115545      6.099968
   5        8.867325      8.845549
   6        8.867325      8.845549
   7       18.318576     18.311705
   8       19.049523     19.053753
   9       21.956376     21.936738
 
  0.1875000E+00  0.6250000E-01  0.6250000E-01  0.1171875E-01
   1       -1.508894     -1.525718
   2        5.337910      5.322969
   3        6.409482      6.393490
   4        6.442156      6.426576
   5        8.316442      8.294717
   6        8.990170      8.968951
   7       19.047633     19.051810
   8       19.649773     19.640157
   9       20.412939     20.397392
 
  0.3125000E+00  0.6250000E-01  0.6250000E-01  0.1171875E-01
   1       -0.006690     -0.023157
   2        4.799677      4.785107
   3        6.285817      6.267792
   4        6.502175      6.484039
   5        8.655627      8.636758
   6        9.756491      9.737712
   7       17.914903     17.897867
   8       19.050705     19.054902
   9       21.511861     21.502364
 
  0.4375000E+00  0.6250000E-01  0.6250000E-01  0.1171875E-01
   1        1.048485      1.032928
   2        5.371881      5.355725
   3        5.873763      5.855556
   4        6.069685      6.050213
   5       10.190866     10.173946
   6       11.102953     11.085986
   7       16.084334     16.067687
   8       18.795048     18.783189
   9       19.061363     19.065271
 
 -0.4375000E+00  0.6250000E-01  0.6250000E-01  0.1171875E-01
   1        1.212872      1.197684
   2        5.509292      5.489693
   3        5.958422      5.938898
   4        6.171921      6.156476
   5       11.201327     11.184920
   6       11.305632     11.289074
   7       15.186772     15.170938
   8       17.935342     17.922386
   9       19.052597     19.056888
 
 -0.3125000E+00  0.6250000E-01  0.6250000E-01  0.1171875E-01
   1        0.817077      0.801173
   2        5.026114      5.010926
   3        5.937616      5.918623
   4        6.250738      6.231895
   5        9.861660      9.844396
   6       10.505484     10.487902
   7       16.672432     16.655514
   8       19.045983     19.049989
   9       19.697171     19.685714
 
 -0.1875000E+00  0.6250000E-01  0.6250000E-01  0.1171875E-01
   1       -0.532508     -0.549156
   2        4.866369      4.851753
   3        6.437223      6.419624
   4        6.581768      6.564829
   5        8.408889      8.389406
   6        9.323013      9.302942
   7       18.596838     18.580065
   8       19.053999     19.058047
   9       21.503978     21.495622
 
 -0.6250000E-01  0.6250000E-01  0.6250000E-01  0.1171875E-01
   1       -1.877432     -1.894312
   2        5.544180      5.529018
   3        6.323349      6.307786
   4        6.335247      6.319666
   5        8.388326      8.366564
   6        9.031528      9.009834
   7       19.048934     19.053141
   8       19.110646     19.103493
   9       21.188390     21.170200
 
  0.1875000E+00  0.1875000E+00  0.6250000E-01  0.1171875E-01
   1       -1.140782     -1.157615
   2        4.919886      4.905118
   3        6.700016      6.683829
   4        6.772171      6.756575
   5        7.662201      7.641272
   6        9.344515      9.322999
   7       19.047828     19.052032
   8       20.474743     20.465363
   9       20.927071     20.911861
 
  0.3125000E+00  0.1875000E+00  0.6250000E-01  0.2343750E-01
   1        0.126809      0.110021
   2        4.296219      4.281879
   3        6.102949      6.083542
   4        7.319601      7.302945
   5        8.024893      8.007229
   6       10.042718     10.023090
   7       19.042765     19.046717
   8       19.710369     19.693316
   9       22.470419     22.462008
 
  0.4375000E+00  0.1875000E+00  0.6250000E-01  0.2343750E-01
   1        1.499135      1.482964
   2        4.321192      4.305539
   3        5.309844      5.291563
   4        6.984553      6.965634
   5        9.809871      9.793209
   6       11.400352     11.383358
   7       16.992607     16.975291
   8       19.052635     19.056876
   9       20.413546     20.400464
 
 -0.4375000E+00  0.1875000E+00  0.6250000E-01  0.2343750E-01
   1        1.961265      1.946268
   2        4.490269      4.470026
   3        5.692983      5.678687
   4        6.652756      6.633067
   5       10.947843     10.931811
   6       12.434181     12.417586
   7       14.602134     14.585639
   8       19.051341     19.055616
   9       19.584831     19.571478
 
 -0.3125000E+00  0.1875000E+00  0.6250000E-01  0.2343750E-01
   1        1.812269      1.796815
   2        4.653531      4.635215
   3        5.222986      5.207101
   4        6.743827      6.724003
   5        9.792241      9.775946
   6       12.171665     12.155235
   7       16.127624     16.110265
   8       19.052230     19.056494
   9       20.021412     20.008424
 
 -0.1875000E+00  0.1875000E+00  0.6250000E-01  0.2343750E-01
   1        0.669117      0.652618
   2        4.397709      4.383505
   3        5.742794      5.723727
   4        7.211571      7.192625
   5        8.049761      8.032396
   6       10.774539     10.756640
   7       18.773858     18.757472
   8       19.069267     19.072335
   9       22.022384     22.010478
 
 -0.6250000E-01  0.1875000E+00  0.6250000E-01  0.2343750E-01
   1       -0.809994     -0.826743
   2        4.875868      4.861239
   3        6.468135      6.450948
   4        6.798633      6.782809
   5        7.897412      7.876713
   6        9.404132      9.383661
   7       19.044992     19.049051
   8       19.702897     19.686150
   9       21.118589     21.110421
 
  0.3125000E+00  0.3125000E+00  0.6250000E-01  0.1171875E-01
   1        0.819158      0.801524
   2        3.563807      3.549646
   3        5.955239      5.935571
   4        8.256426      8.240676
   5        8.617985      8.602720
   6       10.277850     10.257099
   7       19.045380     19.049526
   8       20.752483     20.734914
   9       21.818162     21.800168
 
  0.4375000E+00  0.3125000E+00  0.6250000E-01  0.2343750E-01
   1        1.734193      1.715251
   2        3.247647      3.233623
   3        5.579141      5.561928
   4        8.781716      8.763446
   5        9.907491      9.891885
   6       11.467325     11.450281
   7       17.806307     17.788442
   8       19.054231     19.058417
   9       19.999545     19.982286
 
 -0.4375000E+00  0.3125000E+00  0.6250000E-01  0.2343750E-01
   1        2.498489      2.480086
   2        3.512889      3.496752
   3        5.367592      5.353135
   4        8.196320      8.176314
   5       11.045580     11.030512
   6       13.373400     13.357759
   7       14.315801     14.298482
   8       19.047702     19.051841
   9       19.919634     19.902092
 
 -0.3125000E+00  0.3125000E+00  0.6250000E-01  0.2343750E-01
   1        3.131511      3.116495
   2        3.698974      3.678636
   3        4.906543      4.893056
   4        7.747435      7.726207
   5       10.010346      9.996041
   6       12.534638     12.517481
   7       16.612803     16.596019
   8       18.713529     18.698851
   9       19.056364     19.060452
 
 -0.1875000E+00  0.3125000E+00  0.6250000E-01  0.2343750E-01
   1        2.183686      2.167821
   2        4.364795      4.349887
   3        4.714531      4.695748
   4        7.347040      7.326075
   5        8.936669      8.921450
   6       12.380906     12.364656
   7       17.120629     17.102266
   8       19.053852     19.058119
   9       21.011876     20.734408
 
 -0.6250000E-01  0.3125000E+00  0.6250000E-01  0.2343750E-01
   1        0.706228      0.689972
   2        4.628573      4.613904
   3        5.860140      5.841165
   4        6.615140      6.596478
   5        8.998625      8.981118
   6       10.593767     10.575879
   7       17.642374     17.625086
   8       19.051238     19.055429
   9       20.827635     20.816154
 
  0.4375000E+00  0.4375000E+00  0.6250000E-01  0.1171875E-01
   1        1.512168      1.491559
   2        2.651737      2.637864
   3        7.027881      7.012972
   4       10.213385     10.195648
   5       11.008356     10.994349
   6       11.277201     11.259724
   7       17.217832     17.199725
   8       18.166844     18.148874
   9       19.034807     19.036711
 
 -0.4375000E+00  0.4375000E+00  0.6250000E-01  0.2343750E-01
   1        1.764763      1.743713
   2        2.729287      2.715462
   3        7.068983      7.055682
   4        9.985211      9.964127
   5       11.617169     11.604070
   6       13.030324     13.017134
   7       15.036031     15.016822
   8       17.211944     17.193417
   9       18.994613     19.012164
 
 -0.3125000E+00  0.4375000E+00  0.6250000E-01  0.2343750E-01
   1        2.507196      2.487311
   2        3.378092      3.363138
   3        5.774816      5.761443
   4        8.617929      8.596754
   5       10.980656     10.967015
   6       13.165515     13.146971
   7       15.103030     15.089295
   8       18.474612     18.457356
   9       19.762333     19.064771
 
 -0.1875000E+00  0.4375000E+00  0.6250000E-01  0.2343750E-01
   1        2.588080      2.573242
   2        3.975861      3.955385
   3        5.328676      5.314897
   4        7.222340      7.202138
   5       10.530104     10.514694
   6       12.854309     12.837472
   7       14.902825     14.886252
   8       19.050508     19.054763
   9       20.213176     20.198685
 
 -0.6250000E-01  0.4375000E+00  0.6250000E-01  0.2343750E-01
   1        1.430577      1.415325
   2        5.099859      5.080459
   3        5.824565      5.809294
   4        6.239277      6.219753
   5       10.686101     10.669608
   6       11.704633     11.688017
   7       15.400770     15.384355
   8       18.749459     18.736597
   9       19.053709     19.057951
 
 -0.4375000E+00 -0.4375000E+00  0.6250000E-01  0.1171875E-01
   1        1.441223      1.420080
   2        2.459035      2.445217
   3        7.921526      7.908280
   4       10.836759     10.815948
   5       11.698396     11.684943
   6       12.049145     12.036210
   7       15.880049     15.861010
   8       16.967504     16.948763
   9       18.122782     18.103803
 
 -0.3125000E+00 -0.4375000E+00  0.6250000E-01  0.2343750E-01
   1        1.841652      1.821192
   2        2.905432      2.891529
   3        6.294147      6.279277
   4        9.563403      9.543805
   5       10.969313     10.954558
   6       12.211670     12.196772
   7       16.152274     16.133832
   8       18.329638     18.311920
   9       19.048878     19.052900
 
 -0.1875000E+00 -0.4375000E+00  0.6250000E-01  0.2343750E-01
   1        2.179661      2.162986
   2        3.873569      3.856609
   3        5.102803      5.086727
   4        7.556265      7.536991
   5       10.745276     10.729173
   6       12.169374     12.153356
   7       15.632008     15.614675
   8       19.051314     19.055571
   9       20.816231     20.766045
 
 -0.3125000E+00 -0.3125000E+00  0.6250000E-01  0.1171875E-01
   1        1.417901      1.398658
   2        3.027487      3.013503
   3        6.129014      6.111672
   4        9.235028      9.218870
   5        9.754338      9.739597
   6       10.793890     10.774062
   7       19.003341     19.000333
   8       19.156407     19.145928
   9       19.941182     19.923560
 
 -0.1875000E+00 -0.3125000E+00  0.6250000E-01  0.2343750E-01
   1        1.100499      1.083155
   2        3.727560      3.713416
   3        5.571107      5.551824
   4        7.981967      7.964516
   5        8.824882      8.808652
   6       10.757267     10.738681
   7       19.025893     19.028101
   8       19.341307     19.325574
   9       21.846277     21.807435
 
 -0.1875000E+00 -0.1875000E+00  0.6250000E-01  0.1171875E-01
   1       -0.163965     -0.180904
   2        4.219006      4.204585
   3        6.465049      6.444754
   4        7.418915      7.403285
   5        7.732326      7.716147
   6        9.775400      9.754166
   7       19.046933     19.051122
   8       20.925042     20.908216
   9       22.422045     22.414559
 
  0.1875000E+00  0.1875000E+00  0.1875000E+00  0.3906250E-02
   1       -1.171983     -1.188740
   2        5.192365      5.177543
   3        6.457087      6.440838
   4        6.457087      6.440838
   5        8.694255      8.673297
   6        8.694255      8.673297
   7       19.000697     18.991720
   8       19.082661     19.079904
   9       20.728438     20.719272
 
  0.3125000E+00  0.1875000E+00  0.1875000E+00  0.1171875E-01
   1       -0.181951     -0.198560
   2        4.707117      4.692714
   3        6.215944      6.198018
   4        6.960173      6.943338
   5        7.819917      7.799635
   6        9.937015      9.918114
   7       19.006852     19.002705
   8       19.132447     19.123596
   9       21.859025     21.850827
 
  0.4375000E+00  0.1875000E+00  0.1875000E+00  0.1171875E-01
   1        1.387641      1.371500
   2        4.443094      4.429002
   3        5.315274      5.296021
   4        7.104172      7.083374
   5        8.300855      8.284926
   6       11.677158     11.660252
   7       18.012187     17.994256
   8       19.056754     19.060946
   9       21.250345     21.236697
 
 -0.4375000E+00  0.1875000E+00  0.1875000E+00  0.1171875E-01
   1        2.170898      2.155914
   2        4.454570      4.434312
   3        5.356875      5.342791
   4        6.815331      6.795157
   5       10.091418     10.075555
   6       12.535481     12.519075
   7       15.494438     15.477268
   8       19.051756     19.056032
   9       20.155650     20.142798
 
 -0.3125000E+00  0.1875000E+00  0.1875000E+00  0.1171875E-01
   1        2.042864      2.027349
   2        4.219025      4.199794
   3        5.440230      5.425397
   4        6.971648      6.952219
   5       11.302722     11.286544
   6       12.012385     11.995971
   7       14.866627     14.849952
   8       19.051071     19.055333
   9       20.023183     20.009322
 
 -0.1875000E+00  0.1875000E+00  0.1875000E+00  0.1171875E-01
   1        1.246494      1.229593
   2        3.939173      3.924553
   3        5.467380      5.448379
   4        7.381292      7.363321
   5        9.634493      9.618312
   6       10.781945     10.763663
   7       18.102801     18.085413
   8       19.055989     19.060153
   9       21.269539     21.256494
 
  0.3125000E+00  0.3125000E+00  0.1875000E+00  0.1171875E-01
   1        0.329154      0.312556
   2        4.419388      4.404918
   3        6.015682      5.996372
   4        6.883734      6.866236
   5        8.713143      8.695872
   6       10.065307     10.046112
   7       18.544705     18.527589
   8       19.056322     19.060320
   9       21.785157     21.774889
 
  0.4375000E+00  0.3125000E+00  0.1875000E+00  0.2343750E-01
   1        1.598998      1.582262
   2        4.023261      4.009096
   3        5.110388      5.091173
   4        7.663880      7.644267
   5        8.812544      8.796603
   6       11.629288     11.612363
   7       18.042813     18.024886
   8       19.057528     19.061711
   9       21.459950     21.428007
 
 -0.4375000E+00  0.3125000E+00  0.1875000E+00  0.2343750E-01
   1        2.915847      2.899436
   2        3.968522      3.950111
   3        4.421234      4.406633
   4        7.818079      7.797225
   5        9.821562      9.806986
   6       12.764410     12.748320
   7       16.450609     16.432419
   8       19.050525     19.054628
   9       19.322985     19.308274
 
 -0.3125000E+00  0.3125000E+00  0.1875000E+00  0.2343750E-01
   1        3.017811      3.001657
   2        3.617455      3.598413
   3        5.015767      5.001998
   4        7.706836      7.686375
   5       10.656605     10.641872
   6       13.991086     13.974791
   7       14.135176     14.118096
   8       19.048092     19.052251
   9       20.004589     19.878262
 
 -0.1875000E+00  0.3125000E+00  0.1875000E+00  0.2343750E-01
   1        2.296937      2.278774
   2        3.657604      3.643311
   3        4.846033      4.828663
   4        8.292354      8.272351
   5        9.818447      9.803329
   6       12.367718     12.351869
   7       16.772696     16.754389
   8       19.052437     19.056672
   9       19.849741     19.781798
 
  0.4375000E+00  0.4375000E+00  0.1875000E+00  0.1171875E-01
   1        1.902506      1.884393
   2        3.486698      3.471788
   3        5.377555      5.360618
   4        8.053250      8.034718
   5       10.948872     10.933358
   6       11.305491     11.288363
   7       16.613426     16.596049
   8       19.051888     19.056130
   9       20.784449     21.173699
 
 -0.4375000E+00  0.4375000E+00  0.1875000E+00  0.2343750E-01
   1        2.434419      2.414247
   2        3.382160      3.368158
   3        5.302740      5.287746
   4        8.760599      8.740035
   5       10.809638     10.795599
   6       13.129218     13.114242
   7       15.636169     15.617666
   8       18.250935     18.234130
   9       19.052509     19.056713
 
 -0.3125000E+00  0.4375000E+00  0.1875000E+00  0.2343750E-01
   1        2.897048      2.876095
   2        3.945315      3.931668
   3        4.881711      4.868175
   4        7.784160      7.762982
   5       11.555378     11.542356
   6       14.422674     14.404476
   7       15.248593     15.233037
   8       16.830517     16.813857
   9       19.053165     19.057296
 
 -0.1875000E+00  0.4375000E+00  0.1875000E+00  0.2343750E-01
   1        3.094230      3.074051
   2        3.873143      3.858618
   3        4.503570      4.489338
   4        8.006461      7.985630
   5       10.754813     10.741011
   6       13.393536     13.376892
   7       15.829592     15.812333
   8       18.058393     18.042530
   9       19.053532     19.057738
 
 -0.4375000E+00 -0.4375000E+00  0.1875000E+00  0.1171875E-01
   1        2.021188      2.000634
   2        2.977863      2.963569
   3        6.575947      6.562659
   4        9.473389      9.452426
   5       11.305954     11.292335
   6       13.579470     13.561641
   7       14.099104     14.084879
   8       18.817132     18.801321
   9       19.045187     19.088101
 
 -0.3125000E+00 -0.4375000E+00  0.1875000E+00  0.2343750E-01
   1        2.334281      2.313360
   2        3.245360      3.231560
   3        5.950410      5.936951
   4        8.753336      8.732191
   5       11.568838     11.555822
   6       14.093253     14.078909
   7       14.778936     14.760304
   8       17.095586     17.077873
   9       19.095577     19.054776
 
 -0.3125000E+00 -0.3125000E+00  0.1875000E+00  0.1171875E-01
   1        2.072637      2.052905
   2        3.146381      3.131752
   3        5.934813      5.920125
   4        8.823575      8.804167
   5       11.469096     11.453479
   6       12.481417     12.466586
   7       14.951334     14.933533
   8       19.047007     19.051128
   9       19.611910     19.665098
 
  0.3125000E+00  0.3125000E+00  0.3125000E+00  0.3906250E-02
   1        0.333098      0.316883
   2        4.947855      4.933113
   3        6.251956      6.233377
   4        6.251956      6.233377
   5        9.606260      9.588069
   6        9.606260      9.588069
   7       17.060310     17.043428
   8       19.048692     19.052870
   9       20.691073     20.680445
 
  0.4375000E+00  0.3125000E+00  0.3125000E+00  0.1171875E-01
   1        1.214963      1.199119
   2        4.809106      4.793951
   3        5.573901      5.555294
   4        6.503415      6.483725
   5        9.216925      9.200006
   6       11.450923     11.433918
   7       16.992475     16.975111
   8       19.051237     19.055432
   9       20.011775     19.999399
 
 -0.4375000E+00  0.3125000E+00  0.3125000E+00  0.1171875E-01
   1        2.711852      2.696771
   2        4.194393      4.174026
   3        4.739990      4.726284
   4        7.383039      7.361707
   5        9.342178      9.327397
   6       12.566933     12.550566
   7       16.756732     16.738549
   8       19.052504     19.056764
   9       19.713058     19.699372
 
 -0.3125000E+00  0.3125000E+00  0.3125000E+00  0.1171875E-01
   1        2.814209      2.796309
   2        3.579588      3.562442
   3        5.408631      5.395273
   4        8.192432      8.171192
   5       10.428939     10.414845
   6       12.405181     12.387201
   7       16.177927     16.163476
   8       18.555706     18.539299
   9       19.059093     19.063153
 
  0.4375000E+00  0.4375000E+00  0.3125000E+00  0.1171875E-01
   1        1.410319      1.394704
   2        4.780017      4.762388
   3        5.578319      5.561483
   4        6.498508      6.479407
   5       10.710028     10.693371
   6       11.144338     11.127454
   7       16.040341     16.023623
   8       19.049287     19.053298
   9       19.363221     19.350588
 
 -0.4375000E+00  0.4375000E+00  0.3125000E+00  0.2343750E-01
   1        2.451662      2.436441
   2        4.079500      4.059555
   3        5.109155      5.094877
   4        7.232313      7.212378
   5       10.443220     10.427589
   6       12.815772     12.799633
   7       15.102699     15.085423
   8       19.051092     19.055358
   9       20.648417     20.538835
 
 -0.3125000E+00  0.4375000E+00  0.3125000E+00  0.2343750E-01
   1        3.125608      3.105334
   2        3.658304      3.643520
   3        4.937677      4.924250
   4        7.905084      7.883962
   5       10.799708     10.785998
   6       13.240652     13.222749
   7       15.848590     15.833337
   8       18.080311     18.063926
   9       19.055397     19.059353
 
 -0.4375000E+00 -0.4375000E+00  0.3125000E+00  0.1171875E-01
   1        2.573500      2.557364
   2        3.753452      3.734580
   3        5.398313      5.384392
   4        7.604281      7.584221
   5       10.952170     10.936839
   6       12.861079     12.843782
   7       14.545619     14.529812
   8       19.049213     19.053433
   9       20.118064     20.102928
 
  0.4375000E+00  0.4375000E+00  0.4375000E+00  0.3906250E-02
   1        1.027677      1.012327
   2        5.883486      5.864024
   3        5.883486      5.864024
   4        5.928560      5.913034
   5       10.944764     10.928114
   6       10.944764     10.928114
   7       15.589790     15.573776
   8       17.949098     17.936558
   9       19.053475     19.057765
 
 -0.4375000E+00  0.4375000E+00  0.4375000E+00  0.1171875E-01
   1        1.610113      1.595059
   2        4.944345      4.924294
   3        5.944707      5.930076
   4        6.284047      6.264330
   5       10.848411     10.832203
   6       12.066719     12.050110
   7       14.912641     14.896371
   8       18.853029     18.840023
   9       19.051945     19.056227
