       N       E                     dE             d eps       ncg     rms          rms(c)
DAV:   1     0.876623152411E+01    0.87662E+01   -0.21603E+03  2234   0.408E+02
DAV:   2    -0.155796187576E+01   -0.10324E+02   -0.88829E+01  2955   0.607E+01
DAV:   3    -0.173810274911E+01   -0.18014E+00   -0.17752E+00  2665   0.749E+00
DAV:   4    -0.173832679644E+01   -0.22405E-03   -0.22400E-03  2823   0.229E-01
DAV:   5    -0.173832726650E+01   -0.47006E-06   -0.47005E-06  2604   0.716E-03    0.663E+00
DAV:   6    -0.111417001062E+02   -0.94034E+01   -0.27717E+00  2330   0.545E+00    0.455E+00
DAV:   7    -0.109304820536E+02    0.21122E+00   -0.96141E-02  2492   0.170E+00    0.521E+00
DAV:   8    -0.115626812681E+02   -0.63220E+00   -0.87173E-01  2316   0.586E+00    0.179E+00
DAV:   9    -0.115989957817E+02   -0.36315E-01   -0.87571E-02  2579   0.162E+00    0.836E-01
DAV:  10    -0.116055851674E+02   -0.65894E-02   -0.38754E-02  2384   0.103E+00    0.184E-01
DAV:  11    -0.116064182658E+02   -0.83310E-03   -0.35331E-03  2679   0.312E-01    0.779E-02
DAV:  12    -0.116064651899E+02   -0.46924E-04   -0.35366E-04  2338   0.110E-01
   1 F= -.11606465E+02 E0= -.11606203E+02  d E =-.787152E-03  mag=    -0.0225
