PROCAR lm decomposed
# of k-points:   60         # of bands:   9         # of ions:   1

 k-point    1 :    0.06250000 0.06250000 0.06250000     weight = 0.00390625

band   1 # energy   -2.26714673 # occ.  1.00000000
 
ion      s     py     pz     px    dxy    dyz    dz2    dxz    dx2    tot
  1  0.799  0.004  0.004  0.004  0.000  0.000  0.000  0.000  0.000  0.810
 
band   2 # energy    5.91075736 # occ.  0.00000000
 
ion      s     py     pz     px    dxy    dyz    dz2    dxz    dx2    tot
  1  0.000  0.002  0.002  0.002  0.327  0.327  0.000  0.327  0.000  0.986
 
band   3 # energy    6.11554469 # occ.  0.00000000
 
ion      s     py     pz     px    dxy    dyz    dz2    dxz    dx2    tot
  1  0.000  0.001  0.000  0.000  0.239  0.290  0.000  0.461  0.001  0.992
 
band   4 # energy    6.11554469 # occ.  0.00000000
 
ion      s     py     pz     px    dxy    dyz    dz2    dxz    dx2    tot
  1  0.000  0.000  0.001  0.000  0.421  0.370  0.001  0.199  0.000  0.992
 
band   5 # energy    8.86732527 # occ.  0.00000000
 
ion      s     py     pz     px    dxy    dyz    dz2    dxz    dx2    tot
  1  0.000  0.000  0.000  0.000  0.000  0.000  0.593  0.000  0.391  0.986
 
band   6 # energy    8.86732528 # occ.  0.00000000
 
ion      s     py     pz     px    dxy    dyz    dz2    dxz    dx2    tot
  1  0.000  0.000  0.000  0.000  0.000  0.000  0.391  0.000  0.593  0.986
 
band   7 # energy   18.31857636 # occ.  0.00000000
 
ion      s     py     pz     px    dxy    dyz    dz2    dxz    dx2    tot
  1  0.000  0.000  0.000  0.000  0.005  0.005  0.000  0.005  0.000  0.015
 
band   8 # energy   19.04952291 # occ.  0.00000000
 
ion      s     py     pz     px    dxy    dyz    dz2    dxz    dx2    tot
  1 43.902  0.000  0.000  0.000  0.000  0.000  0.000  0.000  0.000 43.902
 
band   9 # energy   21.95637564 # occ.  0.00000000
 
ion      s     py     pz     px    dxy    dyz    dz2    dxz    dx2    tot
  1  0.042  0.037  0.037  0.037  0.003  0.003  0.000  0.003  0.000  0.161
 

 k-point    2 :    0.18750000 0.06250000 0.06250000     weight = 0.01171875

band   1 # energy   -1.50889414 # occ.  1.00000000
 
ion      s     py     pz     px    dxy    dyz    dz2    dxz    dx2    tot
  1  0.752  0.030  0.030  0.003  0.001  0.006  0.000  0.001  0.001  0.824
 
band   2 # energy    5.33791025 # occ.  1.00000000
 
ion      s     py     pz     px    dxy    dyz    dz2    dxz    dx2    tot
  1  0.000  0.003  0.003  0.023  0.446  0.039  0.000  0.446  0.000  0.961
 
band   3 # energy    6.40948192 # occ.  0.00000000
 
ion      s     py     pz     px    dxy    dyz    dz2    dxz    dx2    tot
  1  0.000  0.010  0.010  0.001  0.021  0.847  0.017  0.021  0.052  0.979
 
band   4 # energy    6.44215631 # occ.  0.00000000
 
ion      s     py     pz     px    dxy    dyz    dz2    dxz    dx2    tot
  1  0.000  0.000  0.000  0.000  0.482  0.000  0.013  0.482  0.004  0.983
 
band   5 # energy    8.31644205 # occ.  0.00000000
 
ion      s     py     pz     px    dxy    dyz    dz2    dxz    dx2    tot
  1  0.000  0.000  0.000  0.000  0.008  0.000  0.707  0.008  0.236  0.960
 
band   6 # energy    8.99017044 # occ.  0.00000000
 
ion      s     py     pz     px    dxy    dyz    dz2    dxz    dx2    tot
  1  0.001  0.001  0.001  0.000  0.001  0.066  0.225  0.001  0.675  0.972
 
band   7 # energy   19.04763339 # occ.  0.00000000
 
ion      s     py     pz     px    dxy    dyz    dz2    dxz    dx2    tot
  1 43.749  0.000  0.000  0.000  0.000  0.000  0.000  0.000  0.000 43.749
 
band   8 # energy   19.64977265 # occ.  0.00000000
 
ion      s     py     pz     px    dxy    dyz    dz2    dxz    dx2    tot
  1  0.074  0.005  0.005  0.003  0.021  0.000  0.001  0.021  0.002  0.133
 
band   9 # energy   20.41293895 # occ.  0.00000000
 
ion      s     py     pz     px    dxy    dyz    dz2    dxz    dx2    tot
  1  0.161  0.032  0.032  0.009  0.022  0.032  0.004  0.022  0.012  0.325
 

 k-point    3 :    0.31250000 0.06250000 0.06250000     weight = 0.01171875

band   1 # energy   -0.00668968 # occ.  1.00000000
 
ion      s     py     pz     px    dxy    dyz    dz2    dxz    dx2    tot
  1  0.622  0.057  0.057  0.014  0.030  0.050  0.000  0.030  0.001  0.864
 
band   2 # energy    4.79967697 # occ.  1.00000000
 
ion      s     py     pz     px    dxy    dyz    dz2    dxz    dx2    tot
  1  0.012  0.043  0.043  0.077  0.330  0.086  0.001  0.330  0.002  0.923
 
band   3 # energy    6.28581669 # occ.  0.00000000
 
ion      s     py     pz     px    dxy    dyz    dz2    dxz    dx2    tot
  1  0.000  0.008  0.008  0.002  0.054  0.470  0.091  0.054  0.273  0.961
 
band   4 # energy    6.50217495 # occ.  0.00000000
 
ion      s     py     pz     px    dxy    dyz    dz2    dxz    dx2    tot
  1  0.000  0.000  0.000  0.000  0.287  0.000  0.294  0.287  0.098  0.967
 
band   5 # energy    8.65562673 # occ.  0.00000000
 
ion      s     py     pz     px    dxy    dyz    dz2    dxz    dx2    tot
  1  0.000  0.004  0.004  0.000  0.194  0.000  0.411  0.194  0.137  0.945
 
band   6 # energy    9.75649129 # occ.  0.00000000
 
ion      s     py     pz     px    dxy    dyz    dz2    dxz    dx2    tot
  1  0.004  0.010  0.010  0.001  0.022  0.309  0.146  0.022  0.437  0.959
 
band   7 # energy   17.91490254 # occ.  0.00000000
 
ion      s     py     pz     px    dxy    dyz    dz2    dxz    dx2    tot
  1  0.078  0.028  0.028  0.025  0.012  0.045  0.004  0.012  0.011  0.242
 
band   8 # energy   19.05070474 # occ.  0.00000000
 
ion      s     py     pz     px    dxy    dyz    dz2    dxz    dx2    tot
  1 43.891  0.000  0.000  0.000  0.000  0.000  0.000  0.000  0.000 43.891
 
band   9 # energy   21.51186111 # occ.  0.00000000
 
ion      s     py     pz     px    dxy    dyz    dz2    dxz    dx2    tot
  1  0.176  0.057  0.057  0.051  0.128  0.088  0.000  0.128  0.000  0.686
 

 k-point    4 :    0.43750000 0.06250000 0.06250000     weight = 0.01171875

band   1 # energy    1.04848524 # occ.  1.00000000
 
ion      s     py     pz     px    dxy    dyz    dz2    dxz    dx2    tot
  1  0.413  0.026  0.026  0.001  0.150  0.166  0.000  0.150  0.001  0.933
 
band   2 # energy    5.37188107 # occ.  1.00000015
 
ion      s     py     pz     px    dxy    dyz    dz2    dxz    dx2    tot
  1  0.029  0.166  0.166  0.162  0.069  0.072  0.027  0.069  0.081  0.842
 
band   3 # energy    5.87376317 # occ.  0.00000000
 
ion      s     py     pz     px    dxy    dyz    dz2    dxz    dx2    tot
  1  0.007  0.006  0.006  0.034  0.122  0.231  0.108  0.122  0.325  0.962
 
band   4 # energy    6.06968545 # occ.  0.00000000
 
ion      s     py     pz     px    dxy    dyz    dz2    dxz    dx2    tot
  1  0.000  0.000  0.000  0.000  0.193  0.000  0.433  0.193  0.144  0.964
 
band   5 # energy   10.19086633 # occ.  0.00000000
 
ion      s     py     pz     px    dxy    dyz    dz2    dxz    dx2    tot
  1  0.000  0.005  0.005  0.000  0.291  0.000  0.272  0.291  0.091  0.954
 
band   6 # energy   11.10295285 # occ.  0.00000000
 
ion      s     py     pz     px    dxy    dyz    dz2    dxz    dx2    tot
  1  0.006  0.016  0.016  0.001  0.050  0.422  0.103  0.050  0.309  0.973
 
band   7 # energy   16.08433380 # occ.  0.00000000
 
ion      s     py     pz     px    dxy    dyz    dz2    dxz    dx2    tot
  1  0.274  0.029  0.029  0.025  0.088  0.127  0.002  0.088  0.006  0.667
 
band   8 # energy   18.79504759 # occ.  0.00000000
 
ion      s     py     pz     px    dxy    dyz    dz2    dxz    dx2    tot
  1  1.093  0.043  0.043  0.027  0.051  0.016  0.001  0.051  0.003  1.328
 
band   9 # energy   19.06136252 # occ.  0.00000000
 
ion      s     py     pz     px    dxy    dyz    dz2    dxz    dx2    tot
  1 43.082  0.002  0.002  0.001  0.003  0.001  0.000  0.003  0.000 43.095
 

 k-point    5 :   -0.43750000 0.06250000 0.06250000     weight = 0.01171875

band   1 # energy    1.21287187 # occ.  1.00000000
 
ion      s     py     pz     px    dxy    dyz    dz2    dxz    dx2    tot
  1  0.343  0.000  0.000  0.011  0.195  0.211  0.000  0.195  0.000  0.956
 
band   2 # energy    5.50929200 # occ.  1.03545480
 
ion      s     py     pz     px    dxy    dyz    dz2    dxz    dx2    tot
  1  0.000  0.065  0.065  0.040  0.046  0.102  0.134  0.046  0.403  0.899
 
band   3 # energy    5.95842244 # occ.  0.00000000
 
ion      s     py     pz     px    dxy    dyz    dz2    dxz    dx2    tot
  1  0.000  0.002  0.002  0.000  0.189  0.000  0.437  0.189  0.146  0.966
 
band   4 # energy    6.17192058 # occ.  0.00000000
 
ion      s     py     pz     px    dxy    dyz    dz2    dxz    dx2    tot
  1  0.003  0.179  0.179  0.202  0.024  0.200  0.014  0.024  0.043  0.868
 
band   5 # energy   11.20132691 # occ.  0.00000000
 
ion      s     py     pz     px    dxy    dyz    dz2    dxz    dx2    tot
  1  0.000  0.000  0.000  0.000  0.305  0.000  0.280  0.305  0.093  0.983
 
band   6 # energy   11.30563169 # occ.  0.00000000
 
ion      s     py     pz     px    dxy    dyz    dz2    dxz    dx2    tot
  1  0.000  0.013  0.013  0.030  0.100  0.352  0.089  0.100  0.268  0.965
 
band   7 # energy   15.18677173 # occ.  0.00000000
 
ion      s     py     pz     px    dxy    dyz    dz2    dxz    dx2    tot
  1  0.457  0.002  0.002  0.002  0.167  0.143  0.000  0.167  0.000  0.940
 
band   8 # energy   17.93534188 # occ.  0.00000000
 
ion      s     py     pz     px    dxy    dyz    dz2    dxz    dx2    tot
  1  0.002  0.014  0.014  0.020  0.000  0.017  0.002  0.000  0.006  0.075
 
band   9 # energy   19.05259740 # occ.  0.00000000
 
ion      s     py     pz     px    dxy    dyz    dz2    dxz    dx2    tot
  1 44.116  0.000  0.000  0.000  0.000  0.000  0.000  0.000  0.000 44.116
 

 k-point    6 :   -0.31250000 0.06250000 0.06250000     weight = 0.01171875

band   1 # energy    0.81707699 # occ.  1.00000000
 
ion      s     py     pz     px    dxy    dyz    dz2    dxz    dx2    tot
  1  0.479  0.015  0.015  0.059  0.112  0.114  0.001  0.112  0.003  0.911
 
band   2 # energy    5.02611393 # occ.  1.00000000
 
ion      s     py     pz     px    dxy    dyz    dz2    dxz    dx2    tot
  1  0.034  0.136  0.136  0.112  0.090  0.237  0.009  0.090  0.027  0.872
 
band   3 # energy    5.93761576 # occ.  0.00000000
 
ion      s     py     pz     px    dxy    dyz    dz2    dxz    dx2    tot
  1  0.004  0.000  0.000  0.001  0.067  0.299  0.130  0.067  0.390  0.959
 
band   4 # energy    6.25073824 # occ.  0.00000000
 
ion      s     py     pz     px    dxy    dyz    dz2    dxz    dx2    tot
  1  0.000  0.005  0.005  0.000  0.234  0.000  0.366  0.234  0.122  0.966
 
band   5 # energy    9.86165955 # occ.  0.00000000
 
ion      s     py     pz     px    dxy    dyz    dz2    dxz    dx2    tot
  1  0.004  0.003  0.003  0.036  0.140  0.245  0.093  0.140  0.280  0.945
 
band   6 # energy   10.50548396 # occ.  0.00000000
 
ion      s     py     pz     px    dxy    dyz    dz2    dxz    dx2    tot
  1  0.000  0.005  0.005  0.000  0.244  0.000  0.351  0.244  0.117  0.966
 
band   7 # energy   16.67243187 # occ.  0.00000000
 
ion      s     py     pz     px    dxy    dyz    dz2    dxz    dx2    tot
  1  0.172  0.032  0.032  0.029  0.081  0.039  0.002  0.081  0.005  0.472
 
band   8 # energy   19.04598314 # occ.  0.00000000
 
ion      s     py     pz     px    dxy    dyz    dz2    dxz    dx2    tot
  1 43.338  0.000  0.000  0.001  0.000  0.000  0.000  0.000  0.000 43.340
 
band   9 # energy   19.69717131 # occ.  0.00000000
 
ion      s     py     pz     px    dxy    dyz    dz2    dxz    dx2    tot
  1  0.851  0.052  0.052  0.071  0.061  0.094  0.002  0.061  0.005  1.249
 

 k-point    7 :   -0.18750000 0.06250000 0.06250000     weight = 0.01171875

band   1 # energy   -0.53250764 # occ.  1.00000000
 
ion      s     py     pz     px    dxy    dyz    dz2    dxz    dx2    tot
  1  0.676  0.022  0.022  0.072  0.019  0.012  0.001  0.019  0.002  0.846
 
band   2 # energy    4.86636864 # occ.  1.00000000
 
ion      s     py     pz     px    dxy    dyz    dz2    dxz    dx2    tot
  1  0.005  0.037  0.037  0.019  0.143  0.554  0.000  0.143  0.001  0.939
 
band   3 # energy    6.43722301 # occ.  0.00000000
 
ion      s     py     pz     px    dxy    dyz    dz2    dxz    dx2    tot
  1  0.000  0.002  0.002  0.004  0.191  0.265  0.077  0.191  0.231  0.963
 
band   4 # energy    6.58176821 # occ.  0.00000000
 
ion      s     py     pz     px    dxy    dyz    dz2    dxz    dx2    tot
  1  0.000  0.009  0.009  0.000  0.369  0.000  0.164  0.369  0.055  0.973
 
band   5 # energy    8.40888876 # occ.  0.00000000
 
ion      s     py     pz     px    dxy    dyz    dz2    dxz    dx2    tot
  1  0.004  0.001  0.001  0.014  0.098  0.106  0.156  0.098  0.469  0.947
 
band   6 # energy    9.32301316 # occ.  0.00000000
 
ion      s     py     pz     px    dxy    dyz    dz2    dxz    dx2    tot
  1  0.000  0.003  0.003  0.000  0.106  0.000  0.558  0.106  0.186  0.962
 
band   7 # energy   18.59683812 # occ.  0.00000000
 
ion      s     py     pz     px    dxy    dyz    dz2    dxz    dx2    tot
  1  0.323  0.026  0.026  0.024  0.017  0.001  0.003  0.017  0.010  0.447
 
band   8 # energy   19.05399886 # occ.  0.00000000
 
ion      s     py     pz     px    dxy    dyz    dz2    dxz    dx2    tot
  1 43.642  0.000  0.000  0.000  0.000  0.000  0.000  0.000  0.000 43.643
 
band   9 # energy   21.50397802 # occ.  0.00000000
 
ion      s     py     pz     px    dxy    dyz    dz2    dxz    dx2    tot
  1  0.078  0.025  0.025  0.021  0.076  0.130  0.000  0.076  0.000  0.432
 

 k-point    8 :   -0.06250000 0.06250000 0.06250000     weight = 0.01171875

band   1 # energy   -1.87743179 # occ.  1.00000000
 
ion      s     py     pz     px    dxy    dyz    dz2    dxz    dx2    tot
  1  0.775  0.003  0.003  0.032  0.001  0.000  0.000  0.001  0.001  0.817
 
band   2 # energy    5.54418021 # occ.  0.88220690
 
ion      s     py     pz     px    dxy    dyz    dz2    dxz    dx2    tot
  1  0.000  0.004  0.004  0.000  0.064  0.836  0.000  0.064  0.000  0.972
 
band   3 # energy    6.32334950 # occ.  0.00000000
 
ion      s     py     pz     px    dxy    dyz    dz2    dxz    dx2    tot
  1  0.000  0.004  0.004  0.002  0.417  0.136  0.002  0.417  0.005  0.985
 
band   4 # energy    6.33524680 # occ.  0.00000000
 
ion      s     py     pz     px    dxy    dyz    dz2    dxz    dx2    tot
  1  0.000  0.006  0.006  0.000  0.483  0.000  0.007  0.483  0.002  0.986
 
band   5 # energy    8.38832587 # occ.  0.00000000
 
ion      s     py     pz     px    dxy    dyz    dz2    dxz    dx2    tot
  1  0.001  0.000  0.000  0.001  0.003  0.001  0.239  0.003  0.717  0.964
 
band   6 # energy    9.03152751 # occ.  0.00000000
 
ion      s     py     pz     px    dxy    dyz    dz2    dxz    dx2    tot
  1  0.000  0.000  0.000  0.000  0.005  0.000  0.731  0.005  0.244  0.984
 
band   7 # energy   19.04893362 # occ.  0.00000000
 
ion      s     py     pz     px    dxy    dyz    dz2    dxz    dx2    tot
  1 43.828  0.000  0.000  0.000  0.000  0.000  0.000  0.000  0.000 43.829
 
band   8 # energy   19.11064642 # occ.  0.00000000
 
ion      s     py     pz     px    dxy    dyz    dz2    dxz    dx2    tot
  1  0.041  0.000  0.000  0.000  0.004  0.041  0.000  0.004  0.000  0.090
 
band   9 # energy   21.18838981 # occ.  0.00000000
 
ion      s     py     pz     px    dxy    dyz    dz2    dxz    dx2    tot
  1  0.098  0.021  0.021  0.045  0.008  0.003  0.006  0.008  0.017  0.226
 

 k-point    9 :    0.18750000 0.18750000 0.06250000     weight = 0.01171875

band   1 # energy   -1.14078212 # occ.  1.00000000
 
ion      s     py     pz     px    dxy    dyz    dz2    dxz    dx2    tot
  1  0.725  0.003  0.085  0.003  0.000  0.002  0.009  0.002  0.000  0.829
 
band   2 # energy    4.91988572 # occ.  1.00000000
 
ion      s     py     pz     px    dxy    dyz    dz2    dxz    dx2    tot
  1  0.000  0.004  0.000  0.004  0.911  0.020  0.000  0.020  0.000  0.960
 
band   3 # energy    6.70001647 # occ.  0.00000000
 
ion      s     py     pz     px    dxy    dyz    dz2    dxz    dx2    tot
  1  0.000  0.012  0.001  0.012  0.043  0.396  0.108  0.396  0.000  0.967
 
band   4 # energy    6.77217143 # occ.  0.00000000
 
ion      s     py     pz     px    dxy    dyz    dz2    dxz    dx2    tot
  1  0.000  0.015  0.000  0.015  0.000  0.460  0.000  0.460  0.026  0.975
 
band   5 # energy    7.66220059 # occ.  0.00000000
 
ion      s     py     pz     px    dxy    dyz    dz2    dxz    dx2    tot
  1  0.008  0.001  0.007  0.001  0.005  0.052  0.813  0.052  0.000  0.940
 
band   6 # energy    9.34451504 # occ.  0.00000000
 
ion      s     py     pz     px    dxy    dyz    dz2    dxz    dx2    tot
  1  0.000  0.000  0.000  0.000  0.000  0.013  0.000  0.013  0.955  0.981
 
band   7 # energy   19.04782754 # occ.  0.00000000
 
ion      s     py     pz     px    dxy    dyz    dz2    dxz    dx2    tot
  1 43.823  0.000  0.000  0.000  0.000  0.000  0.000  0.000  0.000 43.823
 
band   8 # energy   20.47474320 # occ.  0.00000000
 
ion      s     py     pz     px    dxy    dyz    dz2    dxz    dx2    tot
  1  0.028  0.003  0.004  0.003  0.077  0.000  0.012  0.000  0.000  0.129
 
band   9 # energy   20.92707069 # occ.  0.00000000
 
ion      s     py     pz     px    dxy    dyz    dz2    dxz    dx2    tot
  1  0.124  0.018  0.026  0.018  0.029  0.018  0.062  0.018  0.000  0.312
 

 k-point   10 :    0.31250000 0.18750000 0.06250000     weight = 0.02343750

band   1 # energy    0.12680880 # occ.  1.00000000
 
ion      s     py     pz     px    dxy    dyz    dz2    dxz    dx2    tot
  1  0.619  0.023  0.141  0.002  0.003  0.025  0.035  0.004  0.000  0.851
 
band   2 # energy    4.29621910 # occ.  1.00000000
 
ion      s     py     pz     px    dxy    dyz    dz2    dxz    dx2    tot
  1  0.001  0.005  0.002  0.035  0.823  0.007  0.001  0.075  0.000  0.951
 
band   3 # energy    6.10294948 # occ.  0.00000000
 
ion      s     py     pz     px    dxy    dyz    dz2    dxz    dx2    tot
  1  0.011  0.019  0.002  0.000  0.018  0.293  0.538  0.013  0.029  0.924
 
band   4 # energy    7.31960074 # occ.  0.00000000
 
ion      s     py     pz     px    dxy    dyz    dz2    dxz    dx2    tot
  1  0.001  0.010  0.004  0.022  0.044  0.160  0.053  0.519  0.145  0.959
 
band   5 # energy    8.02489302 # occ.  0.00000000
 
ion      s     py     pz     px    dxy    dyz    dz2    dxz    dx2    tot
  1  0.010  0.013  0.030  0.013  0.053  0.196  0.258  0.277  0.098  0.946
 
band   6 # energy   10.04271803 # occ.  0.00000000
 
ion      s     py     pz     px    dxy    dyz    dz2    dxz    dx2    tot
  1  0.004  0.011  0.005  0.000  0.000  0.225  0.020  0.011  0.696  0.972
 
band   7 # energy   19.04276472 # occ.  0.00000000
 
ion      s     py     pz     px    dxy    dyz    dz2    dxz    dx2    tot
  1 43.218  0.001  0.001  0.000  0.000  0.001  0.000  0.000  0.000 43.221
 
band   8 # energy   19.71036903 # occ.  0.00000000
 
ion      s     py     pz     px    dxy    dyz    dz2    dxz    dx2    tot
  1  0.780  0.076  0.032  0.017  0.001  0.081  0.062  0.012  0.011  1.072
 
band   9 # energy   22.47041853 # occ.  0.00000000
 
ion      s     py     pz     px    dxy    dyz    dz2    dxz    dx2    tot
  1  0.033  0.028  0.017  0.036  0.188  0.026  0.005  0.067  0.000  0.400
 

 k-point   11 :    0.43750000 0.18750000 0.06250000     weight = 0.02343750

band   1 # energy    1.49913531 # occ.  1.00000000
 
ion      s     py     pz     px    dxy    dyz    dz2    dxz    dx2    tot
  1  0.422  0.022  0.127  0.001  0.112  0.106  0.050  0.061  0.000  0.902
 
band   2 # energy    4.32119239 # occ.  1.00000000
 
ion      s     py     pz     px    dxy    dyz    dz2    dxz    dx2    tot
  1  0.013  0.083  0.044  0.106  0.419  0.026  0.134  0.066  0.005  0.897
 
band   3 # energy    5.30984437 # occ.  1.00000000
 
ion      s     py     pz     px    dxy    dyz    dz2    dxz    dx2    tot
  1  0.027  0.003  0.022  0.005  0.223  0.191  0.418  0.006  0.038  0.933
 
band   4 # energy    6.98455265 # occ.  0.00000000
 
ion      s     py     pz     px    dxy    dyz    dz2    dxz    dx2    tot
  1  0.001  0.012  0.011  0.011  0.021  0.119  0.063  0.271  0.442  0.951
 
band   5 # energy    9.80987081 # occ.  0.00000000
 
ion      s     py     pz     px    dxy    dyz    dz2    dxz    dx2    tot
  1  0.006  0.009  0.060  0.027  0.116  0.015  0.174  0.428  0.102  0.937
 
band   6 # energy   11.40035208 # occ.  0.00000000
 
ion      s     py     pz     px    dxy    dyz    dz2    dxz    dx2    tot
  1  0.020  0.022  0.031  0.002  0.009  0.447  0.059  0.029  0.363  0.981
 
band   7 # energy   16.99260712 # occ.  0.00000000
 
ion      s     py     pz     px    dxy    dyz    dz2    dxz    dx2    tot
  1  0.218  0.088  0.066  0.056  0.039  0.118  0.009  0.095  0.014  0.703
 
band   8 # energy   19.05263516 # occ.  0.00000000
 
ion      s     py     pz     px    dxy    dyz    dz2    dxz    dx2    tot
  1 44.024  0.000  0.000  0.000  0.000  0.000  0.000  0.000  0.000 44.025
 
band   9 # energy   20.41354615 # occ.  0.00000000
 
ion      s     py     pz     px    dxy    dyz    dz2    dxz    dx2    tot
  1  0.112  0.021  0.068  0.013  0.050  0.000  0.089  0.011  0.001  0.365
 

 k-point   12 :   -0.43750000 0.18750000 0.06250000     weight = 0.02343750

band   1 # energy    1.96126536 # occ.  1.00000000
 
ion      s     py     pz     px    dxy    dyz    dz2    dxz    dx2    tot
  1  0.285  0.000  0.046  0.017  0.267  0.194  0.009  0.135  0.001  0.952
 
band   2 # energy    4.49026857 # occ.  1.00000000
 
ion      s     py     pz     px    dxy    dyz    dz2    dxz    dx2    tot
  1  0.000  0.111  0.025  0.059  0.008  0.042  0.541  0.008  0.059  0.852
 
band   3 # energy    5.69298269 # occ. -0.00142146
 
ion      s     py     pz     px    dxy    dyz    dz2    dxz    dx2    tot
  1  0.005  0.073  0.159  0.123  0.331  0.195  0.025  0.007  0.008  0.924
 
band   4 # energy    6.65275630 # occ.  0.00000000
 
ion      s     py     pz     px    dxy    dyz    dz2    dxz    dx2    tot
  1  0.000  0.004  0.011  0.011  0.015  0.061  0.067  0.237  0.543  0.949
 
band   5 # energy   10.94784327 # occ.  0.00000000
 
ion      s     py     pz     px    dxy    dyz    dz2    dxz    dx2    tot
  1  0.013  0.002  0.006  0.000  0.078  0.162  0.048  0.409  0.249  0.966
 
band   6 # energy   12.43418055 # occ.  0.00000000
 
ion      s     py     pz     px    dxy    dyz    dz2    dxz    dx2    tot
  1  0.000  0.048  0.121  0.084  0.180  0.206  0.227  0.002  0.063  0.932
 
band   7 # energy   14.60213372 # occ.  0.00000000
 
ion      s     py     pz     px    dxy    dyz    dz2    dxz    dx2    tot
  1  0.487  0.002  0.000  0.002  0.089  0.130  0.007  0.191  0.010  0.919
 
band   8 # energy   19.05134107 # occ.  0.00000000
 
ion      s     py     pz     px    dxy    dyz    dz2    dxz    dx2    tot
  1 44.067  0.000  0.000  0.000  0.000  0.000  0.000  0.000  0.000 44.068
 
band   9 # energy   19.58483125 # occ.  0.00000000
 
ion      s     py     pz     px    dxy    dyz    dz2    dxz    dx2    tot
  1  0.013  0.001  0.043  0.011  0.033  0.029  0.072  0.002  0.006  0.210
 

 k-point   13 :   -0.31250000 0.18750000 0.06250000     weight = 0.02343750

band   1 # energy    1.81226945 # occ.  1.00000000
 
ion      s     py     pz     px    dxy    dyz    dz2    dxz    dx2    tot
  1  0.363  0.033  0.004  0.083  0.201  0.140  0.004  0.094  0.007  0.927
 
band   2 # energy    4.65353141 # occ.  1.00000000
 
ion      s     py     pz     px    dxy    dyz    dz2    dxz    dx2    tot
  1  0.007  0.124  0.088  0.073  0.057  0.074  0.314  0.046  0.070  0.854
 
band   3 # energy    5.22298614 # occ.  1.00000000
 
ion      s     py     pz     px    dxy    dyz    dz2    dxz    dx2    tot
  1  0.022  0.006  0.085  0.028  0.190  0.344  0.187  0.061  0.022  0.946
 
band   4 # energy    6.74382681 # occ.  0.00000000
 
ion      s     py     pz     px    dxy    dyz    dz2    dxz    dx2    tot
  1  0.000  0.001  0.002  0.022  0.018  0.072  0.068  0.204  0.560  0.947
 
band   5 # energy    9.79224101 # occ.  0.00000000
 
ion      s     py     pz     px    dxy    dyz    dz2    dxz    dx2    tot
  1  0.000  0.000  0.009  0.023  0.001  0.220  0.006  0.431  0.253  0.943
 
band   6 # energy   12.17166470 # occ.  0.00000000
 
ion      s     py     pz     px    dxy    dyz    dz2    dxz    dx2    tot
  1  0.065  0.026  0.014  0.044  0.483  0.013  0.334  0.006  0.000  0.985
 
band   7 # energy   16.12762416 # occ.  0.00000000
 
ion      s     py     pz     px    dxy    dyz    dz2    dxz    dx2    tot
  1  0.298  0.074  0.043  0.069  0.075  0.071  0.063  0.101  0.000  0.794
 
band   8 # energy   19.05222966 # occ.  0.00000000
 
ion      s     py     pz     px    dxy    dyz    dz2    dxz    dx2    tot
  1 44.062  0.000  0.000  0.000  0.000  0.000  0.000  0.000  0.000 44.063
 
band   9 # energy   20.02141237 # occ.  0.00000000
 
ion      s     py     pz     px    dxy    dyz    dz2    dxz    dx2    tot
  1  0.048  0.015  0.017  0.043  0.014  0.043  0.039  0.019  0.015  0.252
 

 k-point   14 :   -0.18750000 0.18750000 0.06250000     weight = 0.02343750

band   1 # energy    0.66911728 # occ.  1.00000000
 
ion      s     py     pz     px    dxy    dyz    dz2    dxz    dx2    tot
  1  0.575  0.059  0.001  0.126  0.071  0.007  0.010  0.006  0.009  0.865
 
band   2 # energy    4.39770920 # occ.  1.00000000
 
ion      s     py     pz     px    dxy    dyz    dz2    dxz    dx2    tot
  1  0.002  0.009  0.085  0.006  0.005  0.621  0.002  0.211  0.001  0.943
 
band   3 # energy    5.74279409 # occ. -0.00000607
 
ion      s     py     pz     px    dxy    dyz    dz2    dxz    dx2    tot
  1  0.003  0.030  0.000  0.004  0.369  0.019  0.389  0.000  0.105  0.919
 
band   4 # energy    7.21157142 # occ.  0.00000000
 
ion      s     py     pz     px    dxy    dyz    dz2    dxz    dx2    tot
  1  0.002  0.002  0.004  0.013  0.050  0.093  0.034  0.269  0.481  0.949
 
band   5 # energy    8.04976115 # occ.  0.00000000
 
ion      s     py     pz     px    dxy    dyz    dz2    dxz    dx2    tot
  1  0.002  0.001  0.007  0.016  0.019  0.175  0.004  0.402  0.320  0.945
 
band   6 # energy   10.77453913 # occ.  0.00000000
 
ion      s     py     pz     px    dxy    dyz    dz2    dxz    dx2    tot
  1  0.020  0.023  0.000  0.022  0.401  0.001  0.497  0.003  0.008  0.976
 
band   7 # energy   18.77385796 # occ.  0.00000000
 
ion      s     py     pz     px    dxy    dyz    dz2    dxz    dx2    tot
  1  2.217  0.080  0.012  0.055  0.109  0.003  0.067  0.009  0.003  2.555
 
band   8 # energy   19.06926668 # occ.  0.00000000
 
ion      s     py     pz     px    dxy    dyz    dz2    dxz    dx2    tot
  1 41.859  0.005  0.001  0.003  0.008  0.000  0.005  0.001  0.000 41.883
 
band   9 # energy   22.02238433 # occ.  0.00000000
 
ion      s     py     pz     px    dxy    dyz    dz2    dxz    dx2    tot
  1  0.124  0.081  0.048  0.087  0.025  0.096  0.015  0.073  0.012  0.561
 

 k-point   15 :   -0.06250000 0.18750000 0.06250000     weight = 0.02343750

band   1 # energy   -0.80999402 # occ.  1.00000000
 
ion      s     py     pz     px    dxy    dyz    dz2    dxz    dx2    tot
  1  0.702  0.027  0.003  0.080  0.015  0.001  0.003  0.002  0.003  0.836
 
band   2 # energy    4.87586807 # occ.  1.00000000
 
ion      s     py     pz     px    dxy    dyz    dz2    dxz    dx2    tot
  1  0.001  0.005  0.033  0.002  0.017  0.716  0.000  0.179  0.000  0.952
 
band   3 # energy    6.46813461 # occ.  0.00000000
 
ion      s     py     pz     px    dxy    dyz    dz2    dxz    dx2    tot
  1  0.000  0.022  0.000  0.006  0.648  0.036  0.191  0.005  0.051  0.959
 
band   4 # energy    6.79863335 # occ.  0.00000000
 
ion      s     py     pz     px    dxy    dyz    dz2    dxz    dx2    tot
  1  0.000  0.001  0.011  0.000  0.034  0.169  0.007  0.691  0.059  0.972
 
band   5 # energy    7.89741203 # occ.  0.00000000
 
ion      s     py     pz     px    dxy    dyz    dz2    dxz    dx2    tot
  1  0.004  0.001  0.001  0.010  0.073  0.025  0.023  0.050  0.758  0.946
 
band   6 # energy    9.40413243 # occ.  0.00000000
 
ion      s     py     pz     px    dxy    dyz    dz2    dxz    dx2    tot
  1  0.003  0.005  0.000  0.003  0.146  0.000  0.735  0.007  0.071  0.969
 
band   7 # energy   19.04499238 # occ.  0.00000000
 
ion      s     py     pz     px    dxy    dyz    dz2    dxz    dx2    tot
  1 43.466  0.000  0.000  0.000  0.000  0.000  0.000  0.000  0.000 43.467
 
band   8 # energy   19.70289742 # occ.  0.00000000
 
ion      s     py     pz     px    dxy    dyz    dz2    dxz    dx2    tot
  1  0.507  0.037  0.010  0.027  0.036  0.001  0.032  0.002  0.010  0.662
 
band   9 # energy   21.11858880 # occ.  0.00000000
 
ion      s     py     pz     px    dxy    dyz    dz2    dxz    dx2    tot
  1  0.026  0.009  0.002  0.006  0.019  0.102  0.003  0.041  0.001  0.209
 

 k-point   16 :    0.31250000 0.31250000 0.06250000     weight = 0.01171875

band   1 # energy    0.81915822 # occ.  1.00000000
 
ion      s     py     pz     px    dxy    dyz    dz2    dxz    dx2    tot
  1  0.496  0.002  0.179  0.002  0.001  0.003  0.170  0.003  0.000  0.856
 
band   2 # energy    3.56380708 # occ.  1.00000000
 
ion      s     py     pz     px    dxy    dyz    dz2    dxz    dx2    tot
  1  0.000  0.004  0.000  0.004  0.944  0.004  0.001  0.004  0.000  0.960
 
band   3 # energy    5.95523898 # occ.  0.00000000
 
ion      s     py     pz     px    dxy    dyz    dz2    dxz    dx2    tot
  1  0.077  0.002  0.100  0.002  0.002  0.033  0.657  0.033  0.000  0.906
 
band   4 # energy    8.25642593 # occ.  0.00000000
 
ion      s     py     pz     px    dxy    dyz    dz2    dxz    dx2    tot
  1  0.000  0.035  0.000  0.035  0.000  0.388  0.000  0.388  0.100  0.947
 
band   5 # energy    8.61798450 # occ.  0.00000000
 
ion      s     py     pz     px    dxy    dyz    dz2    dxz    dx2    tot
  1  0.007  0.037  0.021  0.037  0.010  0.393  0.046  0.393  0.000  0.943
 
band   6 # energy   10.27785020 # occ.  0.00000000
 
ion      s     py     pz     px    dxy    dyz    dz2    dxz    dx2    tot
  1  0.000  0.002  0.000  0.002  0.000  0.049  0.000  0.049  0.877  0.979
 