<?xml version="1.0" encoding="ISO-8859-1"?>
<modeling>
 <generator>
  <i name="program" type="string">vasp </i>
  <i name="version" type="string">5.2.12  </i>
  <i name="subversion" type="string">11Nov11 complex                                                      parallel </i>
  <i name="platform" type="string">LinuxIFC </i>
  <i name="date" type="string">2012 10 17 </i>
  <i name="time" type="string">11:06:50 </i>
 </generator>
 <incar>
  <i type="int" name="ISTART">     0</i>
  <i type="string" name="PREC">accurate</i>
  <i type="int" name="ISPIN">     2</i>
  <i name="ENCUT">    400.00000000</i>
  <v name="MAGMOM">      6.00000000</v>
  <i type="logical" name="LREAL"> F  </i>
  <i type="int" name="ISMEAR">     1</i>
  <i name="SIGMA">      0.05000000</i>
  <i type="logical" name="LORBIT"> F  </i>
 </incar>
 <kpoints>
  <generation param="Monkhorst-Pack">
   <v type="int" name="divisions">       8        8        8 </v>
   <v name="usershift">      0.00000000       0.00000000       0.00000000 </v>
   <v name="genvec1">      0.12500000       0.00000000       0.00000000 </v>
   <v name="genvec2">      0.00000000       0.12500000       0.00000000 </v>
   <v name="genvec3">      0.00000000       0.00000000       0.12500000 </v>
   <v name="shift">      0.50000000       0.50000000       0.50000000 </v>
  </generation>
  <varray name="kpointlist" >
   <v>       0.06250000       0.06250000       0.06250000 </v>
   <v>       0.18750000       0.06250000       0.06250000 </v>
   <v>       0.31250000       0.06250000       0.06250000 </v>
   <v>       0.43750000       0.06250000       0.06250000 </v>
   <v>      -0.43750000       0.06250000       0.06250000 </v>
   <v>      -0.31250000       0.06250000       0.06250000 </v>
   <v>      -0.18750000       0.06250000       0.06250000 </v>
   <v>      -0.06250000       0.06250000       0.06250000 </v>
   <v>       0.18750000       0.18750000       0.06250000 </v>
   <v>       0.31250000       0.18750000       0.06250000 </v>
   <v>       0.43750000       0.18750000       0.06250000 </v>
   <v>      -0.43750000       0.18750000       0.06250000 </v>
   <v>      -0.31250000       0.18750000       0.06250000 </v>
   <v>      -0.18750000       0.18750000       0.06250000 </v>
   <v>      -0.06250000       0.18750000       0.06250000 </v>
   <v>       0.31250000       0.31250000       0.06250000 </v>
   <v>       0.43750000       0.31250000       0.06250000 </v>
   <v>      -0.43750000       0.31250000       0.06250000 </v>
   <v>      -0.31250000       0.31250000       0.06250000 </v>
   <v>      -0.18750000       0.31250000       0.06250000 </v>
   <v>      -0.06250000       0.31250000       0.06250000 </v>
   <v>       0.43750000       0.43750000       0.06250000 </v>
   <v>      -0.43750000       0.43750000       0.06250000 </v>
   <v>      -0.31250000       0.43750000       0.06250000 </v>
   <v>      -0.18750000       0.43750000       0.06250000 </v>
   <v>      -0.06250000       0.43750000       0.06250000 </v>
   <v>      -0.43750000      -0.43750000       0.06250000 </v>
   <v>      -0.31250000      -0.43750000       0.06250000 </v>
   <v>      -0.18750000      -0.43750000       0.06250000 </v>
   <v>      -0.31250000      -0.31250000       0.06250000 </v>
   <v>      -0.18750000      -0.31250000       0.06250000 </v>
   <v>      -0.18750000      -0.18750000       0.06250000 </v>
   <v>       0.18750000       0.18750000       0.18750000 </v>
   <v>       0.31250000       0.18750000       0.18750000 </v>
   <v>       0.43750000       0.18750000       0.18750000 </v>
   <v>      -0.43750000       0.18750000       0.18750000 </v>
   <v>      -0.31250000       0.18750000       0.18750000 </v>
   <v>      -0.18750000       0.18750000       0.18750000 </v>
   <v>       0.31250000       0.31250000       0.18750000 </v>
   <v>       0.43750000       0.31250000       0.18750000 </v>
   <v>      -0.43750000       0.31250000       0.18750000 </v>
   <v>      -0.31250000       0.31250000       0.18750000 </v>
   <v>      -0.18750000       0.31250000       0.18750000 </v>
   <v>       0.43750000       0.43750000       0.18750000 </v>
   <v>      -0.43750000       0.43750000       0.18750000 </v>
   <v>      -0.31250000       0.43750000       0.18750000 </v>
   <v>      -0.18750000       0.43750000       0.18750000 </v>
   <v>      -0.43750000      -0.43750000       0.18750000 </v>
   <v>      -0.31250000      -0.43750000       0.18750000 </v>
   <v>      -0.31250000      -0.31250000       0.18750000 </v>
   <v>       0.31250000       0.31250000       0.31250000 </v>
   <v>       0.43750000       0.31250000       0.31250000 </v>
   <v>      -0.43750000       0.31250000       0.31250000 </v>
   <v>      -0.31250000       0.31250000       0.31250000 </v>
   <v>       0.43750000       0.43750000       0.31250000 </v>
   <v>      -0.43750000       0.43750000       0.31250000 </v>
   <v>      -0.31250000       0.43750000       0.31250000 </v>
   <v>      -0.43750000      -0.43750000       0.31250000 </v>
   <v>       0.43750000       0.43750000       0.43750000 </v>
   <v>      -0.43750000       0.43750000       0.43750000 </v>
  </varray>
  <varray name="weights" >
   <v>       0.00390625 </v>
   <v>       0.01171875 </v>
   <v>       0.01171875 </v>
   <v>       0.01171875 </v>
   <v>       0.01171875 </v>
   <v>       0.01171875 </v>
   <v>       0.01171875 </v>
   <v>       0.01171875 </v>
   <v>       0.01171875 </v>
   <v>       0.02343750 </v>
   <v>       0.02343750 </v>
   <v>       0.02343750 </v>
   <v>       0.02343750 </v>
   <v>       0.02343750 </v>
   <v>       0.02343750 </v>
   <v>       0.01171875 </v>
   <v>       0.02343750 </v>
   <v>       0.02343750 </v>
   <v>       0.02343750 </v>
   <v>       0.02343750 </v>
   <v>       0.02343750 </v>
   <v>       0.01171875 </v>
   <v>       0.02343750 </v>
   <v>       0.02343750 </v>
   <v>       0.02343750 </v>
   <v>       0.02343750 </v>
   <v>       0.01171875 </v>
   <v>       0.02343750 </v>
   <v>       0.02343750 </v>
   <v>       0.01171875 </v>
   <v>       0.02343750 </v>
   <v>       0.01171875 </v>
   <v>       0.00390625 </v>
   <v>       0.01171875 </v>
   <v>       0.01171875 </v>
   <v>       0.01171875 </v>
   <v>       0.01171875 </v>
   <v>       0.01171875 </v>
   <v>       0.01171875 </v>
   <v>       0.02343750 </v>
   <v>       0.02343750 </v>
   <v>       0.02343750 </v>
   <v>       0.02343750 </v>
   <v>       0.01171875 </v>
   <v>       0.02343750 </v>
   <v>       0.02343750 </v>
   <v>       0.02343750 </v>
   <v>       0.01171875 </v>
   <v>       0.02343750 </v>
   <v>       0.01171875 </v>
   <v>       0.00390625 </v>
   <v>       0.01171875 </v>
   <v>       0.01171875 </v>
   <v>       0.01171875 </v>
   <v>       0.01171875 </v>
   <v>       0.02343750 </v>
   <v>       0.02343750 </v>
   <v>       0.01171875 </v>
   <v>       0.00390625 </v>
   <v>       0.01171875 </v>
  </varray>
 </kpoints>
 <parameters>
  <separator name="general" >
   <i type="string" name="SYSTEM">unknown system</i>
   <i type="logical" name="LCOMPAT"> F  </i>
  </separator>
  <separator name="electronic" >
   <i type="string" name="PREC">accura</i>
   <i name="ENMAX">    400.00000000</i>
   <i name="ENAUG">    332.07500000</i>
   <i name="EDIFF">      0.00010000</i>
   <i type="int" name="IALGO">    38</i>
   <i type="int" name="IWAVPR">    10</i>
   <i type="int" name="NBANDS">     9</i>
   <i name="NELECT">      5.00000000</i>
   <i type="int" name="TURBO">     0</i>
   <i type="int" name="IRESTART">     0</i>
   <i type="int" name="NREBOOT">     0</i>
   <i type="int" name="NMIN">     0</i>
   <i name="EREF">      0.00000000</i>
   <separator name="electronic smearing" >
    <i type="int" name="ISMEAR">     1</i>
    <i name="SIGMA">      0.05000000</i>
    <i name="KSPACING">      0.50000000</i>
    <i type="logical" name="KGAMMA"> T  </i>
   </separator>
   <separator name="electronic projectors" >
    <i type="logical" name="LREAL"> F  </i>
    <v name="ROPT">      0.00000000</v>
    <i type="int" name="LMAXPAW">  -100</i>
    <i type="int" name="LMAXMIX">     2</i>
    <i type="logical" name="NLSPLINE"> F  </i>
   </separator>
   <separator name="electronic startup" >
    <i type="int" name="ISTART">     0</i>
    <i type="int" name="ICHARG">     2</i>
    <i type="int" name="INIWAV">     1</i>
   </separator>
   <separator name="electronic spin" >
    <i type="int" name="ISPIN">     2</i>
    <i type="logical" name="LNONCOLLINEAR"> F  </i>
    <v name="MAGMOM">      6.00000000</v>
    <i name="NUPDOWN">     -1.00000000</i>
    <i type="logical" name="LSORBIT"> F  </i>
    <v name="SAXIS">      0.00000000      0.00000000      1.00000000</v>
    <i type="logical" name="LSPIRAL"> F  </i>
    <v name="QSPIRAL">      0.00000000      0.00000000      0.00000000</v>
    <i type="logical" name="LZEROZ"> F  </i>
   </separator>
   <separator name="electronic exchange-correlation" >
    <i type="logical" name="LASPH"> F  </i>
    <i type="logical" name="LMETAGGA"> F  </i>
   </separator>
   <separator name="electronic convergence" >
    <i type="int" name="NELM">    60</i>
    <i type="int" name="NELMDL">    -5</i>
    <i type="int" name="NELMIN">     2</i>
    <i name="ENINI">    400.00000000</i>
    <separator name="electronic convergence detail" >
     <i type="logical" name="LDIAG"> T  </i>
     <i type="logical" name="LSUBROT"> T  </i>
     <i name="WEIMIN">      0.00000000</i>
     <i name="EBREAK">      0.00000278</i>
     <i name="DEPER">      0.30000000</i>
     <i type="int" name="NRMM">     4</i>
     <i name="TIME">      0.40000000</i>
    </separator>
   </separator>
   <separator name="electronic mixer" >
    <i name="AMIX">      0.40000000</i>
    <i name="BMIX">      1.00000000</i>
    <i name="AMIN">      0.10000000</i>
    <i name="AMIX_MAG">      1.60000000</i>
    <i name="BMIX_MAG">      1.00000000</i>
    <separator name="electronic mixer details" >
     <i type="int" name="IMIX">     4</i>
     <i type="int" name="MAXMIX">   -45</i>
     <i name="WC">    100.00000000</i>
     <i type="int" name="INIMIX">     1</i>
     <i type="int" name="MIXPRE">     1</i>
     <i type="int" name="MREMOVE">     5</i>
    </separator>
   </separator>
   <separator name="electronic dipolcorrection" >
    <i type="logical" name="LDIPOL"> F  </i>
    <i type="logical" name="LMONO"> F  </i>
    <i type="int" name="IDIPOL">     0</i>
    <i name="EPSILON">      1.00000000</i>
    <v name="DIPOL">   -100.00000000   -100.00000000   -100.00000000</v>
    <i name="EFIELD">      0.00000000</i>
   </separator>
  </separator>
  <separator name="grids" >
   <i type="int" name="NGX">    20</i>
   <i type="int" name="NGY">    20</i>
   <i type="int" name="NGZ">    20</i>
   <i type="int" name="NGXF">    40</i>
   <i type="int" name="NGYF">    40</i>
   <i type="int" name="NGZF">    40</i>
   <i type="logical" name="ADDGRID"> F  </i>
  </separator>
  <separator name="ionic" >
   <i type="int" name="NSW">     0</i>
   <i type="int" name="IBRION">    -1</i>
   <i type="int" name="ISIF">     2</i>
   <i name="PSTRESS">      0.00000000</i>
   <i name="EDIFFG">      0.00100000</i>
   <i type="int" name="NFREE">     0</i>
   <i name="POTIM">      0.50000000</i>
   <i name="SMASS">     -3.00000000</i>
   <i name="SCALEE">      1.00000000</i>
  </separator>
  <separator name="ionic md" >
   <i name="TEBEG">      0.00010000</i>
   <i name="TEEND">      0.00010000</i>
   <i type="int" name="NBLOCK">     1</i>
   <i type="int" name="KBLOCK">     1</i>
   <i type="int" name="NPACO">   256</i>
   <i name="APACO">     16.00000000</i>
  </separator>
  <separator name="symmetry" >
   <i type="int" name="ISYM">     2</i>
   <i name="SYMPREC">      0.00001000</i>
  </separator>
  <separator name="dos" >
   <i type="logical" name="LORBIT"> F  </i>
   <v name="RWIGS">     -1.00000000</v>
   <i type="int" name="NEDOS">   301</i>
   <i name="EMIN">     10.00000000</i>
   <i name="EMAX">    -10.00000000</i>
   <i name="EFERMI">      0.00000000</i>
  </separator>
  <separator name="writing" >
   <i type="int" name="NWRITE">     2</i>
   <i type="logical" name="LWAVE"> T  </i>
   <i type="logical" name="LCHARG"> T  </i>
   <i type="logical" name="LPARD"> F  </i>
   <i type="logical" name="LVTOT"> F  </i>
   <i type="logical" name="LVHAR"> F  </i>
   <i type="logical" name="LELF"> F  </i>
   <i type="logical" name="LOPTICS"> F  </i>
   <v name="STM">      0.00000000      0.00000000      0.00000000      0.00000000      0.00000000      0.00000000      0.00000000</v>
  </separator>
  <separator name="performance" >
   <i type="int" name="NPAR">     1</i>
   <i type="int" name="NSIM">     4</i>
   <i type="int" name="NBLK">    -1</i>
   <i type="logical" name="LPLANE"> T  </i>
   <i type="logical" name="LSCALAPACK"> F  </i>
   <i type="logical" name="LSCAAWARE"> F  </i>
   <i type="logical" name="LSCALU"> F  </i>
   <i type="logical" name="LASYNC"> F  </i>
   <i type="logical" name="LORBITALREAL"> F  </i>
  </separator>
  <separator name="miscellaneous" >
   <i type="int" name="IDIOT">     3</i>
   <i type="logical" name="LMUSIC"> F  </i>
   <v name="POMASS">    180.94800000</v>
   <v name="DARWINR">      0.00000000</v>
   <v name="DARWINV">      1.00000000</v>
   <i type="logical" name="LCORR"> T  </i>
  </separator>
  <i type="logical" name="GGA_COMPAT"> T  </i>
  <i type="logical" name="LBERRY"> F  </i>
  <i type="int" name="ICORELEVEL">     0</i>
  <i type="logical" name="LDAU"> F  </i>
  <i type="int" name="I_CONSTRAINED_M">     0</i>
  <separator name="electronic exchange-correlation" >
   <i type="string" name="GGA">--</i>
   <i type="int" name="VOSKOWN">     0</i>
   <i type="logical" name="LHFCALC"> F  </i>
   <i type="string" name="PRECFOCK"></i>
   <i type="logical" name="LHFONE"> F  </i>
   <i type="logical" name="LRHFCALC"> F  </i>
   <i type="logical" name="LTHOMAS"> F  </i>
   <i type="logical" name="LMODELHF"> F  </i>
   <i name="ENCUT4O">     -1.00000000</i>
   <i type="int" name="EXXOEP">     0</i>
   <i type="int" name="FOURORBIT">     0</i>
   <i name="AEXX">      0.00000000</i>
   <i name="HFALPHA">      0.00000000</i>
   <i name="ALDAX">      1.00000000</i>
   <i name="AGGAX">      1.00000000</i>
   <i name="ALDAC">      1.00000000</i>
   <i name="AGGAC">      1.00000000</i>
   <i type="int" name="NKREDX">     1</i>
   <i type="int" name="NKREDY">     1</i>
   <i type="int" name="NKREDZ">     1</i>
   <i type="logical" name="SHIFTRED"> F  </i>
   <i type="logical" name="ODDONLY"> F  </i>
   <i type="logical" name="EVENONLY"> F  </i>
   <i type="int" name="LMAXFOCK">     0</i>
   <i type="int" name="NMAXFOCKAE">     0</i>
   <i type="logical" name="LFOCKAEDFT"> F  </i>
   <i name="HFSCREEN">      0.00000000</i>
   <i name="HFSCREENC">      0.00000000</i>
  </separator>
  <separator name="vdW DFT" >
   <i type="logical" name="LUSE_VDW"> F  </i>
   <i name="Zab_VDW">     -0.84910000</i>
   <i name="PARAM1">      0.12340000</i>
   <i name="PARAM2">      1.00000000</i>
   <i name="PARAM3">      0.00000000</i>
  </separator>
  <separator name="model GW" >
   <i type="int" name="MODEL_GW">     0</i>
   <i name="MODEL_EPS0">     11.51484375</i>
   <i name="MODEL_ALPHA">      1.00000000</i>
  </separator>
  <separator name="linear response parameters" >
   <i type="logical" name="LEPSILON"> F  </i>
   <i type="logical" name="LRPA"> F  </i>
   <i type="logical" name="LNABLA"> F  </i>
   <i type="logical" name="LVEL"> F  </i>
   <i type="int" name="KINTER">     0</i>
   <i name="CSHIFT">      0.10000000</i>
   <i name="OMEGAMAX">     -1.00000000</i>
  </separator>
  <separator name="orbital magnetization" >
   <i type="logical" name="NUCIND"> F  </i>
   <v name="MAGPOS">      0.00000000      0.00000000      0.00000000</v>
   <i type="logical" name="LNICSALL"> T  </i>
   <i type="logical" name="ORBITALMAG"> F  </i>
   <i type="logical" name="LMAGBLOCH"> F  </i>
   <i type="logical" name="LCHIMAG"> F  </i>
   <i type="logical" name="LGAUGE"> T  </i>
   <i type="int" name="MAGATOM">     0</i>
   <v name="MAGDIPOL">      0.00000000      0.00000000      0.00000000</v>
   <v name="AVECCONST">      0.00000000      0.00000000      0.00000000</v>
  </separator>
  <separator name="response functions" >
   <i type="logical" name="LADDER"> F  </i>
   <i type="logical" name="LHARTREE"> T  </i>
   <i type="int" name="IBSE">     0</i>
   <i type="logical" name="LTCTE"> F  </i>
   <i type="logical" name="LTETE"> F  </i>
   <i type="logical" name="LFXCEPS"> F  </i>
   <i type="logical" name="L2ORDER"> F  </i>
   <i type="logical" name="LUSEW"> F  </i>
   <i name="ENCUTGW">     -2.00000000</i>
   <i name="ENCUTGWSOFT">     -2.00000000</i>
   <i name="ENCUTLF">     -1.00000000</i>
   <i type="int" name="LMAXMP2">    -1</i>
   <i name="SCISSOR">      0.00000000</i>
   <i type="int" name="NOMEGA">     0</i>
   <i type="int" name="NOMEGAR">     0</i>
   <i type="int" name="NBANDSGW">    -1</i>
   <i type="int" name="NBANDSO">    -1</i>
   <i type="int" name="NBANDSV">    -1</i>
   <i name="OPTEMAX">      0.00000000</i>
   <i type="int" name="NELM">     1</i>
   <i type="int" name="DIM">     3</i>
   <i type="int" name="ANTIRES">     0</i>
   <i name="OMEGAMAX">    -30.00000000</i>
   <i name="OMEGATL">   -200.00000000</i>
   <i type="int" name="OMEGAGRID">     0</i>
   <i name="CSHIFT">     -0.10000000</i>
   <i type="logical" name="SELFENERGY"> F  </i>
   <i type="logical" name="LSPECTRAL"> F  </i>
   <i type="logical" name="ODDONLYGW"> F  </i>
   <i type="logical" name="EVENONLYGW"> F  </i>
   <i type="int" name="NKREDLFX">     1</i>
   <i type="int" name="NKREDLFY">     1</i>
   <i type="int" name="NKREDLFZ">     1</i>
   <i type="int" name="MAXMEM">  1800</i>
   <i type="int" name="TELESCOPE">     0</i>
  </separator>
 </parameters>
 <atominfo>
  <atoms>       1 </atoms>
  <types>       1 </types>
  <array name="atoms" >
   <dimension dim="1">ion</dimension>
   <field type="string">element</field>
   <field type="int">atomtype</field>
   <set>
    <rc><c>Ta</c><c>   1</c></rc>
   </set>
  </array>
  <array name="atomtypes" >
   <dimension dim="1">type</dimension>
   <field type="int">atomspertype</field>
   <field type="string">element</field>
   <field>mass</field>
   <field>valence</field>
   <field type="string">pseudopotential</field>
   <set>
    <rc><c>   1</c><c>Ta</c><c>    180.94800000</c><c>      5.00000000</c><c>  PAW_PBE Ta 17Jan2003                  </c></rc>
   </set>
  </array>
 </atominfo>
 <structure name="initialpos" >
  <crystal>
   <varray name="basis" >
    <v>       0.00000000       2.12500000       2.12500000 </v>
    <v>       2.12500000       0.00000000       2.12500000 </v>
    <v>       2.12500000       2.12500000       0.00000000 </v>
   </varray>
   <i name="volume">     19.19140625 </i>
   <varray name="rec_basis" >
    <v>      -0.23529412       0.23529412       0.23529412 </v>
    <v>       0.23529412      -0.23529412       0.23529412 </v>
    <v>       0.23529412       0.23529412      -0.23529412 </v>
   </varray>
  </crystal>
  <varray name="positions" >
   <v>       0.00000000       0.00000000       0.00000000 </v>
  </varray>
 </structure>
 <calculation>
  <scstep>
   <time name="dav">    2.96    2.96</time>
   <time name="total">    3.21    3.25</time>
   <energy>
    <i name="alphaZ">     28.89562613 </i>
    <i name="ewald">   -194.17952367 </i>
    <i name="hartreedc">     -2.88472841 </i>
    <i name="XCdc">    -60.71435777 </i>
    <i name="pawpsdc">    143.51874798 </i>
    <i name="pawaedc">    -69.33493833 </i>
    <i name="eentropy">     -0.00011966 </i>
    <i name="bandstr">     32.81668388 </i>
    <i name="atom">    130.64884137 </i>
    <i name="e_fr_energy">      8.76623152 </i>
    <i name="e_wo_entrp">      8.76635119 </i>
    <i name="e_0_energy">      8.76627141 </i>
   </energy>
  </scstep>
  <scstep>
   <time name="dav">    3.65    3.66</time>
   <time name="total">    3.66    3.67</time>
   <energy>
    <i name="e_fr_energy">     -1.55796188 </i>
    <i name="e_wo_entrp">     -1.55817138 </i>
    <i name="e_0_energy">     -1.55803171 </i>
   </energy>
  </scstep>
  <scstep>
   <time name="dav">    3.39    3.40</time>
   <time name="total">    3.40    3.43</time>
   <energy>
    <i name="e_fr_energy">     -1.73810275 </i>
    <i name="e_wo_entrp">     -1.73769576 </i>
    <i name="e_0_energy">     -1.73796709 </i>
   </energy>
  </scstep>
  <scstep>
   <time name="dav">    3.53    3.54</time>
   <time name="total">    3.54    3.56</time>
   <energy>
    <i name="e_fr_energy">     -1.73832680 </i>
    <i name="e_wo_entrp">     -1.73791629 </i>
    <i name="e_0_energy">     -1.73818996 </i>
   </energy>
  </scstep>
  <scstep>
   <time name="dav">    3.38    3.38</time>
   <time name="total">    3.59    3.61</time>
   <energy>
    <i name="e_fr_energy">     -1.73832727 </i>
    <i name="e_wo_entrp">     -1.73791676 </i>
    <i name="e_0_energy">     -1.73819043 </i>
   </energy>
  </scstep>
  <scstep>
   <time name="dav">    3.12    3.12</time>
   <time name="total">    3.58    3.60</time>
   <energy>
    <i name="e_fr_energy">    -11.14170011 </i>
    <i name="e_wo_entrp">    -11.14114547 </i>
    <i name="e_0_energy">    -11.14151523 </i>
   </energy>
  </scstep>
  <scstep>
   <time name="dav">    3.29    3.29</time>
   <time name="total">    3.75    4.26</time>
   <energy>
    <i name="e_fr_energy">    -10.93048205 </i>
    <i name="e_wo_entrp">    -10.93042371 </i>
    <i name="e_0_energy">    -10.93046261 </i>
   </energy>
  </scstep>
  <scstep>
   <time name="dav">    3.11    3.11</time>
   <time name="total">    3.58    3.59</time>
   <energy>
    <i name="e_fr_energy">    -11.56268127 </i>
    <i name="e_wo_entrp">    -11.56253952 </i>
    <i name="e_0_energy">    -11.56263402 </i>
   </energy>
  </scstep>
  <scstep>
   <time name="dav">    3.37    3.37</time>
   <time name="total">    3.83    3.85</time>
   <energy>
    <i name="e_fr_energy">    -11.59899578 </i>
    <i name="e_wo_entrp">    -11.59901902 </i>
    <i name="e_0_energy">    -11.59900353 </i>
   </energy>
  </scstep>
  <scstep>
   <time name="dav">    3.18    3.18</time>
   <time name="total">    3.64    3.65</time>
   <energy>
    <i name="e_fr_energy">    -11.60558517 </i>
    <i name="e_wo_entrp">    -11.60485294 </i>
    <i name="e_0_energy">    -11.60534109 </i>
   </energy>
  </scstep>
  <scstep>
   <time name="dav">    3.45    3.45</time>
   <time name="total">    3.91    4.35</time>
   <energy>
    <i name="e_fr_energy">    -11.60641827 </i>
    <i name="e_wo_entrp">    -11.60560703 </i>
    <i name="e_0_energy">    -11.60614785 </i>
   </energy>
  </scstep>
  <scstep>
   <time name="dav">    3.12    3.13</time>
   <time name="total">    3.38    3.39</time>
   <energy>
    <i name="alphaZ">     28.89562613 </i>
    <i name="ewald">   -194.17952367 </i>
    <i name="hartreedc">     -0.73818779 </i>
    <i name="XCdc">    -66.06715319 </i>
    <i name="pawpsdc">    182.17418676 </i>
    <i name="pawaedc">   -108.72527816 </i>
    <i name="eentropy">     -0.00078715 </i>
    <i name="bandstr">     16.38581050 </i>
    <i name="atom">    130.64884137 </i>
    <i name="e_fr_energy">    -11.60646519 </i>
    <i name="e_wo_entrp">    -11.60567804 </i>
    <i name="e_0_energy">    -11.60620281 </i>
   </energy>
  </scstep>
  <parameters_embedded>
   <separator name="dft+d2" >
    <i type="logical" name="LVDW"> F  </i>
   </separator>
  </parameters_embedded>
  <structure>
   <crystal>
    <varray name="basis" >
     <v>       0.00000000       2.12500000       2.12500000 </v>
     <v>       2.12500000       0.00000000       2.12500000 </v>
     <v>       2.12500000       2.12500000       0.00000000 </v>
    </varray>
    <i name="volume">     19.19140625 </i>
    <varray name="rec_basis" >
     <v>      -0.23529412       0.23529412       0.23529412 </v>
     <v>       0.23529412      -0.23529412       0.23529412 </v>
     <v>       0.23529412       0.23529412      -0.23529412 </v>
    </varray>
   </crystal>
   <varray name="positions" >
    <v>       0.00000000       0.00000000       0.00000000 </v>
   </varray>
  </structure>
  <varray name="forces" >
   <v>       0.00000000       0.00000000       0.00000000 </v>
  </varray>
  <varray name="stress" >
   <v>     -54.69272911       0.00000000       0.00000000 </v>
   <v>       0.00000000     -54.69272911       0.00000000 </v>
   <v>       0.00000000       0.00000000     -54.69272911 </v>
  </varray>
  <energy>
   <i name="e_fr_energy">    -11.60646519 </i>
   <i name="e_wo_entrp">    -11.60620281 </i>
   <i name="e_0_energy">     -0.00078715 </i>
  </energy>
  <time name="totalsc">   45.19   46.46</time>
  <eigenvalues>
   <array>
    <dimension dim="1">band</dimension>
    <dimension dim="2">kpoint</dimension>
    <dimension dim="3">spin</dimension>
    <field>eigene</field>
    <field>occ</field>
    <set>
     <set comment="spin 1">
      <set comment="kpoint 1">
       <r>   -2.2671    1.0000 </r>
       <r>    5.9108    0.0000 </r>
       <r>    6.1155    0.0000 </r>
       <r>    6.1155    0.0000 </r>
       <r>    8.8673    0.0000 </r>
       <r>    8.8673    0.0000 </r>
       <r>   18.3186    0.0000 </r>
       <r>   19.0495    0.0000 </r>
       <r>   21.9564    0.0000 </r>
      </set>
      <set comment="kpoint 2">
       <r>   -1.5089    1.0000 </r>
       <r>    5.3379    1.0000 </r>
       <r>    6.4095    0.0000 </r>
       <r>    6.4422    0.0000 </r>
       <r>    8.3164    0.0000 </r>
       <r>    8.9902    0.0000 </r>
       <r>   19.0476    0.0000 </r>
       <r>   19.6498    0.0000 </r>
       <r>   20.4129    0.0000 </r>
      </set>
      <set comment="kpoint 3">
       <r>   -0.0067    1.0000 </r>
       <r>    4.7997    1.0000 </r>
       <r>    6.2858    0.0000 </r>
       <r>    6.5022    0.0000 </r>
       <r>    8.6556    0.0000 </r>
       <r>    9.7565    0.0000 </r>
       <r>   17.9149    0.0000 </r>
       <r>   19.0507    0.0000 </r>
       <r>   21.5119    0.0000 </r>
      </set>
      <set comment="kpoint 4">
       <r>    1.0485    1.0000 </r>
       <r>    5.3719    1.0000 </r>
       <r>    5.8738    0.0000 </r>
       <r>    6.0697    0.0000 </r>
       <r>   10.1909    0.0000 </r>
       <r>   11.1030    0.0000 </r>
       <r>   16.0843    0.0000 </r>
       <r>   18.7950    0.0000 </r>
       <r>   19.0614    0.0000 </r>
      </set>
      <set comment="kpoint 5">
       <r>    1.2129    1.0000 </r>
       <r>    5.5093    1.0355 </r>
       <r>    5.9584    0.0000 </r>
       <r>    6.1719    0.0000 </r>
       <r>   11.2013    0.0000 </r>
       <r>   11.3056    0.0000 </r>
       <r>   15.1868    0.0000 </r>
       <r>   17.9353    0.0000 </r>
       <r>   19.0526    0.0000 </r>
      </set>
      <set comment="kpoint 6">
       <r>    0.8171    1.0000 </r>
       <r>    5.0261    1.0000 </r>
       <r>    5.9376    0.0000 </r>
       <r>    6.2507    0.0000 </r>
       <r>    9.8617    0.0000 </r>
       <r>   10.5055    0.0000 </r>
       <r>   16.6724    0.0000 </r>
       <r>   19.0460    0.0000 </r>
       <r>   19.6972    0.0000 </r>
      </set>
      <set comment="kpoint 7">
       <r>   -0.5325    1.0000 </r>
       <r>    4.8664    1.0000 </r>
       <r>    6.4372    0.0000 </r>
       <r>    6.5818    0.0000 </r>
       <r>    8.4089    0.0000 </r>
       <r>    9.3230    0.0000 </r>
       <r>   18.5968    0.0000 </r>
       <r>   19.0540    0.0000 </r>
       <r>   21.5040    0.0000 </r>
      </set>
      <set comment="kpoint 8">
       <r>   -1.8774    1.0000 </r>
       <r>    5.5442    0.8822 </r>
       <r>    6.3233    0.0000 </r>
       <r>    6.3352    0.0000 </r>
       <r>    8.3883    0.0000 </r>
       <r>    9.0315    0.0000 </r>
       <r>   19.0489    0.0000 </r>
       <r>   19.1106    0.0000 </r>
       <r>   21.1884    0.0000 </r>
      </set>
      <set comment="kpoint 9">
       <r>   -1.1408    1.0000 </r>
       <r>    4.9199    1.0000 </r>
       <r>    6.7000    0.0000 </r>
       <r>    6.7722    0.0000 </r>
       <r>    7.6622    0.0000 </r>
       <r>    9.3445    0.0000 </r>
       <r>   19.0478    0.0000 </r>
       <r>   20.4747    0.0000 </r>
       <r>   20.9271    0.0000 </r>
      </set>
      <set comment="kpoint 10">
       <r>    0.1268    1.0000 </r>
       <r>    4.2962    1.0000 </r>
       <r>    6.1029    0.0000 </r>
       <r>    7.3196    0.0000 </r>
       <r>    8.0249    0.0000 </r>
       <r>   10.0427    0.0000 </r>
       <r>   19.0428    0.0000 </r>
       <r>   19.7104    0.0000 </r>
       <r>   22.4704    0.0000 </r>
      </set>
      <set comment="kpoint 11">
       <r>    1.4991    1.0000 </r>
       <r>    4.3212    1.0000 </r>
       <r>    5.3098    1.0000 </r>
       <r>    6.9846    0.0000 </r>
       <r>    9.8099    0.0000 </r>
       <r>   11.4004    0.0000 </r>
       <r>   16.9926    0.0000 </r>
       <r>   19.0526    0.0000 </r>
       <r>   20.4135    0.0000 </r>
      </set>
      <set comment="kpoint 12">
       <r>    1.9613    1.0000 </r>
       <r>    4.4903    1.0000 </r>
       <r>    5.6930   -0.0014 </r>
       <r>    6.6528    0.0000 </r>
       <r>   10.9478    0.0000 </r>
       <r>   12.4342    0.0000 </r>
       <r>   14.6021    0.0000 </r>
       <r>   19.0513    0.0000 </r>
       <r>   19.5848    0.0000 </r>
      </set>
      <set comment="kpoint 13">
       <r>    1.8123    1.0000 </r>
       <r>    4.6535    1.0000 </r>
       <r>    5.2230    1.0000 </r>
       <r>    6.7438    0.0000 </r>
       <r>    9.7922    0.0000 </r>
       <r>   12.1717    0.0000 </r>
       <r>   16.1276    0.0000 </r>
       <r>   19.0522    0.0000 </r>
       <r>   20.0214    0.0000 </r>
      </set>
      <set comment="kpoint 14">
       <r>    0.6691    1.0000 </r>
       <r>    4.3977    1.0000 </r>
       <r>    5.7428    0.0000 </r>
       <r>    7.2116    0.0000 </r>
       <r>    8.0498    0.0000 </r>
       <r>   10.7745    0.0000 </r>
       <r>   18.7739    0.0000 </r>
       <r>   19.0693    0.0000 </r>
       <r>   22.0224    0.0000 </r>
      </set>
      <set comment="kpoint 15">
       <r>   -0.8100    1.0000 </r>
       <r>    4.8759    1.0000 </r>
       <r>    6.4681    0.0000 </r>
       <r>    6.7986    0.0000 </r>
       <r>    7.8974    0.0000 </r>
       <r>    9.4041    0.0000 </r>
       <r>   19.0450    0.0000 </r>
       <r>   19.7029    0.0000 </r>
       <r>   21.1186    0.0000 </r>
      </set>
      <set comment="kpoint 16">
       <r>    0.8192    1.0000 </r>
       <r>    3.5638    1.0000 </r>
       <r>    5.9552    0.0000 </r>
       <r>    8.2564    0.0000 </r>
       <r>    8.6180    0.0000 </r>
       <r>   10.2779    0.0000 </r>
       <r>   19.0454    0.0000 </r>
       <r>   20.7525    0.0000 </r>
       <r>   21.8182    0.0000 </r>
      </set>
      <set comment="kpoint 17">
       <r>    1.7342    1.0000 </r>
       <r>    3.2476    1.0000 </r>
       <r>    5.5791    0.3530 </r>
       <r>    8.7817    0.0000 </r>
       <r>    9.9075    0.0000 </r>
       <r>   11.4673    0.0000 </r>
       <r>   17.8063    0.0000 </r>
       <r>   19.0542    0.0000 </r>
       <r>   19.9995    0.0000 </r>
      </set>
      <set comment="kpoint 18">
       <r>    2.4985    1.0000 </r>
       <r>    3.5129    1.0000 </r>
       <r>    5.3676    1.0000 </r>
       <r>    8.1963    0.0000 </r>
       <r>   11.0456    0.0000 </r>
       <r>   13.3734    0.0000 </r>
       <r>   14.3158    0.0000 </r>
       <r>   19.0477    0.0000 </r>
       <r>   19.9196    0.0000 </r>
      </set>
      <set comment="kpoint 19">
       <r>    3.1315    1.0000 </r>
       <r>    3.6990    1.0000 </r>
       <r>    4.9065    1.0000 </r>
       <r>    7.7474    0.0000 </r>
       <r>   10.0103    0.0000 </r>
       <r>   12.5346    0.0000 </r>
       <r>   16.6128    0.0000 </r>
       <r>   18.7135    0.0000 </r>
       <r>   19.0564    0.0000 </r>
      </set>
      <set comment="kpoint 20">
       <r>    2.1837    1.0000 </r>
       <r>    4.3648    1.0000 </r>
       <r>    4.7145    1.0000 </r>
       <r>    7.3470    0.0000 </r>
       <r>    8.9367    0.0000 </r>
       <r>   12.3809    0.0000 </r>
       <r>   17.1206    0.0000 </r>
       <r>   19.0539    0.0000 </r>
       <r>   21.0119    0.0000 </r>
      </set>
      <set comment="kpoint 21">
       <r>    0.7062    1.0000 </r>
       <r>    4.6286    1.0000 </r>
       <r>    5.8601    0.0000 </r>
       <r>    6.6151    0.0000 </r>
       <r>    8.9986    0.0000 </r>
       <r>   10.5938    0.0000 </r>
       <r>   17.6424    0.0000 </r>
       <r>   19.0512    0.0000 </r>
       <r>   20.8276    0.0000 </r>
      </set>
      <set comment="kpoint 22">
       <r>    1.5122    1.0000 </r>
       <r>    2.6517    1.0000 </r>
       <r>    7.0279    0.0000 </r>
       <r>   10.2134    0.0000 </r>
       <r>   11.0084    0.0000 </r>
       <r>   11.2772    0.0000 </r>
       <r>   17.2178    0.0000 </r>
       <r>   18.1668    0.0000 </r>
       <r>   19.0348    0.0000 </r>
      </set>
      <set comment="kpoint 23">
       <r>    1.7648    1.0000 </r>
       <r>    2.7293    1.0000 </r>
       <r>    7.0690    0.0000 </r>
       <r>    9.9852    0.0000 </r>
       <r>   11.6172    0.0000 </r>
       <r>   13.0303    0.0000 </r>
       <r>   15.0360    0.0000 </r>
       <r>   17.2119    0.0000 </r>
       <r>   18.9946    0.0000 </r>
      </set>
      <set comment="kpoint 24">
       <r>    2.5072    1.0000 </r>
       <r>    3.3781    1.0000 </r>
       <r>    5.7748    0.0000 </r>
       <r>    8.6179    0.0000 </r>
       <r>   10.9807    0.0000 </r>
       <r>   13.1655    0.0000 </r>
       <r>   15.1030    0.0000 </r>
       <r>   18.4746    0.0000 </r>
       <r>   19.7623    0.0000 </r>
      </set>
      <set comment="kpoint 25">
       <r>    2.5881    1.0000 </r>
       <r>    3.9759    1.0000 </r>
       <r>    5.3287    1.0000 </r>
       <r>    7.2223    0.0000 </r>
       <r>   10.5301    0.0000 </r>
       <r>   12.8543    0.0000 </r>
       <r>   14.9028    0.0000 </r>
       <r>   19.0505    0.0000 </r>
       <r>   20.2132    0.0000 </r>
      </set>
      <set comment="kpoint 26">
       <r>    1.4306    1.0000 </r>
       <r>    5.0999    1.0000 </r>
       <r>    5.8246    0.0000 </r>
       <r>    6.2393    0.0000 </r>
       <r>   10.6861    0.0000 </r>
       <r>   11.7046    0.0000 </r>
       <r>   15.4008    0.0000 </r>
       <r>   18.7495    0.0000 </r>
       <r>   19.0537    0.0000 </r>
      </set>
      <set comment="kpoint 27">
       <r>    1.4412    1.0000 </r>
       <r>    2.4590    1.0000 </r>
       <r>    7.9215    0.0000 </r>
       <r>   10.8368    0.0000 </r>
       <r>   11.6984    0.0000 </r>
       <r>   12.0491    0.0000 </r>
       <r>   15.8800    0.0000 </r>
       <r>   16.9675    0.0000 </r>
       <r>   18.1228    0.0000 </r>
      </set>
      <set comment="kpoint 28">
       <r>    1.8417    1.0000 </r>
       <r>    2.9054    1.0000 </r>
       <r>    6.2941    0.0000 </r>
       <r>    9.5634    0.0000 </r>
       <r>   10.9693    0.0000 </r>
       <r>   12.2117    0.0000 </r>
       <r>   16.1523    0.0000 </r>
       <r>   18.3296    0.0000 </r>
       <r>   19.0489    0.0000 </r>
      </set>
      <set comment="kpoint 29">
       <r>    2.1797    1.0000 </r>
       <r>    3.8736    1.0000 </r>
       <r>    5.1028    1.0000 </r>
       <r>    7.5563    0.0000 </r>
       <r>   10.7453    0.0000 </r>
       <r>   12.1694    0.0000 </r>
       <r>   15.6320    0.0000 </r>
       <r>   19.0513    0.0000 </r>
       <r>   20.8162    0.0000 </r>
      </set>
      <set comment="kpoint 30">
       <r>    1.4179    1.0000 </r>
       <r>    3.0275    1.0000 </r>
       <r>    6.1290    0.0000 </r>
       <r>    9.2350    0.0000 </r>
       <r>    9.7543    0.0000 </r>
       <r>   10.7939    0.0000 </r>
       <r>   19.0033    0.0000 </r>
       <r>   19.1564    0.0000 </r>
       <r>   19.9412    0.0000 </r>
      </set>
      <set comment="kpoint 31">
       <r>    1.1005    1.0000 </r>
       <r>    3.7276    1.0000 </r>
       <r>    5.5711    0.4864 </r>
       <r>    7.9820    0.0000 </r>
       <r>    8.8249    0.0000 </r>
       <r>   10.7573    0.0000 </r>
       <r>   19.0259    0.0000 </r>
       <r>   19.3413    0.0000 </r>
       <r>   21.8463    0.0000 </r>
      </set>
      <set comment="kpoint 32">
       <r>   -0.1640    1.0000 </r>
       <r>    4.2190    1.0000 </r>
       <r>    6.4650    0.0000 </r>
       <r>    7.4189    0.0000 </r>
       <r>    7.7323    0.0000 </r>
       <r>    9.7754    0.0000 </r>
       <r>   19.0469    0.0000 </r>
       <r>   20.9250    0.0000 </r>
       <r>   22.4220    0.0000 </r>
      </set>
      <set comment="kpoint 33">
       <r>   -1.1720    1.0000 </r>
       <r>    5.1924    1.0000 </r>
       <r>    6.4571    0.0000 </r>
       <r>    6.4571    0.0000 </r>
       <r>    8.6943    0.0000 </r>
       <r>    8.6943    0.0000 </r>
       <r>   19.0007    0.0000 </r>
       <r>   19.0827    0.0000 </r>
       <r>   20.7284    0.0000 </r>
      </set>
      <set comment="kpoint 34">
       <r>   -0.1820    1.0000 </r>
       <r>    4.7071    1.0000 </r>
       <r>    6.2159    0.0000 </r>
       <r>    6.9602    0.0000 </r>
       <r>    7.8199    0.0000 </r>
       <r>    9.9370    0.0000 </r>
       <r>   19.0069    0.0000 </r>
       <r>   19.1324    0.0000 </r>
       <r>   21.8590    0.0000 </r>
      </set>
      <set comment="kpoint 35">
       <r>    1.3876    1.0000 </r>
       <r>    4.4431    1.0000 </r>
       <r>    5.3153    1.0000 </r>
       <r>    7.1042    0.0000 </r>
       <r>    8.3009    0.0000 </r>
       <r>   11.6772    0.0000 </r>
       <r>   18.0122    0.0000 </r>
       <r>   19.0568    0.0000 </r>
       <r>   21.2503    0.0000 </r>
      </set>
      <set comment="kpoint 36">
       <r>    2.1709    1.0000 </r>
       <r>    4.4546    1.0000 </r>
       <r>    5.3569    1.0000 </r>
       <r>    6.8153    0.0000 </r>
       <r>   10.0914    0.0000 </r>
       <r>   12.5355    0.0000 </r>
       <r>   15.4944    0.0000 </r>
       <r>   19.0518    0.0000 </r>
       <r>   20.1557    0.0000 </r>
      </set>
      <set comment="kpoint 37">
       <r>    2.0429    1.0000 </r>
       <r>    4.2190    1.0000 </r>
       <r>    5.4402    1.0007 </r>
       <r>    6.9716    0.0000 </r>
       <r>   11.3027    0.0000 </r>
       <r>   12.0124    0.0000 </r>
       <r>   14.8666    0.0000 </r>
       <r>   19.0511    0.0000 </r>
       <r>   20.0232    0.0000 </r>
      </set>
      <set comment="kpoint 38">
       <r>    1.2465    1.0000 </r>
       <r>    3.9392    1.0000 </r>
       <r>    5.4674    1.0066 </r>
       <r>    7.3813    0.0000 </r>
       <r>    9.6345    0.0000 </r>
       <r>   10.7819    0.0000 </r>
       <r>   18.1028    0.0000 </r>
       <r>   19.0560    0.0000 </r>
       <r>   21.2695    0.0000 </r>
      </set>
      <set comment="kpoint 39">
       <r>    0.3292    1.0000 </r>
       <r>    4.4194    1.0000 </r>
       <r>    6.0157    0.0000 </r>
       <r>    6.8837    0.0000 </r>
       <r>    8.7131    0.0000 </r>
       <r>   10.0653    0.0000 </r>
       <r>   18.5447    0.0000 </r>
       <r>   19.0563    0.0000 </r>
       <r>   21.7852    0.0000 </r>
      </set>
      <set comment="kpoint 40">
       <r>    1.5990    1.0000 </r>
       <r>    4.0233    1.0000 </r>
       <r>    5.1104    1.0000 </r>
       <r>    7.6639    0.0000 </r>
       <r>    8.8125    0.0000 </r>
       <r>   11.6293    0.0000 </r>
       <r>   18.0428    0.0000 </r>
       <r>   19.0575    0.0000 </r>
       <r>   21.4600    0.0000 </r>
      </set>
      <set comment="kpoint 41">
       <r>    2.9158    1.0000 </r>
       <r>    3.9685    1.0000 </r>
       <r>    4.4212    1.0000 </r>
       <r>    7.8181    0.0000 </r>
       <r>    9.8216    0.0000 </r>
       <r>   12.7644    0.0000 </r>
       <r>   16.4506    0.0000 </r>
       <r>   19.0505    0.0000 </r>
       <r>   19.3230    0.0000 </r>
      </set>
      <set comment="kpoint 42">
       <r>    3.0178    1.0000 </r>
       <r>    3.6175    1.0000 </r>
       <r>    5.0158    1.0000 </r>
       <r>    7.7068    0.0000 </r>
       <r>   10.6566    0.0000 </r>
       <r>   13.9911    0.0000 </r>
       <r>   14.1352    0.0000 </r>
       <r>   19.0481    0.0000 </r>
       <r>   20.0046    0.0000 </r>
      </set>
      <set comment="kpoint 43">
       <r>    2.2969    1.0000 </r>
       <r>    3.6576    1.0000 </r>
       <r>    4.8460    1.0000 </r>
       <r>    8.2924    0.0000 </r>
       <r>    9.8184    0.0000 </r>
       <r>   12.3677    0.0000 </r>
       <r>   16.7727    0.0000 </r>
       <r>   19.0524    0.0000 </r>
       <r>   19.8497    0.0000 </r>
      </set>
      <set comment="kpoint 44">
       <r>    1.9025    1.0000 </r>
       <r>    3.4867    1.0000 </r>
       <r>    5.3776    1.0000 </r>
       <r>    8.0533    0.0000 </r>
       <r>   10.9489    0.0000 </r>
       <r>   11.3055    0.0000 </r>
       <r>   16.6134    0.0000 </r>
       <r>   19.0519    0.0000 </r>
       <r>   20.7844    0.0000 </r>
      </set>
      <set comment="kpoint 45">
       <r>    2.4344    1.0000 </r>
       <r>    3.3822    1.0000 </r>
       <r>    5.3027    1.0000 </r>
       <r>    8.7606    0.0000 </r>
       <r>   10.8096    0.0000 </r>
       <r>   13.1292    0.0000 </r>
       <r>   15.6362    0.0000 </r>
       <r>   18.2509    0.0000 </r>
       <r>   19.0525    0.0000 </r>
      </set>
      <set comment="kpoint 46">
       <r>    2.8970    1.0000 </r>
       <r>    3.9453    1.0000 </r>
       <r>    4.8817    1.0000 </r>
       <r>    7.7842    0.0000 </r>
       <r>   11.5554    0.0000 </r>
       <r>   14.4227    0.0000 </r>
       <r>   15.2486    0.0000 </r>
       <r>   16.8305    0.0000 </r>
       <r>   19.0532    0.0000 </r>
      </set>
      <set comment="kpoint 47">
       <r>    3.0942    1.0000 </r>
       <r>    3.8731    1.0000 </r>
       <r>    4.5036    1.0000 </r>
       <r>    8.0065    0.0000 </r>
       <r>   10.7548    0.0000 </r>
       <r>   13.3935    0.0000 </r>
       <r>   15.8296    0.0000 </r>
       <r>   18.0584    0.0000 </r>
       <r>   19.0535    0.0000 </r>
      </set>
      <set comment="kpoint 48">
       <r>    2.0212    1.0000 </r>
       <r>    2.9779    1.0000 </r>
       <r>    6.5759    0.0000 </r>
       <r>    9.4734    0.0000 </r>
       <r>   11.3060    0.0000 </r>
       <r>   13.5795    0.0000 </r>
       <r>   14.0991    0.0000 </r>
       <r>   18.8171    0.0000 </r>
       <r>   19.0452    0.0000 </r>
      </set>
      <set comment="kpoint 49">
       <r>    2.3343    1.0000 </r>
       <r>    3.2454    1.0000 </r>
       <r>    5.9504    0.0000 </r>
       <r>    8.7533    0.0000 </r>
       <r>   11.5688    0.0000 </r>
       <r>   14.0933    0.0000 </r>
       <r>   14.7789    0.0000 </r>
       <r>   17.0956    0.0000 </r>
       <r>   19.0956    0.0000 </r>
      </set>
      <set comment="kpoint 50">
       <r>    2.0726    1.0000 </r>
       <r>    3.1464    1.0000 </r>
       <r>    5.9348    0.0000 </r>
       <r>    8.8236    0.0000 </r>
       <r>   11.4691    0.0000 </r>
       <r>   12.4814    0.0000 </r>
       <r>   14.9513    0.0000 </r>
       <r>   19.0470    0.0000 </r>
       <r>   19.6119    0.0000 </r>
      </set>
      <set comment="kpoint 51">
       <r>    0.3331    1.0000 </r>
       <r>    4.9479    1.0000 </r>
       <r>    6.2520    0.0000 </r>
       <r>    6.2520    0.0000 </r>
       <r>    9.6063    0.0000 </r>
       <r>    9.6063    0.0000 </r>
       <r>   17.0603    0.0000 </r>
       <r>   19.0487    0.0000 </r>
       <r>   20.6911    0.0000 </r>
      </set>
      <set comment="kpoint 52">
       <r>    1.2150    1.0000 </r>
       <r>    4.8091    1.0000 </r>
       <r>    5.5739    0.4393 </r>
       <r>    6.5034    0.0000 </r>
       <r>    9.2169    0.0000 </r>
       <r>   11.4509    0.0000 </r>
       <r>   16.9925    0.0000 </r>
       <r>   19.0512    0.0000 </r>
       <r>   20.0118    0.0000 </r>
      </set>
      <set comment="kpoint 53">
       <r>    2.7119    1.0000 </r>
       <r>    4.1944    1.0000 </r>
       <r>    4.7400    1.0000 </r>
       <r>    7.3830    0.0000 </r>
       <r>    9.3422    0.0000 </r>
       <r>   12.5669    0.0000 </r>
       <r>   16.7567    0.0000 </r>
       <r>   19.0525    0.0000 </r>
       <r>   19.7131    0.0000 </r>
      </set>
      <set comment="kpoint 54">
       <r>    2.8142    1.0000 </r>
       <r>    3.5796    1.0000 </r>
       <r>    5.4086    1.0000 </r>
       <r>    8.1924    0.0000 </r>
       <r>   10.4289    0.0000 </r>
       <r>   12.4052    0.0000 </r>
       <r>   16.1779    0.0000 </r>
       <r>   18.5557    0.0000 </r>
       <r>   19.0591    0.0000 </r>
      </set>
      <set comment="kpoint 55">
       <r>    1.4103    1.0000 </r>
       <r>    4.7800    1.0000 </r>
       <r>    5.5783    0.3663 </r>
       <r>    6.4985    0.0000 </r>
       <r>   10.7100    0.0000 </r>
       <r>   11.1443    0.0000 </r>
       <r>   16.0403    0.0000 </r>
       <r>   19.0493    0.0000 </r>
       <r>   19.3632    0.0000 </r>
      </set>
      <set comment="kpoint 56">
       <r>    2.4517    1.0000 </r>
       <r>    4.0795    1.0000 </r>
       <r>    5.1092    1.0000 </r>
       <r>    7.2323    0.0000 </r>
       <r>   10.4432    0.0000 </r>
       <r>   12.8158    0.0000 </r>
       <r>   15.1027    0.0000 </r>
       <r>   19.0511    0.0000 </r>
       <r>   20.6484    0.0000 </r>
      </set>
      <set comment="kpoint 57">
       <r>    3.1256    1.0000 </r>
       <r>    3.6583    1.0000 </r>
       <r>    4.9377    1.0000 </r>
       <r>    7.9051    0.0000 </r>
       <r>   10.7997    0.0000 </r>
       <r>   13.2407    0.0000 </r>
       <r>   15.8486    0.0000 </r>
       <r>   18.0803    0.0000 </r>
       <r>   19.0554    0.0000 </r>
      </set>
      <set comment="kpoint 58">
       <r>    2.5735    1.0000 </r>
       <r>    3.7535    1.0000 </r>
       <r>    5.3983    1.0000 </r>
       <r>    7.6043    0.0000 </r>
       <r>   10.9522    0.0000 </r>
       <r>   12.8611    0.0000 </r>
       <r>   14.5456    0.0000 </r>
       <r>   19.0492    0.0000 </r>
       <r>   20.1181    0.0000 </r>
      </set>
      <set comment="kpoint 59">
       <r>    1.0277    1.0000 </r>
       <r>    5.8835    0.0000 </r>
       <r>    5.8835    0.0000 </r>
       <r>    5.9286    0.0000 </r>
       <r>   10.9448    0.0000 </r>
       <r>   10.9448    0.0000 </r>
       <r>   15.5898    0.0000 </r>
       <r>   17.9491    0.0000 </r>
       <r>   19.0535    0.0000 </r>
      </set>
      <set comment="kpoint 60">
       <r>    1.6101    1.0000 </r>
       <r>    4.9443    1.0000 </r>
       <r>    5.9447    0.0000 </r>
       <r>    6.2840    0.0000 </r>
       <r>   10.8484    0.0000 </r>
       <r>   12.0667    0.0000 </r>
       <r>   14.9126    0.0000 </r>
       <r>   18.8530    0.0000 </r>
       <r>   19.0519    0.0000 </r>
      </set>
     </set>
     <set comment="spin 2">
      <set comment="kpoint 1">
       <r>   -2.2841    1.0000 </r>
       <r>    5.8953    0.0000 </r>
       <r>    6.1000    0.0000 </r>
       <r>    6.1000    0.0000 </r>
       <r>    8.8455    0.0000 </r>
       <r>    8.8455    0.0000 </r>
       <r>   18.3117    0.0000 </r>
       <r>   19.0538    0.0000 </r>
       <r>   21.9367    0.0000 </r>
      </set>
      <set comment="kpoint 2">
       <r>   -1.5257    1.0000 </r>
       <r>    5.3230    1.0000 </r>
       <r>    6.3935    0.0000 </r>
       <r>    6.4266    0.0000 </r>
       <r>    8.2947    0.0000 </r>
       <r>    8.9690    0.0000 </r>
       <r>   19.0518    0.0000 </r>
       <r>   19.6402    0.0000 </r>
       <r>   20.3974    0.0000 </r>
      </set>
      <set comment="kpoint 3">
       <r>   -0.0232    1.0000 </r>
       <r>    4.7851    1.0000 </r>
       <r>    6.2678    0.0000 </r>
       <r>    6.4840    0.0000 </r>
       <r>    8.6368    0.0000 </r>
       <r>    9.7377    0.0000 </r>
       <r>   17.8979    0.0000 </r>
       <r>   19.0549    0.0000 </r>
       <r>   21.5024    0.0000 </r>
      </set>
      <set comment="kpoint 4">
       <r>    1.0329    1.0000 </r>
       <r>    5.3557    1.0000 </r>
       <r>    5.8556    0.0000 </r>
       <r>    6.0502    0.0000 </r>
       <r>   10.1739    0.0000 </r>
       <r>   11.0860    0.0000 </r>
       <r>   16.0677    0.0000 </r>
       <r>   18.7832    0.0000 </r>
       <r>   19.0653    0.0000 </r>
      </set>
      <set comment="kpoint 5">
       <r>    1.1977    1.0000 </r>
       <r>    5.4897    1.0225 </r>
       <r>    5.9389    0.0000 </r>
       <r>    6.1565    0.0000 </r>
       <r>   11.1849    0.0000 </r>
       <r>   11.2891    0.0000 </r>
       <r>   15.1709    0.0000 </r>
       <r>   17.9224    0.0000 </r>
       <r>   19.0569    0.0000 </r>
      </set>
      <set comment="kpoint 6">
       <r>    0.8012    1.0000 </r>
       <r>    5.0109    1.0000 </r>
       <r>    5.9186    0.0000 </r>
       <r>    6.2319    0.0000 </r>
       <r>    9.8444    0.0000 </r>
       <r>   10.4879    0.0000 </r>
       <r>   16.6555    0.0000 </r>
       <r>   19.0500    0.0000 </r>
       <r>   19.6857    0.0000 </r>
      </set>
      <set comment="kpoint 7">
       <r>   -0.5492    1.0000 </r>
       <r>    4.8518    1.0000 </r>
       <r>    6.4196    0.0000 </r>
       <r>    6.5648    0.0000 </r>
       <r>    8.3894    0.0000 </r>
       <r>    9.3029    0.0000 </r>
       <r>   18.5801    0.0000 </r>
       <r>   19.0580    0.0000 </r>
       <r>   21.4956    0.0000 </r>
      </set>
      <set comment="kpoint 8">
       <r>   -1.8943    1.0000 </r>
       <r>    5.5290    0.9963 </r>
       <r>    6.3078    0.0000 </r>
       <r>    6.3197    0.0000 </r>
       <r>    8.3666    0.0000 </r>
       <r>    9.0098    0.0000 </r>
       <r>   19.0531    0.0000 </r>
       <r>   19.1035    0.0000 </r>
       <r>   21.1702    0.0000 </r>
      </set>
      <set comment="kpoint 9">
       <r>   -1.1576    1.0000 </r>
       <r>    4.9051    1.0000 </r>
       <r>    6.6838    0.0000 </r>
       <r>    6.7566    0.0000 </r>
       <r>    7.6413    0.0000 </r>
       <r>    9.3230    0.0000 </r>
       <r>   19.0520    0.0000 </r>
       <r>   20.4654    0.0000 </r>
       <r>   20.9119    0.0000 </r>
      </set>
      <set comment="kpoint 10">
       <r>    0.1100    1.0000 </r>
       <r>    4.2819    1.0000 </r>
       <r>    6.0835    0.0000 </r>
       <r>    7.3029    0.0000 </r>
       <r>    8.0072    0.0000 </r>
       <r>   10.0231    0.0000 </r>
       <r>   19.0467    0.0000 </r>
       <r>   19.6933    0.0000 </r>
       <r>   22.4620    0.0000 </r>
      </set>
      <set comment="kpoint 11">
       <r>    1.4830    1.0000 </r>
       <r>    4.3055    1.0000 </r>
       <r>    5.2916    1.0000 </r>
       <r>    6.9656    0.0000 </r>
       <r>    9.7932    0.0000 </r>
       <r>   11.3834    0.0000 </r>
       <r>   16.9753    0.0000 </r>
       <r>   19.0569    0.0000 </r>
       <r>   20.4005    0.0000 </r>
      </set>
      <set comment="kpoint 12">
       <r>    1.9463    1.0000 </r>
       <r>    4.4700    1.0000 </r>
       <r>    5.6787   -0.0045 </r>
       <r>    6.6331    0.0000 </r>
       <r>   10.9318    0.0000 </r>
       <r>   12.4176    0.0000 </r>
       <r>   14.5856    0.0000 </r>
       <r>   19.0556    0.0000 </r>
       <r>   19.5715    0.0000 </r>
      </set>
      <set comment="kpoint 13">
       <r>    1.7968    1.0000 </r>
       <r>    4.6352    1.0000 </r>
       <r>    5.2071    1.0000 </r>
       <r>    6.7240    0.0000 </r>
       <r>    9.7759    0.0000 </r>
       <r>   12.1552    0.0000 </r>
       <r>   16.1103    0.0000 </r>
       <r>   19.0565    0.0000 </r>
       <r>   20.0084    0.0000 </r>
      </set>
      <set comment="kpoint 14">
       <r>    0.6526    1.0000 </r>
       <r>    4.3835    1.0000 </r>
       <r>    5.7237   -0.0001 </r>
       <r>    7.1926    0.0000 </r>
       <r>    8.0324    0.0000 </r>
       <r>   10.7566    0.0000 </r>
       <r>   18.7575    0.0000 </r>
       <r>   19.0723    0.0000 </r>
       <r>   22.0105    0.0000 </r>
      </set>
      <set comment="kpoint 15">
       <r>   -0.8267    1.0000 </r>
       <r>    4.8612    1.0000 </r>
       <r>    6.4509    0.0000 </r>
       <r>    6.7828    0.0000 </r>
       <r>    7.8767    0.0000 </r>
       <r>    9.3837    0.0000 </r>
       <r>   19.0491    0.0000 </r>
       <r>   19.6862    0.0000 </r>
       <r>   21.1104    0.0000 </r>
      </set>
      <set comment="kpoint 16">
       <r>    0.8015    1.0000 </r>
       <r>    3.5496    1.0000 </r>
       <r>    5.9356    0.0000 </r>
       <r>    8.2407    0.0000 </r>
       <r>    8.6027    0.0000 </r>
       <r>   10.2571    0.0000 </r>
       <r>   19.0495    0.0000 </r>
       <r>   20.7349    0.0000 </r>
       <r>   21.8002    0.0000 </r>
      </set>
      <set comment="kpoint 17">
       <r>    1.7153    1.0000 </r>
       <r>    3.2336    1.0000 </r>
       <r>    5.5619    0.6396 </r>
       <r>    8.7634    0.0000 </r>
       <r>    9.8919    0.0000 </r>
       <r>   11.4503    0.0000 </r>
       <r>   17.7884    0.0000 </r>
       <r>   19.0584    0.0000 </r>
       <r>   19.9823    0.0000 </r>
      </set>
      <set comment="kpoint 18">
       <r>    2.4801    1.0000 </r>
       <r>    3.4968    1.0000 </r>
       <r>    5.3531    1.0000 </r>
       <r>    8.1763    0.0000 </r>
       <r>   11.0305    0.0000 </r>
       <r>   13.3578    0.0000 </r>
       <r>   14.2985    0.0000 </r>
       <r>   19.0518    0.0000 </r>
       <r>   19.9021    0.0000 </r>
      </set>
      <set comment="kpoint 19">
       <r>    3.1165    1.0000 </r>
       <r>    3.6786    1.0000 </r>
       <r>    4.8931    1.0000 </r>
       <r>    7.7262    0.0000 </r>
       <r>    9.9960    0.0000 </r>
       <r>   12.5175    0.0000 </r>
       <r>   16.5960    0.0000 </r>
       <r>   18.6989    0.0000 </r>
       <r>   19.0605    0.0000 </r>
      </set>
      <set comment="kpoint 20">
       <r>    2.1678    1.0000 </r>
       <r>    4.3499    1.0000 </r>
       <r>    4.6957    1.0000 </r>
       <r>    7.3261    0.0000 </r>
       <r>    8.9215    0.0000 </r>
       <r>   12.3647    0.0000 </r>
       <r>   17.1023    0.0000 </r>
       <r>   19.0581    0.0000 </r>
       <r>   20.7344    0.0000 </r>
      </set>
      <set comment="kpoint 21">
       <r>    0.6900    1.0000 </r>
       <r>    4.6139    1.0000 </r>
       <r>    5.8412    0.0000 </r>
       <r>    6.5965    0.0000 </r>
       <r>    8.9811    0.0000 </r>
       <r>   10.5759    0.0000 </r>
       <r>   17.6251    0.0000 </r>
       <r>   19.0554    0.0000 </r>
       <r>   20.8162    0.0000 </r>
      </set>
      <set comment="kpoint 22">
       <r>    1.4916    1.0000 </r>
       <r>    2.6379    1.0000 </r>
       <r>    7.0130    0.0000 </r>
       <r>   10.1956    0.0000 </r>
       <r>   10.9943    0.0000 </r>
       <r>   11.2597    0.0000 </r>
       <r>   17.1997    0.0000 </r>
       <r>   18.1489    0.0000 </r>
       <r>   19.0367    0.0000 </r>
      </set>
      <set comment="kpoint 23">
       <r>    1.7437    1.0000 </r>
       <r>    2.7155    1.0000 </r>
       <r>    7.0557    0.0000 </r>
       <r>    9.9641    0.0000 </r>
       <r>   11.6041    0.0000 </r>
       <r>   13.0171    0.0000 </r>
       <r>   15.0168    0.0000 </r>
       <r>   17.1934    0.0000 </r>
       <r>   19.0122    0.0000 </r>
      </set>
      <set comment="kpoint 24">
       <r>    2.4873    1.0000 </r>
       <r>    3.3631    1.0000 </r>
       <r>    5.7614    0.0000 </r>
       <r>    8.5968    0.0000 </r>
       <r>   10.9670    0.0000 </r>
       <r>   13.1470    0.0000 </r>
       <r>   15.0893    0.0000 </r>
       <r>   18.4574    0.0000 </r>
       <r>   19.0648    0.0000 </r>
      </set>
      <set comment="kpoint 25">
       <r>    2.5732    1.0000 </r>
       <r>    3.9554    1.0000 </r>
       <r>    5.3149    1.0000 </r>
       <r>    7.2021    0.0000 </r>
       <r>   10.5147    0.0000 </r>
       <r>   12.8375    0.0000 </r>
       <r>   14.8863    0.0000 </r>
       <r>   19.0548    0.0000 </r>
       <r>   20.1987    0.0000 </r>
      </set>
      <set comment="kpoint 26">
       <r>    1.4153    1.0000 </r>
       <r>    5.0805    1.0000 </r>
       <r>    5.8093    0.0000 </r>
       <r>    6.2198    0.0000 </r>
       <r>   10.6696    0.0000 </r>
       <r>   11.6880    0.0000 </r>
       <r>   15.3844    0.0000 </r>
       <r>   18.7366    0.0000 </r>
       <r>   19.0580    0.0000 </r>
      </set>
      <set comment="kpoint 27">
       <r>    1.4201    1.0000 </r>
       <r>    2.4452    1.0000 </r>
       <r>    7.9083    0.0000 </r>
       <r>   10.8159    0.0000 </r>
       <r>   11.6849    0.0000 </r>
       <r>   12.0362    0.0000 </r>
       <r>   15.8610    0.0000 </r>
       <r>   16.9488    0.0000 </r>
       <r>   18.1038    0.0000 </r>
      </set>
      <set comment="kpoint 28">
       <r>    1.8212    1.0000 </r>
       <r>    2.8915    1.0000 </r>
       <r>    6.2793    0.0000 </r>
       <r>    9.5438    0.0000 </r>
       <r>   10.9546    0.0000 </r>
       <r>   12.1968    0.0000 </r>
       <r>   16.1338    0.0000 </r>
       <r>   18.3119    0.0000 </r>
       <r>   19.0529    0.0000 </r>
      </set>
      <set comment="kpoint 29">
       <r>    2.1630    1.0000 </r>
       <r>    3.8566    1.0000 </r>
       <r>    5.0867    1.0000 </r>
       <r>    7.5370    0.0000 </r>
       <r>   10.7292    0.0000 </r>
       <r>   12.1534    0.0000 </r>
       <r>   15.6147    0.0000 </r>
       <r>   19.0556    0.0000 </r>
       <r>   20.7660    0.0000 </r>
      </set>
      <set comment="kpoint 30">
       <r>    1.3987    1.0000 </r>
       <r>    3.0135    1.0000 </r>
       <r>    6.1117    0.0000 </r>
       <r>    9.2189    0.0000 </r>
       <r>    9.7396    0.0000 </r>
       <r>   10.7741    0.0000 </r>
       <r>   19.0003    0.0000 </r>
       <r>   19.1459    0.0000 </r>
       <r>   19.9236    0.0000 </r>
      </set>
      <set comment="kpoint 31">
       <r>    1.0832    1.0000 </r>
       <r>    3.7134    1.0000 </r>
       <r>    5.5518    0.7904 </r>
       <r>    7.9645    0.0000 </r>
       <r>    8.8087    0.0000 </r>
       <r>   10.7387    0.0000 </r>
       <r>   19.0281    0.0000 </r>
       <r>   19.3256    0.0000 </r>
       <r>   21.8074    0.0000 </r>
      </set>
      <set comment="kpoint 32">
       <r>   -0.1809    1.0000 </r>
       <r>    4.2046    1.0000 </r>
       <r>    6.4448    0.0000 </r>
       <r>    7.4033    0.0000 </r>
       <r>    7.7161    0.0000 </r>
       <r>    9.7542    0.0000 </r>
       <r>   19.0511    0.0000 </r>
       <r>   20.9082    0.0000 </r>
       <r>   22.4146    0.0000 </r>
      </set>
      <set comment="kpoint 33">
       <r>   -1.1887    1.0000 </r>
       <r>    5.1775    1.0000 </r>
       <r>    6.4408    0.0000 </r>
       <r>    6.4408    0.0000 </r>
       <r>    8.6733    0.0000 </r>
       <r>    8.6733    0.0000 </r>
       <r>   18.9917    0.0000 </r>
       <r>   19.0799    0.0000 </r>
       <r>   20.7193    0.0000 </r>
      </set>
      <set comment="kpoint 34">
       <r>   -0.1986    1.0000 </r>
       <r>    4.6927    1.0000 </r>
       <r>    6.1980    0.0000 </r>
       <r>    6.9433    0.0000 </r>
       <r>    7.7996    0.0000 </r>
       <r>    9.9181    0.0000 </r>
       <r>   19.0027    0.0000 </r>
       <r>   19.1236    0.0000 </r>
       <r>   21.8508    0.0000 </r>
      </set>
      <set comment="kpoint 35">
       <r>    1.3715    1.0000 </r>
       <r>    4.4290    1.0000 </r>
       <r>    5.2960    1.0000 </r>
       <r>    7.0834    0.0000 </r>
       <r>    8.2849    0.0000 </r>
       <r>   11.6603    0.0000 </r>
       <r>   17.9943    0.0000 </r>
       <r>   19.0609    0.0000 </r>
       <r>   21.2367    0.0000 </r>
      </set>
      <set comment="kpoint 36">
       <r>    2.1559    1.0000 </r>
       <r>    4.4343    1.0000 </r>
       <r>    5.3428    1.0000 </r>
       <r>    6.7952    0.0000 </r>
       <r>   10.0756    0.0000 </r>
       <r>   12.5191    0.0000 </r>
       <r>   15.4773    0.0000 </r>
       <r>   19.0560    0.0000 </r>
       <r>   20.1428    0.0000 </r>
      </set>
      <set comment="kpoint 37">
       <r>    2.0273    1.0000 </r>
       <r>    4.1998    1.0000 </r>
       <r>    5.4254    1.0002 </r>
       <r>    6.9522    0.0000 </r>
       <r>   11.2865    0.0000 </r>
       <r>   11.9960    0.0000 </r>
       <r>   14.8500    0.0000 </r>
       <r>   19.0553    0.0000 </r>
       <r>   20.0093    0.0000 </r>
      </set>
      <set comment="kpoint 38">
       <r>    1.2296    1.0000 </r>
       <r>    3.9246    1.0000 </r>
       <r>    5.4484    1.0015 </r>
       <r>    7.3633    0.0000 </r>
       <r>    9.6183    0.0000 </r>
       <r>   10.7637    0.0000 </r>
       <r>   18.0854    0.0000 </r>
       <r>   19.0602    0.0000 </r>
       <r>   21.2565    0.0000 </r>
      </set>
      <set comment="kpoint 39">
       <r>    0.3126    1.0000 </r>
       <r>    4.4049    1.0000 </r>
       <r>    5.9964    0.0000 </r>
       <r>    6.8662    0.0000 </r>
       <r>    8.6959    0.0000 </r>
       <r>   10.0461    0.0000 </r>
       <r>   18.5276    0.0000 </r>
       <r>   19.0603    0.0000 </r>
       <r>   21.7749    0.0000 </r>
      </set>
      <set comment="kpoint 40">
       <r>    1.5823    1.0000 </r>
       <r>    4.0091    1.0000 </r>
       <r>    5.0912    1.0000 </r>
       <r>    7.6443    0.0000 </r>
       <r>    8.7966    0.0000 </r>
       <r>   11.6124    0.0000 </r>
       <r>   18.0249    0.0000 </r>
       <r>   19.0617    0.0000 </r>
       <r>   21.4280    0.0000 </r>
      </set>
      <set comment="kpoint 41">
       <r>    2.8994    1.0000 </r>
       <r>    3.9501    1.0000 </r>
       <r>    4.4066    1.0000 </r>
       <r>    7.7972    0.0000 </r>
       <r>    9.8070    0.0000 </r>
       <r>   12.7483    0.0000 </r>
       <r>   16.4324    0.0000 </r>
       <r>   19.0546    0.0000 </r>
       <r>   19.3083    0.0000 </r>
      </set>
      <set comment="kpoint 42">
       <r>    3.0017    1.0000 </r>
       <r>    3.5984    1.0000 </r>
       <r>    5.0020    1.0000 </r>
       <r>    7.6864    0.0000 </r>
       <r>   10.6419    0.0000 </r>
       <r>   13.9748    0.0000 </r>
       <r>   14.1181    0.0000 </r>
       <r>   19.0523    0.0000 </r>
       <r>   19.8783    0.0000 </r>
      </set>
      <set comment="kpoint 43">
       <r>    2.2788    1.0000 </r>
       <r>    3.6433    1.0000 </r>
       <r>    4.8287    1.0000 </r>
       <r>    8.2724    0.0000 </r>
       <r>    9.8033    0.0000 </r>
       <r>   12.3519    0.0000 </r>
       <r>   16.7544    0.0000 </r>
       <r>   19.0567    0.0000 </r>
       <r>   19.7818    0.0000 </r>
      </set>
      <set comment="kpoint 44">
       <r>    1.8844    1.0000 </r>
       <r>    3.4718    1.0000 </r>
       <r>    5.3606    1.0000 </r>
       <r>    8.0347    0.0000 </r>
       <r>   10.9334    0.0000 </r>
       <r>   11.2884    0.0000 </r>
       <r>   16.5960    0.0000 </r>
       <r>   19.0561    0.0000 </r>
       <r>   21.1737    0.0000 </r>
      </set>
      <set comment="kpoint 45">
       <r>    2.4142    1.0000 </r>
       <r>    3.3682    1.0000 </r>
       <r>    5.2877    1.0000 </r>
       <r>    8.7400    0.0000 </r>
       <r>   10.7956    0.0000 </r>
       <r>   13.1142    0.0000 </r>
       <r>   15.6177    0.0000 </r>
       <r>   18.2341    0.0000 </r>
       <r>   19.0567    0.0000 </r>
      </set>
      <set comment="kpoint 46">
       <r>    2.8761    1.0000 </r>
       <r>    3.9317    1.0000 </r>
       <r>    4.8682    1.0000 </r>
       <r>    7.7630    0.0000 </r>
       <r>   11.5424    0.0000 </r>
       <r>   14.4045    0.0000 </r>
       <r>   15.2330    0.0000 </r>
       <r>   16.8139    0.0000 </r>
       <r>   19.0573    0.0000 </r>
      </set>
      <set comment="kpoint 47">
       <r>    3.0741    1.0000 </r>
       <r>    3.8586    1.0000 </r>
       <r>    4.4893    1.0000 </r>
       <r>    7.9856    0.0000 </r>
       <r>   10.7410    0.0000 </r>
       <r>   13.3769    0.0000 </r>
       <r>   15.8123    0.0000 </r>
       <r>   18.0425    0.0000 </r>
       <r>   19.0577    0.0000 </r>
      </set>
      <set comment="kpoint 48">
       <r>    2.0006    1.0000 </r>
       <r>    2.9636    1.0000 </r>
       <r>    6.5627    0.0000 </r>
       <r>    9.4524    0.0000 </r>
       <r>   11.2923    0.0000 </r>
       <r>   13.5616    0.0000 </r>
       <r>   14.0849    0.0000 </r>
       <r>   18.8013    0.0000 </r>
       <r>   19.0881    0.0000 </r>
      </set>
      <set comment="kpoint 49">
       <r>    2.3134    1.0000 </r>
       <r>    3.2316    1.0000 </r>
       <r>    5.9370    0.0000 </r>
       <r>    8.7322    0.0000 </r>
       <r>   11.5558    0.0000 </r>
       <r>   14.0789    0.0000 </r>
       <r>   14.7603    0.0000 </r>
       <r>   17.0779    0.0000 </r>
       <r>   19.0548    0.0000 </r>
      </set>
      <set comment="kpoint 50">
       <r>    2.0529    1.0000 </r>
       <r>    3.1318    1.0000 </r>
       <r>    5.9201    0.0000 </r>
       <r>    8.8042    0.0000 </r>
       <r>   11.4535    0.0000 </r>
       <r>   12.4666    0.0000 </r>
       <r>   14.9335    0.0000 </r>
       <r>   19.0511    0.0000 </r>
       <r>   19.6651    0.0000 </r>
      </set>
      <set comment="kpoint 51">
       <r>    0.3169    1.0000 </r>
       <r>    4.9331    1.0000 </r>
       <r>    6.2334    0.0000 </r>
       <r>    6.2334    0.0000 </r>
       <r>    9.5881    0.0000 </r>
       <r>    9.5881    0.0000 </r>
       <r>   17.0434    0.0000 </r>
       <r>   19.0529    0.0000 </r>
       <r>   20.6804    0.0000 </r>
      </set>
      <set comment="kpoint 52">
       <r>    1.1991    1.0000 </r>
       <r>    4.7940    1.0000 </r>
       <r>    5.5553    0.7418 </r>
       <r>    6.4837    0.0000 </r>
       <r>    9.2000    0.0000 </r>
       <r>   11.4339    0.0000 </r>
       <r>   16.9751    0.0000 </r>
       <r>   19.0554    0.0000 </r>
       <r>   19.9994    0.0000 </r>
      </set>
      <set comment="kpoint 53">
       <r>    2.6968    1.0000 </r>
       <r>    4.1740    1.0000 </r>
       <r>    4.7263    1.0000 </r>
       <r>    7.3617    0.0000 </r>
       <r>    9.3274    0.0000 </r>
       <r>   12.5506    0.0000 </r>
       <r>   16.7385    0.0000 </r>
       <r>   19.0568    0.0000 </r>
       <r>   19.6994    0.0000 </r>
      </set>
      <set comment="kpoint 54">
       <r>    2.7963    1.0000 </r>
       <r>    3.5624    1.0000 </r>
       <r>    5.3953    1.0000 </r>
       <r>    8.1712    0.0000 </r>
       <r>   10.4148    0.0000 </r>
       <r>   12.3872    0.0000 </r>
       <r>   16.1635    0.0000 </r>
       <r>   18.5393    0.0000 </r>
       <r>   19.0632    0.0000 </r>
      </set>
      <set comment="kpoint 55">
       <r>    1.3947    1.0000 </r>
       <r>    4.7624    1.0000 </r>
       <r>    5.5615    0.6468 </r>
       <r>    6.4794    0.0000 </r>
       <r>   10.6934    0.0000 </r>
       <r>   11.1275    0.0000 </r>
       <r>   16.0236    0.0000 </r>
       <r>   19.0533    0.0000 </r>
       <r>   19.3506    0.0000 </r>
      </set>
      <set comment="kpoint 56">
       <r>    2.4364    1.0000 </r>
       <r>    4.0596    1.0000 </r>
       <r>    5.0949    1.0000 </r>
       <r>    7.2124    0.0000 </r>
       <r>   10.4276    0.0000 </r>
       <r>   12.7996    0.0000 </r>
       <r>   15.0854    0.0000 </r>
       <r>   19.0554    0.0000 </r>
       <r>   20.5388    0.0000 </r>
      </set>
      <set comment="kpoint 57">
       <r>    3.1053    1.0000 </r>
       <r>    3.6435    1.0000 </r>
       <r>    4.9243    1.0000 </r>
       <r>    7.8840    0.0000 </r>
       <r>   10.7860    0.0000 </r>
       <r>   13.2227    0.0000 </r>
       <r>   15.8333    0.0000 </r>
       <r>   18.0639    0.0000 </r>
       <r>   19.0594    0.0000 </r>
      </set>
      <set comment="kpoint 58">
       <r>    2.5574    1.0000 </r>
       <r>    3.7346    1.0000 </r>
       <r>    5.3844    1.0000 </r>
       <r>    7.5842    0.0000 </r>
       <r>   10.9368    0.0000 </r>
       <r>   12.8438    0.0000 </r>
       <r>   14.5298    0.0000 </r>
       <r>   19.0534    0.0000 </r>
       <r>   20.1029    0.0000 </r>
      </set>
      <set comment="kpoint 59">
       <r>    1.0123    1.0000 </r>
       <r>    5.8640    0.0000 </r>
       <r>    5.8640    0.0000 </r>
       <r>    5.9130    0.0000 </r>
       <r>   10.9281    0.0000 </r>
       <r>   10.9281    0.0000 </r>
       <r>   15.5738    0.0000 </r>
       <r>   17.9366    0.0000 </r>
       <r>   19.0578    0.0000 </r>
      </set>
      <set comment="kpoint 60">
       <r>    1.5951    1.0000 </r>
       <r>    4.9243    1.0000 </r>
       <r>    5.9301    0.0000 </r>
       <r>    6.2643    0.0000 </r>
       <r>   10.8322    0.0000 </r>
       <r>   12.0501    0.0000 </r>
       <r>   14.8964    0.0000 </r>
       <r>   18.8400    0.0000 </r>
       <r>   19.0562    0.0000 </r>
      </set>
     </set>
    </set>
   </array>
  </eigenvalues>
  <separator name="orbital magnetization" >
   <v name="MAGDIPOLOUT">      0.00000000      0.00000000      0.00000000</v>
  </separator>
  <dos>
   <i name="efermi">      5.57030545 </i>
   <total>
    <array>
     <dimension dim="1">gridpoints</dimension>
     <dimension dim="2">spin</dimension>
     <field>energy</field>
     <field>total</field>
     <field>integrated</field>
     <set>
      <set comment="spin 1">
       <r>    -3.5218     0.0000     0.0000 </r>
       <r>    -3.4310     0.0000     0.0000 </r>
       <r>    -3.3403     0.0000     0.0000 </r>
       <r>    -3.2495     0.0000     0.0000 </r>
       <r>    -3.1587     0.0000     0.0000 </r>
       <r>    -3.0680     0.0000     0.0000 </r>
       <r>    -2.9772     0.0000     0.0000 </r>
       <r>    -2.8864     0.0000     0.0000 </r>
       <r>    -2.7957     0.0000     0.0000 </r>
       <r>    -2.7049     0.0000     0.0000 </r>
       <r>    -2.6141     0.0000     0.0000 </r>
       <r>    -2.5234     0.0000     0.0000 </r>
       <r>    -2.4326     0.0000     0.0000 </r>
       <r>    -2.3418    -0.0012    -0.0001 </r>
       <r>    -2.2511     0.0338     0.0030 </r>
       <r>    -2.1603     0.0107     0.0039 </r>
       <r>    -2.0695    -0.0002     0.0039 </r>
       <r>    -1.9788    -0.0009     0.0038 </r>
       <r>    -1.8880     0.0430     0.0077 </r>
       <r>    -1.7972     0.0900     0.0159 </r>
       <r>    -1.7065    -0.0030     0.0156 </r>
       <r>    -1.6157    -0.0006     0.0156 </r>
       <r>    -1.5249     0.0321     0.0185 </r>
       <r>    -1.4342     0.1013     0.0277 </r>
       <r>    -1.3434    -0.0036     0.0273 </r>
       <r>    -1.2526    -0.0014     0.0272 </r>
       <r>    -1.1619     0.0528     0.0320 </r>
       <r>    -1.0711     0.1252     0.0434 </r>
       <r>    -0.9803    -0.0045     0.0430 </r>
       <r>    -0.8896    -0.0061     0.0424 </r>
       <r>    -0.7988     0.1827     0.0590 </r>
       <r>    -0.7080     0.0834     0.0666 </r>
       <r>    -0.6173    -0.0042     0.0662 </r>
       <r>    -0.5265     0.0800     0.0734 </r>
       <r>    -0.4357     0.0528     0.0782 </r>
       <r>    -0.3450    -0.0013     0.0781 </r>
       <r>    -0.2542    -0.0057     0.0776 </r>
       <r>    -0.1634     0.1735     0.0934 </r>
       <r>    -0.0727     0.0883     0.1014 </r>
       <r>     0.0181     0.1130     0.1116 </r>
       <r>     0.1089     0.0745     0.1184 </r>
       <r>     0.1996     0.2094     0.1374 </r>
       <r>     0.2904    -0.0055     0.1369 </r>
       <r>     0.3812     0.1747     0.1528 </r>
       <r>     0.4719    -0.0046     0.1523 </r>
       <r>     0.5627    -0.0014     0.1522 </r>
       <r>     0.6535     0.0579     0.1575 </r>
       <r>     0.7442     0.4542     0.1987 </r>
       <r>     0.8350     0.2043     0.2172 </r>
       <r>     0.9258     0.0604     0.2227 </r>
       <r>     1.0165     0.0160     0.2242 </r>
       <r>     1.1073     0.3181     0.2530 </r>
       <r>     1.1981     0.1587     0.2675 </r>
       <r>     1.2888     0.3299     0.2974 </r>
       <r>     1.3796     0.0413     0.3012 </r>
       <r>     1.4704     0.7478     0.3690 </r>
       <r>     1.5611     0.3822     0.4037 </r>
       <r>     1.6519     0.3736     0.4376 </r>
       <r>     1.7427     0.1959     0.4554 </r>
       <r>     1.8334     0.6320     0.5128 </r>
       <r>     1.9242     0.3225     0.5420 </r>
       <r>     2.0150     0.3363     0.5726 </r>
       <r>     2.1057     0.3012     0.5999 </r>
       <r>     2.1965     0.5108     0.6463 </r>
       <r>     2.2873     0.2392     0.6680 </r>
       <r>     2.3780     0.4180     0.7059 </r>
       <r>     2.4688     0.5687     0.7575 </r>
       <r>     2.5596     0.6826     0.8195 </r>
       <r>     2.6503     0.3735     0.8534 </r>
       <r>     2.7411     0.3610     0.8862 </r>
       <r>     2.8319     0.1733     0.9019 </r>
       <r>     2.9226     0.6250     0.9586 </r>
       <r>     3.0134     0.4639     1.0007 </r>
       <r>     3.1042     0.5009     1.0462 </r>
       <r>     3.1949     0.6608     1.1062 </r>
       <r>     3.2857     0.4954     1.1511 </r>
       <r>     3.3765     0.2393     1.1729 </r>
       <r>     3.4672     0.3191     1.2018 </r>
       <r>     3.5580     0.4261     1.2405 </r>
       <r>     3.6488     0.6036     1.2953 </r>
       <r>     3.7395     0.8446     1.3719 </r>
       <r>     3.8303     0.1645     1.3869 </r>
       <r>     3.9211     0.5731     1.4389 </r>
       <r>     4.0118     0.9227     1.5226 </r>
       <r>     4.1026     0.4042     1.5593 </r>
       <r>     4.1934     0.1277     1.5709 </r>
       <r>     4.2841     0.3834     1.6057 </r>
       <r>     4.3749     0.6406     1.6639 </r>
       <r>     4.4657     0.9427     1.7494 </r>
       <r>     4.5564     0.5305     1.7976 </r>
       <r>     4.6472     0.2835     1.8233 </r>
       <r>     4.7379     0.6210     1.8797 </r>
       <r>     4.8287     0.5160     1.9265 </r>
       <r>     4.9195     1.2239     2.0376 </r>
       <r>     5.0102     0.6324     2.0950 </r>
       <r>     5.1010     0.6901     2.1577 </r>
       <r>     5.1918     0.6425     2.2160 </r>
       <r>     5.2825     0.3181     2.2448 </r>
       <r>     5.3733     1.3712     2.3693 </r>
       <r>     5.4641     0.6698     2.4301 </r>
       <r>     5.5548     0.4447     2.4705 </r>
       <r>     5.6456     0.6874     2.5329 </r>
       <r>     5.7364     0.3435     2.5640 </r>
       <r>     5.8271     0.5725     2.6160 </r>
       <r>     5.9179     0.7099     2.6804 </r>
       <r>     6.0087     0.9238     2.7643 </r>
       <r>     6.0994     0.3202     2.7934 </r>
       <r>     6.1902     0.4509     2.8343 </r>
       <r>     6.2810     0.7889     2.9059 </r>
       <r>     6.3717     0.6052     2.9608 </r>
       <r>     6.4625     0.5729     3.0128 </r>
       <r>     6.5533     0.7169     3.0779 </r>
       <r>     6.6440     0.5468     3.1275 </r>
       <r>     6.7348     0.3987     3.1637 </r>
       <r>     6.8256     0.6266     3.2206 </r>
       <r>     6.9163     0.1748     3.2365 </r>
       <r>     7.0071     0.5063     3.2824 </r>
       <r>     7.0979     0.4491     3.3232 </r>
       <r>     7.1886     0.1511     3.3369 </r>
       <r>     7.2794     0.7352     3.4036 </r>
       <r>     7.3702     0.5458     3.4532 </r>
       <r>     7.4609     0.3482     3.4848 </r>
       <r>     7.5517     0.0999     3.4938 </r>
       <r>     7.6425     0.3420     3.5249 </r>
       <r>     7.7332     0.6918     3.5877 </r>
       <r>     7.8240     0.7606     3.6567 </r>
       <r>     7.9148     0.5788     3.7092 </r>
       <r>     8.0055     0.6316     3.7666 </r>
       <r>     8.0963     0.7781     3.8372 </r>
       <r>     8.1871     0.1227     3.8483 </r>
       <r>     8.2778     0.4557     3.8897 </r>
       <r>     8.3686     0.4821     3.9334 </r>
       <r>     8.4594     0.2242     3.9538 </r>
       <r>     8.5501    -0.0210     3.9519 </r>
       <r>     8.6409     0.3676     3.9853 </r>
       <r>     8.7317     0.4028     4.0218 </r>
       <r>     8.8224     1.1162     4.1231 </r>
       <r>     8.9132     0.4039     4.1598 </r>
       <r>     9.0040     0.4870     4.2040 </r>
       <r>     9.0947     0.2563     4.2273 </r>
       <r>     9.1855    -0.0021     4.2271 </r>
       <r>     9.2763     0.2456     4.2494 </r>
       <r>     9.3670     0.3642     4.2824 </r>
       <r>     9.4578     0.3281     4.3122 </r>
       <r>     9.5486     0.1551     4.3263 </r>
       <r>     9.6393     0.3552     4.3585 </r>
       <r>     9.7301     0.0623     4.3642 </r>
       <r>     9.8209     1.0601     4.4604 </r>
       <r>     9.9116     0.6454     4.5190 </r>
       <r>    10.0024     0.5187     4.5661 </r>
       <r>    10.0932     0.6736     4.6272 </r>
       <r>    10.1839     0.1229     4.6383 </r>
       <r>    10.2747     0.2620     4.6621 </r>
       <r>    10.3655     0.0554     4.6672 </r>
       <r>    10.4562     0.2978     4.6942 </r>
       <r>    10.5470     0.4221     4.7325 </r>
       <r>    10.6378     0.3663     4.7657 </r>
       <r>    10.7285     0.6697     4.8265 </r>
       <r>    10.8193     1.6502     4.9763 </r>
       <r>    10.9101     0.3520     5.0083 </r>
       <r>    11.0008     1.1103     5.1090 </r>
       <r>    11.0916     0.4349     5.1485 </r>
       <r>    11.1824     0.2388     5.1702 </r>
       <r>    11.2731     0.1975     5.1881 </r>
       <r>    11.3639     0.5762     5.2404 </r>
       <r>    11.4547     0.4231     5.2788 </r>
       <r>    11.5454     0.4511     5.3198 </r>
       <r>    11.6362     0.7604     5.3888 </r>
       <r>    11.7270     0.6190     5.4450 </r>
       <r>    11.8177     0.0479     5.4493 </r>
       <r>    11.9085    -0.0019     5.4491 </r>
       <r>    11.9993     0.0303     5.4519 </r>
       <r>    12.0900     0.3291     5.4818 </r>
       <r>    12.1808     0.3938     5.5175 </r>
       <r>    12.2716     0.4188     5.5555 </r>
       <r>    12.3623     0.1418     5.5684 </r>
       <r>    12.4531     0.7188     5.6336 </r>
       <r>    12.5439     0.4395     5.6735 </r>
       <r>    12.6346     0.2471     5.6960 </r>
       <r>    12.7254    -0.0073     5.6953 </r>
       <r>    12.8162     0.4001     5.7316 </r>
       <r>    12.9069     0.5164     5.7785 </r>
       <r>    12.9977     0.0021     5.7787 </r>
       <r>    13.0885     0.2473     5.8011 </r>
       <r>    13.1792     0.4383     5.8409 </r>
       <r>    13.2700     0.3099     5.8690 </r>
       <r>    13.3608     0.1135     5.8793 </r>
       <r>    13.4515     0.4408     5.9194 </r>
       <r>    13.5423    -0.0119     5.9183 </r>
       <r>    13.6331     0.1298     5.9301 </r>
       <r>    13.7238    -0.0040     5.9297 </r>
       <r>    13.8146     0.0000     5.9297 </r>
       <r>    13.9054    -0.0046     5.9293 </r>
       <r>    13.9961     0.1523     5.9431 </r>
       <r>    14.0869     0.2481     5.9656 </r>
       <r>    14.1777     0.5164     6.0125 </r>
       <r>    14.2684    -0.0131     6.0113 </r>
       <r>    14.3592     0.2553     6.0345 </r>
       <r>    14.4500     0.2373     6.0560 </r>
       <r>    14.5407     0.0739     6.0627 </r>
       <r>    14.6315     0.3221     6.0919 </r>
       <r>    14.7223     0.0115     6.0930 </r>
       <r>    14.8130     0.2456     6.1153 </r>
       <r>    14.9038     0.3233     6.1446 </r>
       <r>    14.9946     0.3485     6.1763 </r>
       <r>    15.0853     0.3731     6.2101 </r>
       <r>    15.1761     0.4456     6.2506 </r>
       <r>    15.2669     0.2860     6.2765 </r>
       <r>    15.3576     0.0519     6.2812 </r>
[...]
       </set>
       <set comment="band 2">
        <r>  0.0001 </r>
       </set>
       <set comment="band 3">
        <r>  0.0229 </r>
       </set>
       <set comment="band 4">
        <r>  0.0000 </r>
       </set>
       <set comment="band 5">
        <r>  0.0073 </r>
       </set>
       <set comment="band 6">
        <r>  0.0000 </r>
       </set>
       <set comment="band 7">
        <r> 43.7810 </r>
       </set>
       <set comment="band 8">
        <r>  0.1703 </r>
       </set>
       <set comment="band 9">
        <r>  0.0038 </r>
       </set>
      </set>
      <set comment="kpoint 33">
       <set comment="band 1">
        <r>  0.7270 </r>
       </set>
       <set comment="band 2">
        <r>  0.0023 </r>
       </set>
       <set comment="band 3">
        <r>  0.0000 </r>
       </set>
       <set comment="band 4">
        <r>  0.0000 </r>
       </set>
       <set comment="band 5">
        <r>  0.0000 </r>
       </set>
       <set comment="band 6">
        <r>  0.0000 </r>
       </set>
       <set comment="band 7">
        <r> 12.5404 </r>
       </set>
       <set comment="band 8">
        <r> 31.3887 </r>
       </set>
       <set comment="band 9">
        <r>  0.0748 </r>
       </set>
      </set>
      <set comment="kpoint 34">
       <set comment="band 1">
        <r>  0.6538 </r>
       </set>
       <set comment="band 2">
        <r>  0.0015 </r>
       </set>
       <set comment="band 3">
        <r>  0.0001 </r>
       </set>
       <set comment="band 4">
        <r>  0.0000 </r>
       </set>
       <set comment="band 5">
        <r>  0.0000 </r>
       </set>
       <set comment="band 6">
        <r>  0.0105 </r>
       </set>
       <set comment="band 7">
        <r> 24.2126 </r>
       </set>
       <set comment="band 8">
        <r> 19.7924 </r>
       </set>
       <set comment="band 9">
        <r>  0.0344 </r>
       </set>
      </set>
      <set comment="kpoint 35">
       <set comment="band 1">
        <r>  0.5011 </r>
       </set>
       <set comment="band 2">
        <r>  0.0047 </r>
       </set>
       <set comment="band 3">
        <r>  0.0016 </r>
       </set>
       <set comment="band 4">
        <r>  0.0000 </r>
       </set>
       <set comment="band 5">
        <r>  0.0000 </r>
       </set>
       <set comment="band 6">
        <r>  0.0471 </r>
       </set>
       <set comment="band 7">
        <r>  0.2036 </r>
       </set>
       <set comment="band 8">
        <r> 44.0252 </r>
       </set>
       <set comment="band 9">
        <r>  0.0802 </r>
       </set>
      </set>
      <set comment="kpoint 36">
       <set comment="band 1">
        <r>  0.2962 </r>
       </set>
       <set comment="band 2">
        <r>  0.0009 </r>
       </set>
       <set comment="band 3">
        <r>  0.0102 </r>
       </set>
       <set comment="band 4">
        <r>  0.0000 </r>
       </set>
       <set comment="band 5">
        <r>  0.0000 </r>
       </set>
       <set comment="band 6">
        <r>  0.1604 </r>
       </set>
       <set comment="band 7">
        <r>  0.3090 </r>
       </set>
       <set comment="band 8">
        <r> 44.0774 </r>
       </set>
       <set comment="band 9">
        <r>  0.0002 </r>
       </set>
      </set>
      <set comment="kpoint 37">
       <set comment="band 1">
        <r>  0.2804 </r>
       </set>
       <set comment="band 2">
        <r>  0.0004 </r>
       </set>
       <set comment="band 3">
        <r>  0.0356 </r>
       </set>
       <set comment="band 4">
        <r>  0.0000 </r>
       </set>
       <set comment="band 5">
        <r>  0.0000 </r>
       </set>
       <set comment="band 6">
        <r>  0.0002 </r>
       </set>
       <set comment="band 7">
        <r>  0.4491 </r>
       </set>
       <set comment="band 8">
        <r> 44.0357 </r>
       </set>
       <set comment="band 9">
        <r>  0.0481 </r>
       </set>
      </set>
      <set comment="kpoint 38">
       <set comment="band 1">
        <r>  0.4632 </r>
       </set>
       <set comment="band 2">
        <r>  0.0066 </r>
       </set>
       <set comment="band 3">
        <r>  0.0407 </r>
       </set>
       <set comment="band 4">
        <r>  0.0000 </r>
       </set>
       <set comment="band 5">
        <r>  0.0199 </r>
       </set>
       <set comment="band 6">
        <r>  0.0000 </r>
       </set>
       <set comment="band 7">
        <r>  0.2017 </r>
       </set>
       <set comment="band 8">
        <r> 43.9448 </r>
       </set>
       <set comment="band 9">
        <r>  0.1078 </r>
       </set>
      </set>
      <set comment="kpoint 39">
       <set comment="band 1">
        <r>  0.5922 </r>
       </set>
       <set comment="band 2">
        <r>  0.0070 </r>
       </set>
       <set comment="band 3">
        <r>  0.0079 </r>
       </set>
       <set comment="band 4">
        <r>  0.0000 </r>
       </set>
       <set comment="band 5">
        <r>  0.0126 </r>
       </set>
       <set comment="band 6">
        <r>  0.0000 </r>
       </set>
       <set comment="band 7">
        <r>  0.3738 </r>
       </set>
       <set comment="band 8">
        <r> 43.6249 </r>
       </set>
       <set comment="band 9">
        <r>  0.1491 </r>
       </set>
      </set>
      <set comment="kpoint 40">
       <set comment="band 1">
        <r>  0.4540 </r>
       </set>
       <set comment="band 2">
        <r>  0.0025 </r>
       </set>
       <set comment="band 3">
        <r>  0.0240 </r>
       </set>
       <set comment="band 4">
        <r>  0.0042 </r>
       </set>
       <set comment="band 5">
        <r>  0.0024 </r>
       </set>
       <set comment="band 6">
        <r>  0.0394 </r>
       </set>
       <set comment="band 7">
        <r>  0.2196 </r>
       </set>
       <set comment="band 8">
        <r> 44.0200 </r>
       </set>
       <set comment="band 9">
        <r>  0.0112 </r>
       </set>
      </set>
      <set comment="kpoint 41">
       <set comment="band 1">
        <r>  0.2455 </r>
       </set>
       <set comment="band 2">
        <r>  0.0123 </r>
       </set>
       <set comment="band 3">
        <r>  0.0281 </r>
       </set>
       <set comment="band 4">
        <r>  0.0015 </r>
       </set>
       <set comment="band 5">
        <r>  0.0021 </r>
       </set>
       <set comment="band 6">
        <r>  0.2349 </r>
       </set>
       <set comment="band 7">
        <r>  0.2133 </r>
       </set>
       <set comment="band 8">
        <r> 43.6166 </r>
       </set>
       <set comment="band 9">
        <r>  0.4929 </r>
       </set>
      </set>
      <set comment="kpoint 42">
       <set comment="band 1">
        <r>  0.1506 </r>
       </set>
       <set comment="band 2">
        <r>  0.0163 </r>
       </set>
       <set comment="band 3">
        <r>  0.0137 </r>
       </set>
       <set comment="band 4">
        <r>  0.0171 </r>
       </set>
       <set comment="band 5">
        <r>  0.0603 </r>
       </set>
       <set comment="band 6">
        <r>  0.0210 </r>
       </set>
       <set comment="band 7">
        <r>  0.4621 </r>
       </set>
       <set comment="band 8">
        <r> 43.7427 </r>
       </set>
       <set comment="band 9">
        <r>  0.4109 </r>
       </set>
      </set>
      <set comment="kpoint 43">
       <set comment="band 1">
        <r>  0.2723 </r>
       </set>
       <set comment="band 2">
        <r>  0.0002 </r>
       </set>
       <set comment="band 3">
        <r>  0.0851 </r>
       </set>
       <set comment="band 4">
        <r>  0.0011 </r>
       </set>
       <set comment="band 5">
        <r>  0.0001 </r>
       </set>
       <set comment="band 6">
        <r>  0.0838 </r>
       </set>
       <set comment="band 7">
        <r>  0.2463 </r>
       </set>
       <set comment="band 8">
        <r> 44.0151 </r>
       </set>
       <set comment="band 9">
        <r>  0.0685 </r>
       </set>
      </set>
      <set comment="kpoint 44">
       <set comment="band 1">
        <r>  0.2866 </r>
       </set>
       <set comment="band 2">
        <r>  0.0019 </r>
       </set>
       <set comment="band 3">
        <r>  0.1002 </r>
       </set>
       <set comment="band 4">
        <r>  0.0000 </r>
       </set>
       <set comment="band 5">
        <r>  0.0201 </r>
       </set>
       <set comment="band 6">
        <r>  0.0000 </r>
       </set>
       <set comment="band 7">
        <r>  0.2532 </r>
       </set>
       <set comment="band 8">
        <r> 43.9978 </r>
       </set>
       <set comment="band 9">
        <r>  0.1104 </r>
       </set>
      </set>
      <set comment="kpoint 45">
       <set comment="band 1">
        <r>  0.1177 </r>
       </set>
       <set comment="band 2">
        <r>  0.0006 </r>
       </set>
       <set comment="band 3">
        <r>  0.1009 </r>
       </set>
       <set comment="band 4">
        <r>  0.0106 </r>
       </set>
       <set comment="band 5">
        <r>  0.0073 </r>
       </set>
       <set comment="band 6">
        <r>  0.1344 </r>
       </set>
       <set comment="band 7">
        <r>  0.3086 </r>
       </set>
       <set comment="band 8">
        <r>  0.0460 </r>
       </set>
       <set comment="band 9">
        <r> 43.9866 </r>
       </set>
      </set>
      <set comment="kpoint 46">
       <set comment="band 1">
        <r>  0.0132 </r>
       </set>
       <set comment="band 2">
        <r>  0.0134 </r>
       </set>
       <set comment="band 3">
        <r>  0.0174 </r>
       </set>
       <set comment="band 4">
        <r>  0.1530 </r>
       </set>
       <set comment="band 5">
        <r>  0.0070 </r>
       </set>
       <set comment="band 6">
        <r>  0.4343 </r>
       </set>
       <set comment="band 7">
        <r>  0.0247 </r>
       </set>
       <set comment="band 8">
        <r>  0.1020 </r>
       </set>
       <set comment="band 9">
        <r> 44.1323 </r>
       </set>
      </set>
      <set comment="kpoint 47">
       <set comment="band 1">
        <r>  0.0478 </r>
       </set>
       <set comment="band 2">
        <r>  0.0504 </r>
       </set>
       <set comment="band 3">
        <r>  0.0607 </r>
       </set>
       <set comment="band 4">
        <r>  0.0480 </r>
       </set>
       <set comment="band 5">
        <r>  0.0162 </r>
       </set>
       <set comment="band 6">
        <r>  0.3212 </r>
       </set>
       <set comment="band 7">
        <r>  0.1682 </r>
       </set>
       <set comment="band 8">
        <r>  0.0547 </r>
       </set>
       <set comment="band 9">
        <r> 44.0826 </r>
       </set>
      </set>
      <set comment="kpoint 48">
       <set comment="band 1">
        <r>  0.0967 </r>
       </set>
       <set comment="band 2">
        <r>  0.0005 </r>
       </set>
       <set comment="band 3">
        <r>  0.0175 </r>
       </set>
       <set comment="band 4">
        <r>  0.0000 </r>
       </set>
       <set comment="band 5">
        <r>  0.0000 </r>
       </set>
       <set comment="band 6">
        <r>  0.3063 </r>
       </set>
       <set comment="band 7">
        <r>  0.1637 </r>
       </set>
       <set comment="band 8">
        <r>  3.7597 </r>
       </set>
       <set comment="band 9">
        <r> 40.5739 </r>
       </set>
      </set>
      <set comment="kpoint 49">
       <set comment="band 1">
        <r>  0.0675 </r>
       </set>
       <set comment="band 2">
        <r>  0.0010 </r>
       </set>
       <set comment="band 3">
        <r>  0.0210 </r>
       </set>
       <set comment="band 4">
        <r>  0.0819 </r>
       </set>
       <set comment="band 5">
        <r>  0.0060 </r>
       </set>
       <set comment="band 6">
        <r>  0.1050 </r>
       </set>
       <set comment="band 7">
        <r>  0.3514 </r>
       </set>
       <set comment="band 8">
        <r>  0.0797 </r>
       </set>
       <set comment="band 9">
        <r> 43.7878 </r>
       </set>
      </set>
      <set comment="kpoint 50">
       <set comment="band 1">
        <r>  0.1488 </r>
       </set>
       <set comment="band 2">
        <r>  0.0000 </r>
       </set>
       <set comment="band 3">
        <r>  0.0958 </r>
       </set>
       <set comment="band 4">
        <r>  0.0000 </r>
       </set>
       <set comment="band 5">
        <r>  0.0000 </r>
       </set>
       <set comment="band 6">
        <r>  0.0041 </r>
       </set>
       <set comment="band 7">
        <r>  0.3975 </r>
       </set>
       <set comment="band 8">
        <r> 43.6576 </r>
       </set>
       <set comment="band 9">
        <r>  0.0364 </r>
       </set>
      </set>
      <set comment="kpoint 51">
       <set comment="band 1">
        <r>  0.5615 </r>
       </set>
       <set comment="band 2">
        <r>  0.0273 </r>
       </set>
       <set comment="band 3">
        <r>  0.0000 </r>
       </set>
       <set comment="band 4">
        <r>  0.0000 </r>
       </set>
       <set comment="band 5">
        <r>  0.0000 </r>
       </set>
       <set comment="band 6">
        <r>  0.0000 </r>
       </set>
       <set comment="band 7">
        <r>  0.0995 </r>
       </set>
       <set comment="band 8">
        <r> 43.7878 </r>
       </set>
       <set comment="band 9">
        <r>  0.3712 </r>
       </set>
      </set>
      <set comment="kpoint 52">
       <set comment="band 1">
        <r>  0.4587 </r>
       </set>
       <set comment="band 2">
        <r>  0.0248 </r>
       </set>
       <set comment="band 3">
        <r>  0.0045 </r>
       </set>
       <set comment="band 4">
        <r>  0.0000 </r>
       </set>
       <set comment="band 5">
        <r>  0.0000 </r>
       </set>
       <set comment="band 6">
        <r>  0.0274 </r>
       </set>
       <set comment="band 7">
        <r>  0.1987 </r>
       </set>
       <set comment="band 8">
        <r> 43.8853 </r>
       </set>
       <set comment="band 9">
        <r>  0.2738 </r>
       </set>
      </set>
      <set comment="kpoint 53">
       <set comment="band 1">
        <r>  0.3011 </r>
       </set>
       <set comment="band 2">
        <r>  0.0000 </r>
       </set>
       <set comment="band 3">
        <r>  0.0056 </r>
       </set>
       <set comment="band 4">
        <r>  0.0000 </r>
       </set>
       <set comment="band 5">
        <r>  0.0000 </r>
       </set>
       <set comment="band 6">
        <r>  0.2591 </r>
       </set>
       <set comment="band 7">
        <r>  0.1866 </r>
       </set>
       <set comment="band 8">
        <r> 44.0510 </r>
       </set>
       <set comment="band 9">
        <r>  0.0673 </r>
       </set>
      </set>
      <set comment="kpoint 54">
       <set comment="band 1">
        <r>  0.1094 </r>
       </set>
       <set comment="band 2">
        <r>  0.0193 </r>
       </set>
       <set comment="band 3">
        <r>  0.0039 </r>
       </set>
       <set comment="band 4">
        <r>  0.0000 </r>
       </set>
       <set comment="band 5">
        <r>  0.0000 </r>
       </set>
       <set comment="band 6">
        <r>  0.4890 </r>
       </set>
       <set comment="band 7">
        <r>  0.0630 </r>
       </set>
       <set comment="band 8">
        <r>  0.3870 </r>
       </set>
       <set comment="band 9">
        <r> 43.8086 </r>
       </set>
      </set>
      <set comment="kpoint 55">
       <set comment="band 1">
        <r>  0.3827 </r>
       </set>
       <set comment="band 2">
        <r>  0.0129 </r>
       </set>
       <set comment="band 3">
        <r>  0.0271 </r>
       </set>
       <set comment="band 4">
        <r>  0.0000 </r>
       </set>
       <set comment="band 5">
        <r>  0.0090 </r>
       </set>
       <set comment="band 6">
        <r>  0.0000 </r>
       </set>
       <set comment="band 7">
        <r>  0.3130 </r>
       </set>
       <set comment="band 8">
        <r> 43.3641 </r>
       </set>
       <set comment="band 9">
        <r>  0.7698 </r>
       </set>
      </set>
      <set comment="kpoint 56">
       <set comment="band 1">
        <r>  0.2606 </r>
       </set>
       <set comment="band 2">
        <r>  0.0001 </r>
       </set>
       <set comment="band 3">
        <r>  0.0239 </r>
       </set>
       <set comment="band 4">
        <r>  0.0002 </r>
       </set>
       <set comment="band 5">
        <r>  0.0132 </r>
       </set>
       <set comment="band 6">
        <r>  0.1135 </r>
       </set>
       <set comment="band 7">
        <r>  0.3520 </r>
       </set>
       <set comment="band 8">
        <r> 44.0434 </r>
       </set>
       <set comment="band 9">
        <r>  0.0002 </r>
       </set>
      </set>
      <set comment="kpoint 57">
       <set comment="band 1">
        <r>  0.0298 </r>
       </set>
       <set comment="band 2">
        <r>  0.0735 </r>
       </set>
       <set comment="band 3">
        <r>  0.0021 </r>
       </set>
       <set comment="band 4">
        <r>  0.0705 </r>
       </set>
       <set comment="band 5">
        <r>  0.0209 </r>
       </set>
       <set comment="band 6">
        <r>  0.4187 </r>
       </set>
       <set comment="band 7">
        <r>  0.0685 </r>
       </set>
       <set comment="band 8">
        <r>  0.1083 </r>
       </set>
       <set comment="band 9">
        <r> 44.1072 </r>
       </set>
      </set>
      <set comment="kpoint 58">
       <set comment="band 1">
        <r>  0.1824 </r>
       </set>
       <set comment="band 2">
        <r>  0.0038 </r>
       </set>
       <set comment="band 3">
        <r>  0.0235 </r>
       </set>
       <set comment="band 4">
        <r>  0.0000 </r>
       </set>
       <set comment="band 5">
        <r>  0.0000 </r>
       </set>
       <set comment="band 6">
        <r>  0.2381 </r>
       </set>
       <set comment="band 7">
        <r>  0.2982 </r>
       </set>
       <set comment="band 8">
        <r> 43.9040 </r>
       </set>
       <set comment="band 9">
        <r>  0.2031 </r>
       </set>
      </set>
      <set comment="kpoint 59">
       <set comment="band 1">
        <r>  0.3753 </r>
       </set>
       <set comment="band 2">
        <r>  0.0000 </r>
       </set>
       <set comment="band 3">
        <r>  0.0000 </r>
       </set>
       <set comment="band 4">
        <r>  0.0212 </r>
       </set>
       <set comment="band 5">
        <r>  0.0000 </r>
       </set>
       <set comment="band 6">
        <r>  0.0000 </r>
       </set>
       <set comment="band 7">
        <r>  0.3683 </r>
       </set>
       <set comment="band 8">
        <r>  0.0314 </r>
       </set>
       <set comment="band 9">
        <r> 44.1276 </r>
       </set>
      </set>
      <set comment="kpoint 60">
       <set comment="band 1">
        <r>  0.3150 </r>
       </set>
       <set comment="band 2">
        <r>  0.0003 </r>
       </set>
       <set comment="band 3">
        <r>  0.0014 </r>
       </set>
       <set comment="band 4">
        <r>  0.0000 </r>
       </set>
       <set comment="band 5">
        <r>  0.0000 </r>
       </set>
       <set comment="band 6">
        <r>  0.0221 </r>
       </set>
       <set comment="band 7">
        <r>  0.4597 </r>
       </set>
       <set comment="band 8">
        <r>  0.0122 </r>
       </set>
       <set comment="band 9">
        <r> 44.0856 </r>
       </set>
      </set>
     </set>
    </set>
   </array>
  </projected>
 </calculation>
 <structure name="finalpos" >
  <crystal>
   <varray name="basis" >
    <v>       0.00000000       2.12500000       2.12500000 </v>
    <v>       2.12500000       0.00000000       2.12500000 </v>
    <v>       2.12500000       2.12500000       0.00000000 </v>
   </varray>
   <i name="volume">     19.19140625 </i>
   <varray name="rec_basis" >
    <v>      -0.23529412       0.23529412       0.23529412 </v>
    <v>       0.23529412      -0.23529412       0.23529412 </v>
    <v>       0.23529412       0.23529412      -0.23529412 </v>
   </varray>
  </crystal>
  <varray name="positions" >
   <v>       0.00000000       0.00000000       0.00000000 </v>
  </varray>
 </structure>
</modeling>
