   1   1   1   0
  0.1813235E+02  0.2866544E-09  0.2866544E-09  0.2866544E-09  0.5000000E-15
  1.000000000000000E-004
  CAR 
 unknown system                          
     16.46237842     -2.84838040  301      5.67602874      1.00000000
     -2.848  0.0000E+00  0.0000E+00  0.0000E+00  0.0000E+00
     -2.784  0.0000E+00  0.0000E+00  0.0000E+00  0.0000E+00
     -2.720  0.0000E+00  0.0000E+00  0.0000E+00  0.0000E+00
     -2.655  0.0000E+00  0.0000E+00  0.0000E+00  0.0000E+00
     -2.591  0.0000E+00  0.0000E+00  0.0000E+00  0.0000E+00
     -2.527  0.0000E+00  0.0000E+00  0.0000E+00  0.0000E+00
     -2.462  0.0000E+00  0.0000E+00  0.0000E+00  0.0000E+00
     -2.398 -0.8739E-34 -0.4481E-32 -0.5625E-35 -0.2885E-33
     -2.333 -0.9165E-25 -0.2595E-23 -0.5900E-26 -0.1670E-24
     -2.269 -0.3391E-17 -0.5290E-16 -0.2182E-18 -0.3405E-17
     -2.205 -0.4184E-11 -0.3570E-10 -0.2694E-12 -0.2298E-11
     -2.140 -0.1759E-06 -0.8127E-06 -0.1133E-07 -0.5232E-07
     -2.076 -0.2178E-03 -0.5193E-03 -0.1403E-04 -0.3348E-04
     -2.012 -0.2525E-02  0.1004E-02 -0.1766E-03  0.3115E-04
     -1.947  0.6764E-01  0.7894E-01  0.4177E-02  0.5113E-02
     -1.883  0.3079E-01  0.1530E-01  0.6159E-02  0.6097E-02
     -1.818 -0.2442E-02 -0.1503E-02  0.6002E-02  0.6000E-02
     -1.754 -0.2371E-04 -0.6851E-05  0.6000E-02  0.6000E-02
     -1.690 -0.1733E-04 -0.5665E-04  0.5999E-02  0.5996E-02
     -1.625 -0.2621E-02 -0.3841E-02  0.5830E-02  0.5749E-02
     -1.561  0.3013E-01  0.5314E-01  0.7770E-02  0.9169E-02
     -1.497  0.9890E-01  0.7937E-01  0.1414E-01  0.1428E-01
     -1.432 -0.1655E-02 -0.4151E-02  0.1403E-01  0.1401E-01
     -1.368 -0.4539E-03 -0.1785E-03  0.1400E-01  0.1400E-01
     -1.304 -0.1048E-04 -0.3767E-04  0.1400E-01  0.1400E-01
     -1.239 -0.3733E-02 -0.6894E-02  0.1376E-01  0.1355E-01
     -1.175  0.2718E-01  0.7487E-01  0.1551E-01  0.1837E-01
     -1.110  0.3271E+00  0.3075E+00  0.3656E-01  0.3817E-01
     -1.046  0.2597E-01 -0.9007E-03  0.3824E-01  0.3811E-01
     -0.982 -0.3649E-02 -0.1697E-02  0.3800E-01  0.3800E-01
     -0.917 -0.9526E-05 -0.2251E-05  0.3800E-01  0.3800E-01
     -0.853 -0.6648E-09 -0.8495E-10  0.3800E-01  0.3800E-01
     -0.789 -0.1490E-14 -0.8279E-16  0.3800E-01  0.3800E-01
     -0.724 -0.6310E-16 -0.9135E-15  0.3800E-01  0.3800E-01
     -0.660 -0.5572E-10 -0.4500E-09  0.3800E-01  0.3800E-01
     -0.595 -0.1668E-05 -0.7267E-05  0.3800E-01  0.3800E-01
     -0.531 -0.1435E-02 -0.3186E-02  0.3791E-01  0.3779E-01
     -0.467 -0.4812E-02  0.1789E-01  0.3760E-01  0.3895E-01
     -0.402  0.3028E+00  0.3393E+00  0.5709E-01  0.6079E-01
     -0.338  0.1677E+00  0.1149E+00  0.6788E-01  0.6818E-01
     -0.274  0.3042E-02 -0.2223E-02  0.6808E-01  0.6804E-01
     -0.209 -0.1286E-02 -0.7421E-03  0.6800E-01  0.6799E-01
     -0.145 -0.7084E-02 -0.1083E-01  0.6754E-01  0.6729E-01
     -0.081  0.7781E-01  0.1438E+00  0.7255E-01  0.7655E-01
     -0.016  0.3056E+00  0.2524E+00  0.9222E-01  0.9280E-01
      0.048 -0.2029E-02 -0.1246E-01  0.9209E-01  0.9200E-01
      0.113 -0.1406E-01 -0.1211E-01  0.9118E-01  0.9122E-01
      0.177  0.1860E+00  0.2567E+00  0.1032E+00  0.1077E+00
      0.241  0.2127E+00  0.1390E+00  0.1168E+00  0.1167E+00
      0.306 -0.1282E-01 -0.1059E-01  0.1160E+00  0.1160E+00
      0.370 -0.3715E-03 -0.1233E-03  0.1160E+00  0.1160E+00
      0.434 -0.1717E-06 -0.3013E-07  0.1160E+00  0.1160E+00
      0.499 -0.2410E-11 -0.2299E-12  0.1160E+00  0.1160E+00
      0.563 -0.3029E-14 -0.3944E-13  0.1160E+00  0.1160E+00
      0.628 -0.1140E-08 -0.8016E-08  0.1160E+00  0.1160E+00
      0.692 -0.1384E-04 -0.5182E-04  0.1160E+00  0.1160E+00
      0.756 -0.4511E-02 -0.8250E-02  0.1157E+00  0.1155E+00
      0.821  0.2020E-01  0.6694E-01  0.1170E+00  0.1198E+00
      0.885  0.5208E+00  0.6289E+00  0.1505E+00  0.1603E+00
      0.949  0.5980E+00  0.4577E+00  0.1890E+00  0.1897E+00
      1.014 -0.1320E-01 -0.2559E-01  0.1882E+00  0.1881E+00
      1.078 -0.2756E-02 -0.1397E-02  0.1880E+00  0.1880E+00
      1.143 -0.1538E-01 -0.2357E-01  0.1870E+00  0.1865E+00
      1.207  0.1516E+00  0.3045E+00  0.1968E+00  0.2061E+00
      1.271  0.9162E+00  0.8395E+00  0.2557E+00  0.2601E+00
      1.336  0.7640E-01  0.2642E-02  0.2607E+00  0.2603E+00
      1.400 -0.2347E-01 -0.1492E-01  0.2591E+00  0.2593E+00
      1.464  0.1968E+00  0.2624E+00  0.2718E+00  0.2762E+00
      1.529  0.3295E+00  0.3321E+00  0.2930E+00  0.2976E+00
      1.593  0.3309E+00  0.2966E+00  0.3143E+00  0.3167E+00
      1.657  0.9542E-01  0.5742E-01  0.3205E+00  0.3204E+00
      1.722 -0.7067E-02 -0.5537E-02  0.3200E+00  0.3200E+00
      1.786 -0.2061E-02 -0.4540E-02  0.3199E+00  0.3197E+00
      1.851 -0.2568E-01 -0.4679E-03  0.3182E+00  0.3197E+00
      1.915  0.5802E+00  0.7421E+00  0.3556E+00  0.3675E+00
      1.979  0.9373E+00  0.8901E+00  0.4159E+00  0.4247E+00
      2.044  0.8267E+00  0.8189E+00  0.4691E+00  0.4775E+00
      2.108  0.5107E+00  0.4061E+00  0.5020E+00  0.5036E+00
      2.172  0.2784E+00  0.3144E+00  0.5199E+00  0.5238E+00
      2.237  0.2043E+00  0.1723E+00  0.5331E+00  0.5349E+00
      2.301  0.4721E+00  0.5843E+00  0.5635E+00  0.5725E+00
      2.366  0.6512E+00  0.6059E+00  0.6054E+00  0.6115E+00
      2.430  0.3385E+00  0.2374E+00  0.6272E+00  0.6268E+00
      2.494  0.1506E-01  0.4818E-01  0.6281E+00  0.6299E+00
      2.559  0.3248E+00  0.3114E+00  0.6490E+00  0.6500E+00
      2.623  0.4797E-02 -0.1018E-01  0.6493E+00  0.6493E+00
      2.687  0.1897E+00  0.2240E+00  0.6616E+00  0.6637E+00
      2.752  0.3190E+00  0.4291E+00  0.6821E+00  0.6914E+00
      2.816  0.1436E+01  0.1546E+01  0.7745E+00  0.7909E+00
      2.880  0.1078E+01  0.8915E+00  0.8439E+00  0.8483E+00
      2.945  0.6229E+00  0.6518E+00  0.8840E+00  0.8902E+00
      3.009  0.2577E+00  0.1623E+00  0.9006E+00  0.9007E+00
      3.074 -0.9133E-02  0.1600E-01  0.9000E+00  0.9017E+00
      3.138  0.7403E+00  0.9328E+00  0.9477E+00  0.9617E+00
      3.202  0.9085E+00  0.7429E+00  0.1006E+01  0.1010E+01
      3.267  0.4002E+00  0.3684E+00  0.1032E+01  0.1033E+01
      3.331  0.3783E-01  0.1475E-01  0.1034E+01  0.1034E+01
      3.395 -0.5880E-02 -0.4973E-02  0.1034E+01  0.1034E+01
      3.460  0.5869E-03  0.1383E-01  0.1034E+01  0.1035E+01
      3.524  0.1039E+00  0.1075E+00  0.1041E+01  0.1042E+01
      3.589  0.9415E-02 -0.7905E-02  0.1041E+01  0.1041E+01
      3.653  0.1700E+00  0.2283E+00  0.1052E+01  0.1056E+01
      3.717  0.4272E+00  0.4723E+00  0.1080E+01  0.1086E+01
      3.782  0.7368E+00  0.7041E+00  0.1127E+01  0.1132E+01
      3.846  0.2755E+00  0.2416E+00  0.1145E+01  0.1147E+01
      3.910  0.2740E+00  0.2428E+00  0.1163E+01  0.1163E+01
      3.975 -0.8251E-02 -0.1461E-01  0.1162E+01  0.1162E+01
      4.039  0.1877E-02  0.2276E-01  0.1162E+01  0.1163E+01
      4.103  0.1279E+00  0.1478E+00  0.1170E+01  0.1173E+01
      4.168  0.6703E+00  0.9440E+00  0.1213E+01  0.1234E+01
      4.232  0.1412E+01  0.1140E+01  0.1304E+01  0.1307E+01
      4.297  0.2382E+00  0.3761E+00  0.1320E+01  0.1331E+01
      4.361  0.1263E+01  0.1459E+01  0.1401E+01  0.1425E+01
      4.425  0.2195E+01  0.2056E+01  0.1542E+01  0.1557E+01
      4.490  0.5467E+00  0.3917E+00  0.1577E+01  0.1583E+01
      4.554  0.5909E+00  0.6270E+00  0.1616E+01  0.1623E+01
      4.618  0.9048E+00  0.9742E+00  0.1674E+01  0.1686E+01
      4.683  0.6830E+00  0.5746E+00  0.1718E+01  0.1723E+01
      4.747  0.2262E+00  0.2486E+00  0.1732E+01  0.1739E+01
      4.812  0.7116E+00  0.7298E+00  0.1778E+01  0.1786E+01
      4.876  0.6502E+00  0.6905E+00  0.1820E+01  0.1830E+01
      4.940  0.1196E+01  0.1332E+01  0.1897E+01  0.1916E+01
      5.005  0.1535E+01  0.1439E+01  0.1996E+01  0.2008E+01
      5.069  0.4381E+00  0.2329E+00  0.2024E+01  0.2023E+01
      5.133 -0.4760E-01 -0.5207E-01  0.2021E+01  0.2020E+01
      5.198  0.1481E+00  0.3320E+00  0.2030E+01  0.2041E+01
      5.262  0.1454E+01  0.1577E+01  0.2124E+01  0.2143E+01
      5.327  0.1361E+01  0.1292E+01  0.2212E+01  0.2226E+01
      5.391  0.1092E+01  0.1004E+01  0.2282E+01  0.2291E+01
      5.455  0.3921E+00  0.2973E+00  0.2307E+01  0.2310E+01
      5.520  0.4528E+00  0.5205E+00  0.2336E+01  0.2343E+01
      5.584  0.5946E+00  0.7348E+00  0.2374E+01  0.2391E+01
      5.648  0.1622E+01  0.1515E+01  0.2479E+01  0.2488E+01
      5.713  0.6794E+00  0.7361E+00  0.2523E+01  0.2536E+01
      5.777  0.9105E+00  0.7826E+00  0.2581E+01  0.2586E+01
      5.841  0.8055E-01 -0.5455E-02  0.2586E+01  0.2586E+01
      5.906 -0.7663E-02  0.7507E-01  0.2586E+01  0.2590E+01
      5.970  0.8714E+00  0.9798E+00  0.2642E+01  0.2654E+01
      6.035  0.5270E+00  0.3992E+00  0.2676E+01  0.2679E+01
      6.099  0.5231E+00  0.6579E+00  0.2710E+01  0.2722E+01
      6.163  0.8933E+00  0.8378E+00  0.2767E+01  0.2775E+01
      6.228  0.4164E+00  0.3027E+00  0.2794E+01  0.2795E+01
      6.292  0.1003E-02 -0.2060E-01  0.2794E+01  0.2794E+01
      6.356  0.3251E-01  0.8266E-01  0.2796E+01  0.2799E+01
      6.421  0.2586E+00  0.2610E+00  0.2813E+01  0.2816E+01
      6.485  0.8410E-01  0.3013E-01  0.2818E+01  0.2818E+01
      6.550  0.4424E-01  0.1183E+00  0.2821E+01  0.2825E+01
      6.614  0.3747E+00  0.3424E+00  0.2845E+01  0.2847E+01
      6.678  0.1147E+00  0.1256E+00  0.2852E+01  0.2855E+01
      6.743  0.3031E+00  0.2631E+00  0.2872E+01  0.2872E+01
      6.807 -0.1690E-01  0.1366E-01  0.2871E+01  0.2873E+01
      6.871  0.5317E+00  0.6264E+00  0.2905E+01  0.2914E+01
      6.936  0.2574E+00  0.1512E+00  0.2922E+01  0.2923E+01
      7.000  0.3394E+00  0.4250E+00  0.2944E+01  0.2951E+01
      7.064  0.3835E+00  0.2846E+00  0.2968E+01  0.2969E+01
      7.129 -0.5585E-02 -0.1948E-01  0.2968E+01  0.2968E+01
      7.193  0.8961E-01  0.1417E+00  0.2974E+01  0.2977E+01
      7.258  0.4033E+00  0.4082E+00  0.3000E+01  0.3003E+01
      7.322  0.1015E+00  0.7939E-01  0.3006E+01  0.3008E+01
      7.386  0.3573E+00  0.3983E+00  0.3029E+01  0.3034E+01
      7.451  0.1016E+00  0.4411E-01  0.3036E+01  0.3037E+01
      7.515  0.4175E+00  0.5261E+00  0.3063E+01  0.3071E+01
      7.579  0.3686E+00  0.2889E+00  0.3086E+01  0.3089E+01
      7.644  0.3079E+00  0.2941E+00  0.3106E+01  0.3108E+01
      7.708  0.3413E-01  0.3775E-03  0.3108E+01  0.3108E+01
      7.773 -0.4267E-02 -0.1819E-02  0.3108E+01  0.3108E+01
      7.837 -0.1355E-04 -0.4465E-05  0.3108E+01  0.3108E+01
      7.901 -0.7423E-03 -0.1710E-02  0.3108E+01  0.3108E+01
      7.966 -0.2125E-01 -0.1740E-01  0.3107E+01  0.3107E+01
      8.030  0.3454E+00  0.4752E+00  0.3129E+01  0.3137E+01
      8.094  0.6990E+00  0.6128E+00  0.3174E+01  0.3177E+01
      8.159  0.6870E+00  0.8515E+00  0.3218E+01  0.3232E+01
      8.223  0.5659E+00  0.3450E+00  0.3254E+01  0.3254E+01
      8.287 -0.4770E-01 -0.4465E-01  0.3251E+01  0.3251E+01
      8.352  0.9545E-01  0.1917E+00  0.3258E+01  0.3263E+01
      8.416  0.6324E+00  0.5726E+00  0.3298E+01  0.3300E+01
      8.481  0.1749E+00  0.2277E+00  0.3309E+01  0.3315E+01
      8.545  0.3106E+00  0.3049E+00  0.3329E+01  0.3334E+01
      8.609  0.3946E+00  0.4040E+00  0.3355E+01  0.3360E+01
      8.674  0.8410E+00  0.8754E+00  0.3409E+01  0.3417E+01
      8.738  0.5906E+00  0.5465E+00  0.3447E+01  0.3452E+01
      8.802  0.1425E+00  0.9793E-01  0.3456E+01  0.3458E+01
      8.867  0.4789E+00  0.5868E+00  0.3487E+01  0.3496E+01
      8.931  0.9067E+00  0.8868E+00  0.3545E+01  0.3553E+01
      8.996  0.5070E+00  0.4593E+00  0.3578E+01  0.3583E+01
      9.060  0.2524E+00  0.2960E+00  0.3594E+01  0.3602E+01
      9.124  0.8214E+00  0.8746E+00  0.3647E+01  0.3658E+01
      9.189  0.1194E+01  0.1162E+01  0.3724E+01  0.3733E+01
      9.253  0.5372E+00  0.3966E+00  0.3759E+01  0.3758E+01
      9.317  0.8154E-01  0.1875E+00  0.3764E+01  0.3770E+01
      9.382  0.1008E+01  0.1027E+01  0.3829E+01  0.3837E+01
      9.446  0.5296E+00  0.4667E+00  0.3863E+01  0.3867E+01
      9.511  0.5778E+00  0.6232E+00  0.3900E+01  0.3907E+01
      9.575  0.3922E+00  0.2817E+00  0.3925E+01  0.3925E+01
      9.639  0.1969E-01  0.7398E-01  0.3927E+01  0.3930E+01
      9.704  0.5544E+00  0.5770E+00  0.3962E+01  0.3967E+01
      9.768  0.7677E+00  0.8088E+00  0.4012E+01  0.4019E+01
      9.832  0.6447E+00  0.5842E+00  0.4053E+01  0.4056E+01
      9.897  0.1430E+00  0.8401E-01  0.4062E+01  0.4062E+01
      9.961  0.3887E-01  0.1156E+00  0.4065E+01  0.4069E+01
     10.025  0.7291E+00  0.7638E+00  0.4112E+01  0.4118E+01
     10.090  0.1099E+01  0.1117E+01  0.4183E+01  0.4190E+01
     10.154  0.5079E+00  0.4101E+00  0.4215E+01  0.4217E+01
     10.219  0.4441E+00  0.4795E+00  0.4244E+01  0.4248E+01
     10.283  0.4360E+00  0.5025E+00  0.4272E+01  0.4280E+01
     10.347  0.7016E+00  0.6223E+00  0.4317E+01  0.4320E+01
     10.412  0.8678E+00  0.1062E+01  0.4373E+01  0.4388E+01
     10.476  0.1696E+01  0.1549E+01  0.4482E+01  0.4488E+01
     10.540  0.1072E+01  0.1300E+01  0.4551E+01  0.4572E+01
     10.605  0.1760E+01  0.1606E+01  0.4664E+01  0.4675E+01
     10.669  0.1662E+01  0.1788E+01  0.4771E+01  0.4790E+01
     10.734  0.2249E+01  0.2233E+01  0.4916E+01  0.4934E+01
     10.798  0.1342E+01  0.1237E+01  0.5003E+01  0.5014E+01
     10.862  0.1120E+01  0.1104E+01  0.5075E+01  0.5085E+01
     10.927  0.6084E+00  0.5213E+00  0.5114E+01  0.5118E+01
     10.991  0.4191E+00  0.3737E+00  0.5141E+01  0.5142E+01
     11.055  0.9621E-02 -0.7660E-02  0.5141E+01  0.5142E+01
     11.120  0.2232E+00  0.2943E+00  0.5156E+01  0.5161E+01
     11.184  0.1583E+00  0.8392E-01  0.5166E+01  0.5166E+01
     11.248  0.2389E+00  0.2862E+00  0.5181E+01  0.5185E+01
     11.313  0.1509E+00  0.1206E+00  0.5191E+01  0.5192E+01
     11.377  0.1434E+00  0.1422E+00  0.5200E+01  0.5201E+01
     11.442  0.1385E+00  0.1734E+00  0.5209E+01  0.5213E+01
     11.506  0.1452E+00  0.9099E-01  0.5219E+01  0.5218E+01
     11.570 -0.1212E-01 -0.1410E-01  0.5218E+01  0.5218E+01
     11.635  0.2444E-01  0.7670E-01  0.5219E+01  0.5222E+01
     11.699  0.3144E+00  0.2950E+00  0.5240E+01  0.5241E+01
     11.763  0.2232E+00  0.2636E+00  0.5254E+01  0.5258E+01
     11.828  0.2000E+00  0.1276E+00  0.5267E+01  0.5267E+01
     11.892 -0.1530E-01 -0.1478E-01  0.5266E+01  0.5266E+01
     11.957  0.9697E-02  0.4107E-01  0.5266E+01  0.5268E+01
     12.021  0.3219E+00  0.3246E+00  0.5287E+01  0.5289E+01
     12.085  0.4871E-01  0.1462E-01  0.5290E+01  0.5290E+01
     12.150 -0.6342E-02 -0.5690E-02  0.5290E+01  0.5290E+01
     12.214 -0.1153E-01  0.8560E-02  0.5289E+01  0.5290E+01
     12.278  0.3358E+00  0.3938E+00  0.5311E+01  0.5316E+01
     12.343  0.1553E+00  0.7391E-01  0.5321E+01  0.5320E+01
     12.407 -0.1227E-01 -0.7590E-02  0.5320E+01  0.5320E+01
     12.471 -0.9268E-02 -0.1253E-01  0.5319E+01  0.5319E+01
     12.536  0.1116E+00  0.1877E+00  0.5327E+01  0.5331E+01
     12.600  0.2473E+00  0.1643E+00  0.5343E+01  0.5342E+01
     12.665  0.3586E+00  0.6565E+00  0.5366E+01  0.5384E+01
     12.729  0.1467E+01  0.1293E+01  0.5460E+01  0.5467E+01
     12.793  0.4774E+00  0.4690E+00  0.5491E+01  0.5498E+01
     12.858  0.5975E+00  0.6044E+00  0.5529E+01  0.5536E+01
     12.922  0.8292E+00  0.9244E+00  0.5583E+01  0.5596E+01
     12.986  0.5698E+00  0.3494E+00  0.5619E+01  0.5618E+01
     13.051  0.1447E+00  0.2997E+00  0.5629E+01  0.5638E+01
     13.115  0.5878E+00  0.4642E+00  0.5666E+01  0.5668E+01
     13.180 -0.3485E-02 -0.2331E-01  0.5666E+01  0.5666E+01
     13.244 -0.3141E-02 -0.1115E-02  0.5666E+01  0.5666E+01
     13.308 -0.4543E-05 -0.7480E-06  0.5666E+01  0.5666E+01
     13.373 -0.1217E-06 -0.8734E-06  0.5666E+01  0.5666E+01
     13.437 -0.1749E-03 -0.5400E-03  0.5666E+01  0.5666E+01
     13.501 -0.2881E-02  0.1225E-02  0.5666E+01  0.5666E+01
     13.566  0.6053E-01  0.7130E-01  0.5670E+01  0.5671E+01
     13.630  0.5923E-01  0.1070E+00  0.5674E+01  0.5678E+01
     13.695  0.3240E+00  0.2930E+00  0.5694E+01  0.5696E+01
     13.759  0.2299E-01 -0.6280E-02  0.5696E+01  0.5696E+01
     13.823  0.1226E+00  0.1508E+00  0.5704E+01  0.5706E+01
     13.888  0.5887E-01  0.2725E-01  0.5708E+01  0.5707E+01
     13.952  0.1811E+00  0.2506E+00  0.5719E+01  0.5724E+01
     14.016  0.2121E+00  0.1419E+00  0.5733E+01  0.5733E+01
     14.081 -0.1282E-01 -0.1074E-01  0.5732E+01  0.5732E+01
     14.145 -0.3689E-03 -0.1293E-03  0.5732E+01  0.5732E+01
     14.209 -0.5621E-05 -0.3247E-04  0.5732E+01  0.5732E+01
     14.274 -0.2962E-02 -0.7303E-02  0.5732E+01  0.5732E+01
     14.338  0.5059E-02  0.6688E-01  0.5732E+01  0.5736E+01
     14.403  0.4559E+00  0.4760E+00  0.5761E+01  0.5766E+01
     14.467  0.8498E-01 -0.2312E-02  0.5767E+01  0.5766E+01
     14.531  0.3364E+00  0.5095E+00  0.5789E+01  0.5799E+01
     14.596  0.7722E+00  0.6415E+00  0.5838E+01  0.5840E+01
     14.660  0.6094E-01  0.5200E-01  0.5842E+01  0.5844E+01
     14.724  0.9180E-01  0.7023E-01  0.5848E+01  0.5848E+01
     14.789 -0.1838E-02 -0.4280E-02  0.5848E+01  0.5848E+01
     14.853 -0.2108E-02 -0.3825E-02  0.5848E+01  0.5848E+01
     14.918 -0.1960E-01  0.2586E-02  0.5847E+01  0.5848E+01
     14.982  0.5019E+00  0.5857E+00  0.5879E+01  0.5886E+01
     15.046  0.4636E+00  0.4733E+00  0.5909E+01  0.5916E+01
     15.111  0.5627E+00  0.4597E+00  0.5945E+01  0.5946E+01
     15.175 -0.1577E-01 -0.3087E-01  0.5944E+01  0.5944E+01
     15.239  0.1036E-01  0.5630E-01  0.5945E+01  0.5947E+01
     15.304  0.3123E+00  0.3050E+00  0.5965E+01  0.5967E+01
     15.368  0.2029E+00  0.2387E+00  0.5978E+01  0.5982E+01
     15.432  0.2334E+00  0.1624E+00  0.5993E+01  0.5993E+01
     15.497 -0.1447E-01 -0.1526E-01  0.5992E+01  0.5992E+01
     15.561  0.1986E-01  0.4596E-01  0.5993E+01  0.5995E+01
     15.626  0.1053E+00  0.8574E-01  0.6000E+01  0.6000E+01
     15.690  0.1339E-02 -0.3805E-02  0.6000E+01  0.6000E+01
     15.754 -0.6924E-03 -0.2366E-03  0.6000E+01  0.6000E+01
     15.819 -0.1084E-05 -0.1660E-06  0.6000E+01  0.6000E+01
     15.883 -0.4760E-10 -0.3459E-11  0.6000E+01  0.6000E+01
     15.947 -0.8279E-16  0.0000E+00  0.6000E+01  0.6000E+01
     16.012  0.0000E+00  0.0000E+00  0.6000E+01  0.6000E+01
     16.076  0.0000E+00  0.0000E+00  0.6000E+01  0.6000E+01
     16.141  0.0000E+00  0.0000E+00  0.6000E+01  0.6000E+01
     16.205  0.0000E+00  0.0000E+00  0.6000E+01  0.6000E+01
     16.269  0.0000E+00  0.0000E+00  0.6000E+01  0.6000E+01
     16.334  0.0000E+00  0.0000E+00  0.6000E+01  0.6000E+01
     16.398  0.0000E+00  0.0000E+00  0.6000E+01  0.6000E+01
     16.462  0.0000E+00  0.0000E+00  0.6000E+01  0.6000E+01
     16.46237842     -2.84838040  301      5.67602874      1.00000000
     -2.848  0.0000E+00  0.0000E+00  0.0000E+00  0.0000E+00  0.0000E+00  0.0000E+00  0.0000E+00  0.0000E+00  0.0000E+00  0.0000E+00  0.0000E+00  0.0000E+00  0.0000E+00  0.0000E+00  0.0000E+00  0.0000E+00  0.0000E+00  0.0000E+00
     -2.784  0.0000E+00  0.0000E+00  0.0000E+00  0.0000E+00  0.0000E+00  0.0000E+00  0.0000E+00  0.0000E+00  0.0000E+00  0.0000E+00  0.0000E+00  0.0000E+00  0.0000E+00  0.0000E+00  0.0000E+00  0.0000E+00  0.0000E+00  0.0000E+00
     -2.720  0.0000E+00  0.0000E+00  0.0000E+00  0.0000E+00  0.0000E+00  0.0000E+00  0.0000E+00  0.0000E+00  0.0000E+00  0.0000E+00  0.0000E+00  0.0000E+00  0.0000E+00  0.0000E+00  0.0000E+00  0.0000E+00  0.0000E+00  0.0000E+00
     -2.655  0.0000E+00  0.0000E+00  0.0000E+00  0.0000E+00  0.0000E+00  0.0000E+00  0.0000E+00  0.0000E+00  0.0000E+00  0.0000E+00  0.0000E+00  0.0000E+00  0.0000E+00  0.0000E+00  0.0000E+00  0.0000E+00  0.0000E+00  0.0000E+00
     -2.591  0.0000E+00  0.0000E+00  0.0000E+00  0.0000E+00  0.0000E+00  0.0000E+00  0.0000E+00  0.0000E+00  0.0000E+00  0.0000E+00  0.0000E+00  0.0000E+00  0.0000E+00  0.0000E+00  0.0000E+00  0.0000E+00  0.0000E+00  0.0000E+00
     -2.527  0.0000E+00  0.0000E+00  0.0000E+00  0.0000E+00  0.0000E+00  0.0000E+00  0.0000E+00  0.0000E+00  0.0000E+00  0.0000E+00  0.0000E+00  0.0000E+00  0.0000E+00  0.0000E+00  0.0000E+00  0.0000E+00  0.0000E+00  0.0000E+00
     -2.462  0.0000E+00  0.0000E+00  0.0000E+00  0.0000E+00  0.0000E+00  0.0000E+00  0.0000E+00  0.0000E+00  0.0000E+00  0.0000E+00  0.0000E+00  0.0000E+00  0.0000E+00  0.0000E+00  0.0000E+00  0.0000E+00  0.0000E+00  0.0000E+00
     -2.398 -0.7370E-34 -0.3783E-32 -0.2453E-36 -0.1258E-34 -0.7360E-36 -0.3775E-34 -0.4907E-36 -0.2517E-34 -0.3625E-38 -0.1858E-36 -0.5441E-38 -0.2783E-36 -0.1360E-38 -0.6956E-37 -0.1088E-37 -0.5574E-36 -0.4531E-39 -0.2322E-37
     -2.333 -0.7730E-25 -0.2190E-23 -0.2573E-27 -0.7287E-26 -0.7720E-27 -0.2186E-25 -0.5147E-27 -0.1457E-25 -0.3802E-29 -0.1076E-27 -0.5706E-29 -0.1612E-27 -0.1427E-29 -0.4028E-28 -0.1141E-28 -0.3228E-27 -0.4753E-30 -0.1345E-28
     -2.269 -0.2860E-17 -0.4465E-16 -0.9519E-20 -0.1485E-18 -0.2856E-19 -0.4456E-18 -0.1904E-19 -0.2971E-18 -0.1407E-21 -0.2193E-20 -0.2111E-21 -0.3286E-20 -0.5278E-22 -0.8211E-21 -0.4220E-21 -0.6580E-20 -0.1758E-22 -0.2741E-21
     -2.205 -0.3529E-11 -0.3013E-10 -0.1175E-13 -0.1002E-12 -0.3524E-13 -0.3007E-12 -0.2350E-13 -0.2005E-12 -0.1736E-15 -0.1480E-14 -0.2605E-15 -0.2217E-14 -0.6514E-16 -0.5541E-15 -0.5208E-15 -0.4440E-14 -0.2170E-16 -0.1850E-15
     -2.140 -0.1484E-06 -0.6860E-06 -0.4940E-09 -0.2282E-08 -0.1482E-08 -0.6846E-08 -0.9880E-09 -0.4564E-08 -0.7299E-11 -0.3370E-10 -0.1095E-10 -0.5048E-10 -0.2739E-11 -0.1261E-10 -0.2190E-10 -0.1011E-09 -0.9124E-12 -0.4212E-11
     -2.076 -0.1837E-03 -0.4383E-03 -0.6116E-06 -0.1458E-05 -0.1835E-05 -0.4375E-05 -0.1223E-05 -0.2916E-05 -0.9037E-08 -0.2153E-07 -0.1356E-07 -0.3226E-07 -0.3391E-08 -0.8061E-08 -0.2711E-07 -0.6460E-07 -0.1130E-08 -0.2691E-08
     -2.012 -0.2130E-02  0.8475E-03 -0.7090E-05  0.2819E-05 -0.2127E-04  0.8458E-05 -0.1418E-04  0.5639E-05 -0.1048E-06  0.4163E-07 -0.1572E-06  0.6236E-07 -0.3931E-07  0.1558E-07 -0.3143E-06  0.1249E-06 -0.1309E-07  0.5203E-08
     -1.947  0.5704E-01  0.6663E-01  0.1899E-03  0.2217E-03  0.5697E-03  0.6650E-03  0.3798E-03  0.4433E-03  0.2806E-05  0.3273E-05  0.4211E-05  0.4903E-05  0.1053E-05  0.1225E-05  0.8418E-05  0.9820E-05  0.3507E-06  0.4091E-06
     -1.883  0.2596E-01  0.1291E-01  0.8643E-04  0.4295E-04  0.2593E-03  0.1289E-03  0.1729E-03  0.8590E-04  0.1277E-05  0.6342E-06  0.1917E-05  0.9501E-06  0.4793E-06  0.2374E-06  0.3831E-05  0.1903E-05  0.1596E-06  0.7927E-07
     -1.818 -0.2059E-02 -0.1269E-02 -0.6855E-05 -0.4220E-05 -0.2057E-04 -0.1266E-04 -0.1371E-04 -0.8441E-05 -0.1013E-06 -0.6232E-07 -0.1520E-06 -0.9336E-07 -0.3801E-07 -0.2333E-07 -0.3039E-06 -0.1870E-06 -0.1266E-07 -0.7790E-08
     -1.754 -0.1999E-04 -0.5782E-05 -0.6658E-07 -0.1936E-07 -0.1997E-06 -0.5809E-07 -0.1331E-06 -0.3847E-07 -0.9842E-09 -0.2884E-09 -0.1481E-08 -0.4549E-09 -0.3718E-09 -0.1232E-09 -0.2953E-08 -0.8653E-09 -0.1230E-09 -0.3605E-10
     -1.690 -0.1416E-04 -0.4632E-04 -0.1821E-06 -0.5957E-06 -0.5464E-06 -0.1787E-05 -0.9109E-07 -0.2978E-06 -0.5312E-08 -0.1738E-07 -0.3187E-07 -0.1043E-06 -0.1793E-07 -0.5867E-07 -0.1594E-07 -0.5215E-07 -0.6640E-09 -0.2173E-08
     -1.625 -0.2141E-02 -0.3140E-02 -0.2756E-04 -0.4039E-04 -0.8268E-04 -0.1212E-03 -0.1378E-04 -0.2019E-04 -0.8038E-06 -0.1179E-05 -0.4823E-05 -0.7072E-05 -0.2713E-05 -0.3978E-05 -0.2411E-05 -0.3536E-05 -0.1005E-06 -0.1473E-06
     -1.561  0.2462E-01  0.4345E-01  0.3168E-03  0.5587E-03  0.9504E-03  0.1676E-02  0.1584E-03  0.2794E-03  0.9239E-05  0.1631E-04  0.5543E-04  0.9784E-04  0.3118E-04  0.5504E-04  0.2772E-04  0.4892E-04  0.1155E-05  0.2038E-05
     -1.497  0.8080E-01  0.6490E-01  0.1040E-02  0.8346E-03  0.3120E-02  0.2504E-02  0.5199E-03  0.4173E-03  0.3033E-04  0.2436E-04  0.1820E-03  0.1462E-03  0.1024E-03  0.8221E-04  0.9098E-04  0.7308E-04  0.3791E-05  0.3045E-05
     -1.432 -0.1352E-02 -0.3394E-02 -0.1740E-04 -0.4364E-04 -0.5221E-04 -0.1309E-03 -0.8701E-05 -0.2182E-04 -0.5076E-06 -0.1274E-05 -0.3045E-05 -0.7643E-05 -0.1713E-05 -0.4299E-05 -0.1523E-05 -0.3821E-05 -0.6345E-07 -0.1592E-06
     -1.368 -0.3708E-03 -0.1459E-03 -0.4772E-05 -0.1877E-05 -0.1432E-04 -0.5631E-05 -0.2386E-05 -0.9386E-06 -0.1392E-06 -0.5480E-07 -0.8351E-06 -0.3287E-06 -0.4697E-06 -0.1849E-06 -0.4175E-06 -0.1643E-06 -0.1740E-07 -0.6850E-08
     -1.304 -0.8280E-05 -0.2974E-04 -0.2321E-06 -0.8556E-06 -0.9993E-07 -0.3196E-06 -0.4562E-06 -0.1710E-05 -0.5486E-07 -0.2062E-06 -0.6243E-08 -0.2017E-07 -0.2506E-07 -0.9276E-07 -0.1108E-07 -0.4006E-07 -0.6857E-08 -0.2577E-07
     -1.239 -0.2945E-02 -0.5443E-02 -0.8491E-04 -0.1568E-03 -0.3142E-04 -0.5805E-04 -0.1698E-03 -0.3137E-03 -0.2048E-04 -0.3783E-04 -0.1988E-05 -0.3666E-05 -0.9187E-05 -0.1700E-04 -0.3975E-05 -0.7335E-05 -0.2560E-05 -0.4729E-05
     -1.175  0.2145E-01  0.5912E-01  0.6183E-03  0.1703E-02  0.2288E-03  0.6305E-03  0.1237E-02  0.3407E-02  0.1492E-03  0.4109E-03  0.1448E-04  0.3981E-04  0.6690E-04  0.1847E-03  0.2895E-04  0.7966E-04  0.1864E-04  0.5136E-04
     -1.110  0.2581E+00  0.2428E+00  0.7441E-02  0.6996E-02  0.2754E-02  0.2589E-02  0.1488E-01  0.1399E-01  0.1795E-02  0.1688E-02  0.1742E-03  0.1635E-03  0.8050E-03  0.7585E-03  0.3484E-03  0.3272E-03  0.2244E-03  0.2110E-03
     -1.046  0.2049E-01 -0.7112E-03  0.5907E-03 -0.2049E-04  0.2186E-03 -0.7584E-05  0.1181E-02 -0.4098E-04  0.1425E-03 -0.4943E-05  0.1383E-04 -0.4789E-06  0.6391E-04 -0.2222E-05  0.2765E-04 -0.9583E-06  0.1781E-04 -0.6179E-06
     -0.982 -0.2879E-02 -0.1340E-02 -0.8300E-04 -0.3860E-04 -0.3072E-04 -0.1429E-04 -0.1660E-03 -0.7720E-04 -0.2002E-04 -0.9312E-05 -0.1943E-05 -0.9022E-06 -0.8980E-05 -0.4185E-05 -0.3886E-05 -0.1805E-05 -0.2503E-05 -0.1164E-05
     -0.917 -0.7516E-05 -0.1777E-05 -0.2167E-06 -0.5121E-07 -0.8020E-07 -0.1896E-07 -0.4334E-06 -0.1024E-06 -0.5227E-07 -0.1235E-07 -0.5073E-08 -0.1197E-08 -0.2345E-07 -0.5553E-08 -0.1015E-07 -0.2395E-08 -0.6534E-08 -0.1544E-08
     -0.853 -0.5245E-09 -0.6708E-10 -0.1512E-10 -0.1933E-11 -0.5597E-11 -0.7153E-12 -0.3025E-10 -0.3865E-11 -0.3648E-11 -0.4662E-12 -0.3541E-12 -0.4517E-13 -0.1636E-11 -0.2095E-12 -0.7080E-12 -0.9039E-13 -0.4560E-12 -0.5828E-13
     -0.789 -0.1176E-14 -0.6537E-16 -0.3390E-16 -0.1883E-17 -0.1255E-16 -0.6971E-18 -0.6780E-16 -0.3767E-17 -0.8177E-17 -0.4543E-18 -0.7936E-18 -0.4402E-19 -0.3668E-17 -0.2042E-18 -0.1587E-17 -0.8809E-19 -0.1022E-17 -0.5679E-19
     -0.724 -0.4632E-16 -0.6712E-15 -0.1276E-17 -0.1848E-16 -0.3828E-17 -0.5543E-16 -0.2475E-17 -0.3584E-16 -0.3716E-18 -0.5382E-17 -0.5961E-18 -0.8643E-17 -0.8325E-19 -0.1207E-17 -0.1115E-17 -0.1615E-16 -0.1535E-18 -0.2226E-17
     -0.660 -0.4091E-10 -0.3306E-09 -0.1127E-11 -0.9102E-11 -0.3381E-11 -0.2731E-10 -0.2186E-11 -0.1766E-10 -0.3282E-12 -0.2651E-11 -0.5264E-12 -0.4258E-11 -0.7352E-13 -0.5946E-12 -0.9846E-12 -0.7954E-11 -0.1355E-12 -0.1096E-11
     -0.595 -0.1224E-05 -0.5339E-05 -0.3373E-07 -0.1470E-06 -0.1012E-06 -0.4409E-06 -0.6543E-07 -0.2851E-06 -0.9823E-08 -0.4281E-07 -0.1576E-07 -0.6876E-07 -0.2200E-08 -0.9602E-08 -0.2947E-07 -0.1284E-06 -0.4056E-08 -0.1770E-07
     -0.531 -0.1054E-02 -0.2341E-02 -0.2903E-04 -0.6445E-04 -0.8709E-04 -0.1933E-03 -0.5631E-04 -0.1250E-03 -0.8450E-05 -0.1876E-04 -0.1355E-04 -0.3012E-04 -0.1894E-05 -0.4209E-05 -0.2535E-04 -0.5627E-04 -0.3488E-05 -0.7751E-05
     -0.467 -0.3529E-02  0.1315E-01 -0.9918E-04  0.3581E-03 -0.2975E-03  0.1074E-02 -0.1934E-03  0.6928E-03 -0.2658E-04  0.1088E-03 -0.4239E-04  0.1753E-03 -0.6305E-05  0.2373E-04 -0.7973E-04  0.3265E-03 -0.1030E-04  0.4632E-04
     -0.402  0.2223E+00  0.2492E+00  0.6133E-02  0.6898E-02  0.1840E-01  0.2069E-01  0.1190E-01  0.1340E-01  0.1775E-02  0.1966E-02  0.2845E-02  0.3152E-02  0.3993E-03  0.4475E-03  0.5324E-02  0.5898E-02  0.7296E-03  0.8003E-03
     -0.338  0.1227E+00  0.8402E-01  0.3610E-02  0.2540E-02  0.1083E-01  0.7619E-02  0.7115E-02  0.5037E-02  0.7823E-03  0.4733E-03  0.1227E-02  0.7317E-03  0.2163E-03  0.1466E-03  0.2347E-02  0.1420E-02  0.2448E-03  0.1183E-03
     -0.274  0.2182E-02 -0.1643E-02  0.9033E-04 -0.3947E-04  0.2710E-03 -0.1184E-03  0.1900E-03 -0.7376E-04 -0.9165E-05 -0.1826E-04 -0.1842E-04 -0.3005E-04  0.3355E-05 -0.3070E-05 -0.2749E-04 -0.5479E-04 -0.1410E-04 -0.9516E-05
     -0.209 -0.9367E-03 -0.5380E-03 -0.3145E-04 -0.2402E-04 -0.8646E-04 -0.4577E-04 -0.5844E-04 -0.3334E-04 -0.5118E-05 -0.4798E-05 -0.7154E-05 -0.5365E-05 -0.1782E-05 -0.1474E-05 -0.1299E-04 -0.6526E-05 -0.7182E-06 -0.6110E-06
     -0.145 -0.4970E-02 -0.7601E-02 -0.5368E-03 -0.8207E-03 -0.2127E-03 -0.3249E-03 -0.2931E-03 -0.4480E-03 -0.1448E-03 -0.2214E-03 -0.1195E-03 -0.1827E-03 -0.3755E-04 -0.5754E-04 -0.1646E-04 -0.2502E-04 -0.1750E-04 -0.2680E-04
     -0.081  0.5458E-01  0.1010E+00  0.5898E-02  0.1090E-01  0.2334E-02  0.4315E-02  0.3219E-02  0.5950E-02  0.1591E-02  0.2941E-02  0.1313E-02  0.2427E-02  0.4126E-03  0.7643E-03  0.1804E-03  0.3323E-03  0.1923E-03  0.3560E-03
     -0.016  0.2144E+00  0.1772E+00  0.2316E-01  0.1914E-01  0.9166E-02  0.7574E-02  0.1264E-01  0.1045E-01  0.6248E-02  0.5163E-02  0.5156E-02  0.4259E-02  0.1620E-02  0.1342E-02  0.7084E-03  0.5833E-03  0.7553E-03  0.6249E-03
      0.048 -0.1414E-02 -0.8723E-02 -0.1460E-03 -0.9230E-03 -0.5541E-04 -0.3587E-03 -0.9628E-04 -0.5500E-03 -0.5168E-04 -0.2833E-03 -0.3028E-04 -0.1992E-03 -0.1588E-04 -0.8053E-04 -0.4747E-05 -0.2892E-04 -0.6311E-05 -0.3446E-04
      0.113 -0.9422E-02 -0.8099E-02 -0.6837E-03 -0.5664E-03 -0.1535E-03 -0.1163E-03 -0.1188E-02 -0.1060E-02 -0.7887E-03 -0.7097E-03 -0.4292E-04 -0.2538E-04 -0.3262E-03 -0.2968E-03 -0.3471E-04 -0.3001E-04 -0.9845E-04 -0.8866E-04
      0.177  0.1239E+00  0.1712E+00  0.8387E-02  0.1158E-01  0.1567E-02  0.2163E-02  0.1677E-01  0.2315E-01  0.1131E-01  0.1561E-01  0.2315E-03  0.3191E-03  0.4754E-02  0.6575E-02  0.4631E-03  0.6385E-03  0.1413E-02  0.1951E-02
      0.241  0.1417E+00  0.9266E-01  0.9590E-02  0.6266E-02  0.1791E-02  0.1171E-02  0.1918E-01  0.1253E-01  0.1293E-01  0.8449E-02  0.2648E-03  0.1728E-03  0.5436E-02  0.3559E-02  0.5295E-03  0.3456E-03  0.1616E-02  0.1056E-02
      0.306 -0.8544E-02 -0.7061E-02 -0.5782E-03 -0.4775E-03 -0.1080E-03 -0.8923E-04 -0.1156E-02 -0.9550E-03 -0.7795E-03 -0.6438E-03 -0.1596E-04 -0.1316E-04 -0.3277E-03 -0.2712E-03 -0.3192E-04 -0.2634E-04 -0.9744E-04 -0.8048E-04
      0.370 -0.2475E-03 -0.8221E-04 -0.1675E-04 -0.5560E-05 -0.3129E-05 -0.1039E-05 -0.3350E-04 -0.1112E-04 -0.2258E-04 -0.7496E-05 -0.4624E-06 -0.1533E-06 -0.9493E-05 -0.3158E-05 -0.9248E-06 -0.3067E-06 -0.2823E-05 -0.9370E-06