   1   1   0   0
  0.1813235E+02  0.2866544E-09  0.2866544E-09  0.2866544E-09  0.5000000E-15
  1.000000000000000E-004
  CAR 
 unknown system                          
     16.45566022     -2.84033867  301      5.67602324      1.00000000
     -2.840  0.0000E+00  0.0000E+00
     -2.776  0.0000E+00  0.0000E+00
     -2.712  0.0000E+00  0.0000E+00
     -2.647  0.0000E+00  0.0000E+00
     -2.583  0.0000E+00  0.0000E+00
     -2.519  0.0000E+00  0.0000E+00
     -2.454  0.0000E+00  0.0000E+00
     -2.390 -0.1002E-31 -0.6445E-33
     -2.326 -0.5625E-23 -0.3618E-24
     -2.261 -0.1117E-15 -0.7185E-17
     -2.197 -0.7382E-10 -0.4748E-11
     -2.133 -0.1654E-05 -0.1064E-06
     -2.068 -0.1045E-02 -0.6734E-04
     -2.004  0.2043E-02  0.6410E-04
     -1.940  0.1579E+00  0.1022E-01
     -1.876  0.3066E-01  0.1220E-01
     -1.811 -0.3018E-02  0.1200E-01
     -1.747 -0.1389E-04  0.1200E-01
     -1.683 -0.1107E-03  0.1199E-01
     -1.618 -0.7634E-02  0.1150E-01
     -1.554  0.1049E+00  0.1825E-01
     -1.490  0.1602E+00  0.2855E-01
     -1.425 -0.8249E-02  0.2802E-01
     -1.361 -0.3712E-03  0.2800E-01
     -1.297 -0.7087E-04  0.2800E-01
     -1.232 -0.1341E-01  0.2713E-01
     -1.168  0.1433E+00  0.3635E-01
     -1.104  0.6196E+00  0.7620E-01
     -1.039  0.4717E-03  0.7623E-01
     -0.975 -0.3588E-02  0.7600E-01
     -0.911 -0.5006E-05  0.7600E-01
     -0.846 -0.1990E-09  0.7600E-01
     -0.782 -0.3314E-15  0.7600E-01
     -0.718 -0.1434E-14  0.7600E-01
     -0.653 -0.7437E-09  0.7600E-01
     -0.589 -0.1265E-04  0.7600E-01
     -0.525 -0.5914E-02  0.7562E-01
     -0.460  0.2919E-01  0.7750E-01
     -0.396  0.6740E+00  0.1208E+00
     -0.332  0.2405E+00  0.1363E+00
     -0.268 -0.3635E-02  0.1361E+00
     -0.203 -0.1567E-02  0.1360E+00
     -0.139 -0.2078E-01  0.1346E+00
     -0.075  0.2691E+00  0.1520E+00
     -0.010  0.5219E+00  0.1855E+00
      0.054 -0.2345E-01  0.1840E+00
      0.118 -0.2559E-01  0.1824E+00
      0.183  0.4952E+00  0.2142E+00
      0.247  0.2989E+00  0.2334E+00
      0.311 -0.2221E-01  0.2320E+00
      0.376 -0.2938E-03  0.2320E+00
      0.440 -0.7960E-07  0.2320E+00
      0.504 -0.6744E-12  0.2320E+00
      0.569 -0.5106E-13  0.2320E+00
      0.633 -0.1145E-07  0.2320E+00
      0.697 -0.8234E-04  0.2320E+00
      0.762 -0.1495E-01  0.2310E+00
      0.826  0.1126E+00  0.2383E+00
      0.890  0.1223E+01  0.3170E+00
      0.955  0.9700E+00  0.3794E+00
      1.019 -0.4968E-01  0.3762E+00
      1.083 -0.3104E-02  0.3760E+00
      1.148 -0.4434E-01  0.3731E+00
      1.212  0.5498E+00  0.4085E+00
      1.276  0.1717E+01  0.5189E+00
      1.340  0.2663E-01  0.5207E+00
      1.405 -0.3309E-01  0.5185E+00
      1.469  0.5121E+00  0.5515E+00
      1.533  0.6587E+00  0.5938E+00
      1.598  0.6067E+00  0.6329E+00
      1.662  0.1229E+00  0.6408E+00
      1.726 -0.1158E-01  0.6400E+00
      1.791 -0.8053E-02  0.6395E+00
      1.855 -0.1279E-01  0.6387E+00
      1.919  0.1436E+01  0.7310E+00
      1.984  0.1787E+01  0.8459E+00
      2.048  0.1646E+01  0.9518E+00
      2.112  0.8610E+00  0.1007E+01
      2.177  0.6142E+00  0.1047E+01
      2.241  0.3420E+00  0.1069E+01
      2.305  0.1141E+01  0.1142E+01
      2.370  0.1236E+01  0.1222E+01
      2.434  0.4993E+00  0.1254E+01
      2.498  0.1020E+00  0.1260E+01
      2.563  0.6186E+00  0.1300E+01
      2.627 -0.2231E-01  0.1299E+01
      2.691  0.4556E+00  0.1328E+01
      2.756  0.7926E+00  0.1379E+01
      2.820  0.3070E+01  0.1576E+01
      2.884  0.1856E+01  0.1696E+01
      2.948  0.1287E+01  0.1778E+01
      3.013  0.3601E+00  0.1802E+01
      3.077  0.1137E-01  0.1802E+01
      3.141  0.1795E+01  0.1918E+01
      3.206  0.1577E+01  0.2019E+01
      3.270  0.7331E+00  0.2066E+01
      3.334  0.3101E-01  0.2068E+01
      3.399 -0.9566E-02  0.2068E+01
      3.463  0.1982E-01  0.2069E+01
      3.527  0.2170E+00  0.2083E+01
      3.592 -0.1047E-01  0.2082E+01
      3.656  0.4348E+00  0.2110E+01
      3.720  0.9259E+00  0.2170E+01
      3.785  0.1430E+01  0.2262E+01
      3.849  0.5029E+00  0.2294E+01
      3.913  0.4871E+00  0.2326E+01
      3.978 -0.2810E-01  0.2324E+01
      4.042  0.3309E-01  0.2326E+01
      4.106  0.2838E+00  0.2344E+01
      4.171  0.1770E+01  0.2458E+01
      4.235  0.2416E+01  0.2613E+01
      4.299  0.6669E+00  0.2656E+01
      4.364  0.2816E+01  0.2837E+01
      4.428  0.4214E+01  0.3108E+01
      4.492  0.8345E+00  0.3162E+01
      4.556  0.1255E+01  0.3243E+01
      4.621  0.1905E+01  0.3365E+01
      4.685  0.1210E+01  0.3443E+01
      4.749  0.4681E+00  0.3473E+01
      4.814  0.1447E+01  0.3566E+01
      4.878  0.1373E+01  0.3655E+01
      4.942  0.2582E+01  0.3821E+01
      5.007  0.2930E+01  0.4009E+01
      5.071  0.5905E+00  0.4047E+01
      5.135 -0.1023E+00  0.4041E+01
      5.200  0.5344E+00  0.4075E+01
      5.264  0.3083E+01  0.4273E+01
      5.328  0.2639E+01  0.4443E+01
      5.393  0.2077E+01  0.4577E+01
      5.457  0.6456E+00  0.4618E+01
      5.521  0.1015E+01  0.4683E+01
      5.586  0.1320E+01  0.4768E+01
      5.650  0.3152E+01  0.4971E+01
      5.714  0.1415E+01  0.5062E+01
      5.779  0.1671E+01  0.5170E+01
      5.843  0.3432E-01  0.5172E+01
      5.907  0.6162E-01  0.5176E+01
      5.972  0.1913E+01  0.5299E+01
      6.036  0.8993E+00  0.5357E+01
      6.100  0.1176E+01  0.5432E+01
      6.164  0.1762E+01  0.5546E+01
      6.229  0.6835E+00  0.5590E+01
      6.293 -0.3326E-01  0.5587E+01
      6.357  0.1294E+00  0.5596E+01
      6.422  0.5297E+00  0.5630E+01
      6.486  0.9079E-01  0.5636E+01
      6.550  0.1769E+00  0.5647E+01
      6.615  0.7218E+00  0.5693E+01
      6.679  0.2077E+00  0.5707E+01
      6.743  0.5824E+00  0.5744E+01
      6.808 -0.2908E-02  0.5744E+01
      6.872  0.1203E+01  0.5821E+01
      6.936  0.3636E+00  0.5845E+01
      7.001  0.7768E+00  0.5895E+01
      7.065  0.6669E+00  0.5938E+01
      7.129 -0.3396E-01  0.5936E+01
      7.194  0.2433E+00  0.5951E+01
      7.258  0.8225E+00  0.6004E+01
      7.322  0.1607E+00  0.6014E+01
      7.387  0.7863E+00  0.6065E+01
      7.451  0.1094E+00  0.6072E+01
      7.515  0.9786E+00  0.6135E+01
      7.580  0.6322E+00  0.6176E+01
      7.644  0.6100E+00  0.6215E+01
      7.708  0.2291E-01  0.6216E+01
      7.772 -0.5333E-02  0.6216E+01
      7.837 -0.1263E-04  0.6216E+01
      7.901 -0.2466E-02  0.6216E+01
      7.965 -0.4063E-01  0.6213E+01
      8.030  0.8455E+00  0.6268E+01
      8.094  0.1301E+01  0.6351E+01
      8.158  0.1566E+01  0.6452E+01
      8.223  0.8751E+00  0.6508E+01
      8.287 -0.9393E-01  0.6502E+01
      8.351  0.3023E+00  0.6522E+01
      8.416  0.1202E+01  0.6599E+01
      8.480  0.4082E+00  0.6625E+01
      8.544  0.6114E+00  0.6665E+01
      8.609  0.8006E+00  0.6716E+01
      8.673  0.1728E+01  0.6827E+01
      8.737  0.1136E+01  0.6900E+01
      8.802  0.2139E+00  0.6914E+01
      8.866  0.1088E+01  0.6984E+01
      8.930  0.1796E+01  0.7100E+01
      8.995  0.9638E+00  0.7162E+01
      9.059  0.5189E+00  0.7195E+01
      9.123  0.1731E+01  0.7306E+01
      9.188  0.2364E+01  0.7458E+01
      9.252  0.9142E+00  0.7517E+01
      9.316  0.2612E+00  0.7534E+01
      9.380  0.2052E+01  0.7666E+01
      9.445  0.9927E+00  0.7730E+01
      9.509  0.1210E+01  0.7808E+01
      9.573  0.6603E+00  0.7850E+01
      9.638  0.9358E-01  0.7856E+01
      9.702  0.1139E+01  0.7929E+01
      9.766  0.1581E+01  0.8031E+01
      9.831  0.1227E+01  0.8110E+01
      9.895  0.2203E+00  0.8124E+01
      9.959  0.1517E+00  0.8134E+01
     10.024  0.1503E+01  0.8231E+01
     10.088  0.2218E+01  0.8373E+01
     10.152  0.9127E+00  0.8432E+01
     10.217  0.9274E+00  0.8492E+01
     10.281  0.9279E+00  0.8551E+01
     10.345  0.1342E+01  0.8638E+01
     10.410  0.1909E+01  0.8760E+01
     10.474  0.3264E+01  0.8970E+01
     10.538  0.2367E+01  0.9123E+01
     10.603  0.3365E+01  0.9339E+01
     10.667  0.3435E+01  0.9560E+01
     10.731  0.4484E+01  0.9848E+01
     10.796  0.2570E+01  0.1001E+02
     10.860  0.2247E+01  0.1016E+02
     10.924  0.1125E+01  0.1023E+02
     10.988  0.8134E+00  0.1028E+02
     11.053  0.7056E-03  0.1028E+02
     11.117  0.5226E+00  0.1032E+02
     11.181  0.2384E+00  0.1033E+02
     11.246  0.5162E+00  0.1037E+02
     11.310  0.2775E+00  0.1038E+02
     11.374  0.2903E+00  0.1040E+02
     11.439  0.3033E+00  0.1042E+02
     11.503  0.2483E+00  0.1044E+02
     11.567 -0.2622E-01  0.1044E+02
     11.632  0.8310E-01  0.1044E+02
     11.696  0.6233E+00  0.1048E+02
     11.760  0.4707E+00  0.1051E+02
     11.825  0.3495E+00  0.1053E+02
     11.889 -0.3020E-01  0.1053E+02
     11.953  0.2961E-01  0.1053E+02
     12.018  0.6497E+00  0.1058E+02
     12.082  0.8166E-01  0.1058E+02
     12.146 -0.1288E-01  0.1058E+02
     12.211 -0.1026E-01  0.1058E+02
     12.275  0.7337E+00  0.1063E+02
     12.339  0.2331E+00  0.1064E+02
     12.404 -0.2032E-01  0.1064E+02
     12.468 -0.2186E-01  0.1064E+02
     12.532  0.2872E+00  0.1066E+02
     12.596  0.4294E+00  0.1068E+02
     12.661  0.9086E+00  0.1074E+02
     12.725  0.2838E+01  0.1093E+02
     12.789  0.9172E+00  0.1098E+02
     12.854  0.1219E+01  0.1106E+02
     12.918  0.1705E+01  0.1117E+02
     12.982  0.1019E+01  0.1124E+02
     13.047  0.3632E+00  0.1126E+02
     13.111  0.1116E+01  0.1133E+02
     13.175 -0.1593E-01  0.1133E+02
     13.240 -0.5371E-02  0.1133E+02
     13.304 -0.7425E-05  0.1133E+02
     13.368 -0.2657E-06  0.1133E+02
     13.433 -0.3673E-03  0.1133E+02
     13.497 -0.5655E-02  0.1133E+02
     13.561  0.1216E+00  0.1134E+02
     13.626  0.1297E+00  0.1135E+02
     13.690  0.6478E+00  0.1139E+02
     13.754  0.3605E-01  0.1139E+02
     13.819  0.2660E+00  0.1141E+02
     13.883  0.9421E-01  0.1141E+02
     13.947  0.4037E+00  0.1144E+02
     14.012  0.3849E+00  0.1147E+02
     14.076 -0.2518E-01  0.1146E+02
     14.140 -0.5598E-03  0.1146E+02
     14.204 -0.1353E-04  0.1146E+02
     14.269 -0.6573E-02  0.1146E+02
     14.333  0.1831E-01  0.1146E+02
     14.397  0.9236E+00  0.1152E+02
     14.462  0.1480E+00  0.1153E+02
     14.526  0.7292E+00  0.1158E+02
     14.590  0.1504E+01  0.1168E+02
     14.655  0.1139E+00  0.1168E+02
     14.719  0.1819E+00  0.1170E+02
     14.783 -0.4353E-02  0.1170E+02
     14.848 -0.4460E-02  0.1170E+02
     14.912 -0.3686E-01  0.1169E+02
     14.976  0.1024E+01  0.1176E+02
     15.041  0.9290E+00  0.1182E+02
     15.105  0.1107E+01  0.1189E+02
     15.169 -0.3593E-01  0.1189E+02
     15.234  0.2261E-01  0.1189E+02
     15.298  0.6250E+00  0.1193E+02
     15.362  0.4150E+00  0.1196E+02
     15.427  0.4572E+00  0.1199E+02
     15.491 -0.2925E-01  0.1198E+02
     15.555  0.3988E-01  0.1199E+02
     15.620  0.2106E+00  0.1200E+02
     15.684  0.2725E-02  0.1200E+02
     15.748 -0.1394E-02  0.1200E+02
     15.812 -0.2205E-05  0.1200E+02
     15.877 -0.9843E-10  0.1200E+02
     15.941 -0.1657E-15  0.1200E+02
     16.005  0.0000E+00  0.1200E+02
     16.070  0.0000E+00  0.1200E+02
     16.134  0.0000E+00  0.1200E+02
     16.198  0.0000E+00  0.1200E+02
     16.263  0.0000E+00  0.1200E+02
     16.327  0.0000E+00  0.1200E+02
     16.391  0.0000E+00  0.1200E+02
     16.456  0.0000E+00  0.1200E+02
