    1    1    1    1
  0.1813235E+02  0.2866544E-09  0.2866544E-09  0.2866544E-09  0.5000000E-15
  1.000000000000000E-004
  CAR 
 unknown system                          
    5   44    6
 
  0.5000000E-01  0.5000000E-01  0.5000000E-01  0.8000000E-02
   1       -1.547410
   2        6.090301
   3        6.090301
   4        7.204543
   5        9.445184
   6        9.445184
 
  0.1500000E+00  0.5000000E-01  0.5000000E-01  0.2400000E-01
   1       -0.424690
   2        5.417534
   3        5.600684
   4        8.553077
   5        9.129117
   6        9.713331
 
  0.2500000E+00  0.5000000E-01  0.5000000E-01  0.2400000E-01
   1        0.901662
   2        4.760865
   3        5.298725
   4        9.347536
   5       10.041305
   6       10.525003
 
  0.3500000E+00  0.5000000E-01  0.5000000E-01  0.2400000E-01
   1        1.531753
   2        4.311488
   3        6.109203
   4        9.670067
   5       10.405304
   6       12.660194
 
  0.4500000E+00  0.5000000E-01  0.5000000E-01  0.1200000E-01
   1        1.589763
   2        4.153629
   3        6.984699
   4        9.651398
   5       10.590003
   6       13.806012
 
 -0.5000000E-01  0.5000000E-01  0.5000000E-01  0.6000000E-02
   1       -1.963248
   2        6.408833
   3        6.408840
   4        6.545962
   5        9.309029
   6        9.805692
 
  0.1500000E+00  0.1500000E+00  0.5000000E-01  0.2400000E-01
   1        0.845783
   2        4.871697
   3        4.944284
   4        9.204361
   5       10.086821
   6       10.449498
 
  0.2500000E+00  0.1500000E+00  0.5000000E-01  0.4800000E-01
   1        2.012994
   2        4.400265
   3        4.976262
   4        9.505403
   5       10.429435
   6       12.675040
 
  0.3500000E+00  0.1500000E+00  0.5000000E-01  0.4800000E-01
   1        2.292223
   2        4.186055
   3        5.940400
   4        9.757382
   5       10.630986
   6       14.528727
 
 -0.1500000E+00  0.1500000E+00  0.5000000E-01  0.2400000E-01
   1       -1.146781
   2        5.955199
   3        6.183342
   4        7.358356
   5        8.627181
   6        9.988579
 
  0.2500000E+00  0.2500000E+00  0.5000000E-01  0.2400000E-01
   1        2.933186
   2        4.294463
   3        5.012020
   4        9.819790
   5       10.527366
   6       14.959402
 
  0.3500000E+00  0.2500000E+00  0.5000000E-01  0.2400000E-01
   1        3.114750
   2        4.378566
   3        5.252576
   4       10.059206
   5       10.572011
   6       14.379335
 
 -0.2500000E+00  0.2500000E+00  0.5000000E-01  0.2400000E-01
   1        0.174939
   2        5.267105
   3        5.611850
   4        8.652296
   5        8.970793
   6       10.184818
 
 -0.1500000E+00  0.2500000E+00  0.5000000E-01  0.2400000E-01
   1       -0.064456
   2        5.629835
   3        5.701100
   4        8.069803
   5        8.477198
   6       10.387753
 
 -0.3500000E+00  0.3500000E+00  0.5000000E-01  0.2400000E-01
   1        1.213523
   2        4.672940
   3        5.694497
   4        9.185178
   5       10.412691
   6       11.106135
 
 -0.2500000E+00  0.3500000E+00  0.5000000E-01  0.4800000E-01
   1        1.239424
   2        4.919868
   3        5.351807
   4        8.371714
   5       10.305235
   6       10.690583
 
 -0.4500000E+00  0.4500000E+00  0.5000000E-01  0.2400000E-01
   1        1.457434
   2        4.341068
   3        6.696949
   4        9.344043
   5       10.782527
   6       13.053679
 
 -0.3500000E+00  0.4500000E+00  0.5000000E-01  0.4800000E-01
   1        1.896928
   2        4.618480
   3        5.598023
   4        8.910583
   5       10.725557
   6       12.694004
 
 -0.2500000E+00  0.4500000E+00  0.5000000E-01  0.2400000E-01
   1        2.363214
   2        4.324539
   3        5.357674
   4        8.678301
   5       10.430855
   6       12.765635
 
 -0.4500000E+00 -0.4500000E+00  0.5000000E-01  0.2400000E-01
   1        1.953305
   2        4.517116
   3        6.091751
   4        8.864142
   5       11.233883
   6       13.946081
 
 -0.3500000E+00 -0.4500000E+00  0.5000000E-01  0.4800000E-01
   1        2.834142
   2        4.382733
   3        5.222122
   4        9.147105
   5       10.651635
   6       15.055878
 
 -0.3500000E+00 -0.3500000E+00  0.5000000E-01  0.8000000E-02
   1        3.494255
   2        4.480068
   3        4.480070
   4       10.110057
   5       10.110058
   6       14.670954
 
  0.1500000E+00  0.1500000E+00  0.1500000E+00  0.8000000E-02
   1        2.232397
   2        4.387625
   3        4.387625
   4       10.054075
   5       10.054075
   6       12.782855
 
  0.2500000E+00  0.1500000E+00  0.1500000E+00  0.2400000E-01
   1        3.141314
   2        4.141684
   3        4.784523
   4       10.220569
   5       10.531736
   6       14.970572
 
  0.3500000E+00  0.1500000E+00  0.1500000E+00  0.1200000E-01
   1        3.149452
   2        4.069712
   3        5.606276
   4       10.280469
   5       10.683431
   6       14.365168
 
 -0.1500000E+00  0.1500000E+00  0.1500000E+00  0.6000000E-02
   1       -0.369546
   2        6.366367
   3        6.366373
   4        7.170241
   5        7.364777
   6       10.583979
 
  0.2500000E+00  0.2500000E+00  0.1500000E+00  0.2400000E-01
   1        3.743612
   2        4.404269
   3        4.832244
   4       10.534164
   5       10.664108
   6       13.656543
 
 -0.2500000E+00  0.2500000E+00  0.1500000E+00  0.2400000E-01
   1        0.893252
   2        5.514723
   3        6.008752
   4        7.236356
   5        8.724466
   6       10.787731
 
 -0.3500000E+00  0.3500000E+00  0.1500000E+00  0.2400000E-01
   1        1.938643
   2        4.889480
   3        5.501283
   4        8.040026
   5       10.851244
   6       10.891431
 
 -0.2500000E+00  0.3500000E+00  0.1500000E+00  0.2400000E-01
   1        2.063144
   2        4.571122
   3        6.142806
   4        7.518258
   5        9.981993
   6       10.952478
 
 -0.4500000E+00  0.4500000E+00  0.1500000E+00  0.2400000E-01
   1        2.162623
   2        5.202931
   3        5.260342
   4        8.014800
   5       11.989386
   6       12.851166
 
 -0.3500000E+00  0.4500000E+00  0.1500000E+00  0.4800000E-01
   1        2.769134
   2        4.186330
   3        5.744552
   4        8.152233
   5       10.721013
   6       12.909539
 
 -0.4500000E+00 -0.4500000E+00  0.1500000E+00  0.2400000E-01
   1        2.781675
   2        4.564852
   3        5.297572
   4        8.146652
   5       11.756903
   6       14.564421
 
 -0.3500000E+00 -0.4500000E+00  0.1500000E+00  0.2400000E-01
   1        3.649935
   2        3.712053
   3        4.973672
   4        9.414821
   5       10.583268
   6       15.367598
 
  0.2500000E+00  0.2500000E+00  0.2500000E+00  0.2000000E-02
   1        4.473781
   2        4.473781
   3        4.473787
   4       10.742817
   5       10.742817
   6       12.740823
 
 -0.2500000E+00  0.2500000E+00  0.2500000E+00  0.6000000E-02
   1        1.970403
   2        4.787396
   3        6.955800
   4        6.955805
   5        8.883325
   6       10.686143
 
 -0.3500000E+00  0.3500000E+00  0.2500000E+00  0.2400000E-01
   1        2.794039
   2        3.858041
   3        7.015571
   4        7.606458
   5       10.545352
   6       10.835111
 
 -0.4500000E+00  0.4500000E+00  0.2500000E+00  0.2400000E-01
   1        2.830077
   2        3.771734
   3        6.845383
   4        7.489513
   5       12.540747
   6       12.823523
 
 -0.3500000E+00  0.4500000E+00  0.2500000E+00  0.2400000E-01
   1        3.121182
   2        3.184239
   3        6.857202
   4        8.833366
   5       10.815166
   6       12.926943
 
 -0.4500000E+00 -0.4500000E+00  0.2500000E+00  0.2400000E-01
   1        2.912637
   2        3.236672
   3        6.579663
   4        9.348824
   5       11.659518
   6       15.270188
 
 -0.3500000E+00  0.3500000E+00  0.3500000E+00  0.6000000E-02
   1        2.898740
   2        2.998816
   3        8.612513
   4        8.612517
   5       10.767683
   6       10.943559
 
 -0.4500000E+00  0.4500000E+00  0.3500000E+00  0.2400000E-01
   1        2.519641
   2        2.681945
   3        9.076623
   4        9.083650
   5       12.259663
   6       13.070200
 
 -0.4500000E+00 -0.4500000E+00  0.3500000E+00  0.8000000E-02
   1        2.365822
   2        2.365822
   3        9.008722
   4       11.437036
   5       11.437041
   6       15.578569
 
 -0.4500000E+00  0.4500000E+00  0.4500000E+00  0.6000000E-02
   1        2.064084
   2        2.110852
   3       11.341093
   4       11.341098
   5       12.248859
   6       13.551475
