    1    1    1    2
  0.1813235E+02  0.2866544E-09  0.2866544E-09  0.2866544E-09  0.5000000E-15
  1.000000000000000E-004
  CAR 
 unknown system                          
    5   44    6
 
  0.5000000E-01  0.5000000E-01  0.5000000E-01  0.8000000E-02
   1       -1.543368     -1.554811
   2        6.099409      6.084652
   3        6.099409      6.084652
   4        7.213871      7.198986
   5        9.449560      9.444225
   6        9.449560      9.444225
 
  0.1500000E+00  0.5000000E-01  0.5000000E-01  0.2400000E-01
   1       -0.420663     -0.432137
   2        5.426344      5.411783
   3        5.608588      5.595240
   4        8.562124      8.547813
   5        9.134435      9.127330
   6        9.718060      9.712220
 
  0.2500000E+00  0.5000000E-01  0.5000000E-01  0.2400000E-01
   1        0.906134      0.894466
   2        4.769513      4.754973
   3        5.304684      5.293127
   4        9.353751      9.345197
   5       10.046398     10.040080
   6       10.533788     10.520188
 
  0.3500000E+00  0.5000000E-01  0.5000000E-01  0.2400000E-01
   1        1.537209      1.525393
   2        4.320059      4.305497
   3        6.113001      6.102487
   4        9.676457      9.667496
   5       10.410814     10.404075
   6       12.668681     12.656350
 
  0.4500000E+00  0.5000000E-01  0.5000000E-01  0.1200000E-01
   1        1.595533      1.583764
   2        4.162176      4.147603
   3        6.987506      6.977143
   4        9.657615      9.648894
   5       10.595748     10.588815
   6       13.814427     13.803232
 
 -0.5000000E-01  0.5000000E-01  0.5000000E-01  0.6000000E-02
   1       -1.959173     -1.970619
   2        6.418181      6.403160
   3        6.418183      6.403187
   4        6.555384      6.540351
   5        9.313168      9.308165
   6        9.809927      9.805106
 
  0.1500000E+00  0.1500000E+00  0.5000000E-01  0.2400000E-01
   1        0.849943      0.838342
   2        4.879029      4.866290
   3        4.952471      4.938430
   4        9.210074      9.202323
   5       10.092092     10.085581
   6       10.458119     10.444490
 
  0.2500000E+00  0.1500000E+00  0.5000000E-01  0.4800000E-01
   1        2.017994      2.006048
   2        4.407869      4.394512
   3        4.982367      4.970155
   4        9.511627      9.503083
   5       10.435068     10.428105
   6       12.682882     12.670610
 
  0.3500000E+00  0.1500000E+00  0.5000000E-01  0.4800000E-01
   1        2.298077      2.286036
   2        4.194011      4.180052
   3        5.944520      5.933670
   4        9.763629      9.754954
   5       10.636866     10.629465
   6       14.535842     14.525240
 
 -0.1500000E+00  0.1500000E+00  0.5000000E-01  0.2400000E-01
   1       -1.142784     -1.154200
   2        5.964354      5.949430
   3        6.191924      6.177797
   4        7.367694      7.352905
   5        8.631751      8.625605
   6        9.993103      9.987824
 
  0.2500000E+00  0.2500000E+00  0.5000000E-01  0.2400000E-01
   1        2.939548      2.926594
   2        4.300380      4.288936
   3        5.017953      5.005512
   4        9.826216      9.817447
   5       10.533350     10.525608
   6       14.965895     14.955486
 
  0.3500000E+00  0.2500000E+00  0.5000000E-01  0.2400000E-01
   1        3.121731      3.108403
   2        4.384740      4.372739
   3        5.257255      5.246393
   4       10.065597     10.056870
   5       10.578314     10.570039
   6       14.385859     14.371154
 
 -0.2500000E+00  0.2500000E+00  0.5000000E-01  0.2400000E-01
   1        0.179048      0.167575
   2        5.276033      5.261218
   3        5.618347      5.606672
   4        8.658168      8.649749
   5        8.979998      8.965711
   6       10.189822     10.183756
 
 -0.1500000E+00  0.2500000E+00  0.5000000E-01  0.2400000E-01
   1       -0.060500     -0.071873
   2        5.637280      5.624698
   3        5.709854      5.695268
   4        8.075308      8.067270
   5        8.486322      8.471935
   6       10.392757     10.386834
 
 -0.3500000E+00  0.3500000E+00  0.5000000E-01  0.2400000E-01
   1        1.218459      1.206790
   2        4.681704      4.666965
   3        5.698759      5.688733
   4        9.191582      9.182102
   5       10.418091     10.411344
   6       11.115200     11.101818
 
 -0.2500000E+00  0.3500000E+00  0.5000000E-01  0.4800000E-01
   1        1.243754      1.232282
   2        4.926567      4.914778
   3        5.359209      5.346009
   4        8.378205      8.368417
   5       10.313446     10.301214
   6       10.696630     10.688416
 
 -0.4500000E+00  0.4500000E+00  0.5000000E-01  0.2400000E-01
   1        1.463044      1.451405
   2        4.349751      4.335049
   3        6.699710      6.690218
   4        9.350227      9.341122
   5       10.788044     10.780572
   6       13.062699     13.050691
 
 -0.3500000E+00  0.4500000E+00  0.5000000E-01  0.4800000E-01
   1        1.902239      1.890663
   2        4.626406      4.612699
   3        5.602256      5.592275
   4        8.917031      8.907161
   5       10.731652     10.723134
   6       12.702075     12.690159
 
 -0.2500000E+00  0.4500000E+00  0.5000000E-01  0.2400000E-01
   1        2.368312      2.356473
   2        4.329947      4.319855
   3        5.364695      5.351511
   4        8.685243      8.674742
   5       10.437212     10.428356
   6       12.773078     12.761456
 
 -0.4500000E+00 -0.4500000E+00  0.5000000E-01  0.2400000E-01
   1        1.958932      1.947452
   2        4.525436      4.511155
   3        6.094932      6.085883
   4        8.870324      8.860966
   5       11.239862     11.230779
   6       13.953978     13.943052
 
 -0.3500000E+00 -0.4500000E+00  0.5000000E-01  0.4800000E-01
   1        2.840146      2.828078
   2        4.388795      4.377463
   3        5.226873      5.216560
   4        9.153962      9.143561
   5       10.658423     10.648332
   6       15.062630     15.052216
 
 -0.3500000E+00 -0.3500000E+00  0.5000000E-01  0.8000000E-02
   1        3.501952      3.487804
   2        4.484416      4.475105
   3        4.484424      4.475126
   4       10.117214     10.106542
   5       10.117216     10.106546
   6       14.677270     14.663361
 
  0.1500000E+00  0.1500000E+00  0.1500000E+00  0.8000000E-02
   1        2.236747      2.224938
   2        4.395078      4.381841
   3        4.395078      4.381841
   4       10.059800     10.052548
   5       10.059800     10.052548
   6       12.790674     12.778301
 
  0.2500000E+00  0.1500000E+00  0.1500000E+00  0.2400000E-01
   1        3.146901      3.134645
   2        4.149276      4.135616
   3        4.790190      4.778038
   4       10.226606     10.218863
   5       10.537470     10.530518
   6       14.977258     14.966605
 
  0.3500000E+00  0.1500000E+00  0.1500000E+00  0.1200000E-01
   1        3.155503      3.143199
   2        4.077361      4.063536
   3        5.611142      5.599423
   4       10.286511     10.278634
   5       10.689180     10.682320
   6       14.371784     14.356720
 
 -0.1500000E+00  0.1500000E+00  0.1500000E+00  0.6000000E-02
   1       -0.365685     -0.376954
   2        6.375244      6.360566
   3        6.375246      6.360592
   4        7.174284      7.168286
   5        7.374166      7.359397
   6       10.588921     10.583206
 
  0.2500000E+00  0.2500000E+00  0.1500000E+00  0.2400000E-01
   1        3.750558      3.737217
   2        4.410542      4.398103
   3        4.837903      4.825598
   4       10.540133     10.532747
   5       10.669924     10.662873
   6       13.663015     13.647405
 
 -0.2500000E+00  0.2500000E+00  0.1500000E+00  0.2400000E-01
   1        0.897075      0.885999
   2        5.520049      5.510872
   3        6.017493      6.002893
   4        7.243397      7.231975
   5        8.733669      8.719381
   6       10.793228     10.786311
 
 -0.3500000E+00  0.3500000E+00  0.1500000E+00  0.2400000E-01
   1        1.943124      1.932125
   2        4.893549      4.885271
   3        5.509916      5.495354
   4        8.046835      8.035554
   5       10.860275     10.846858
   6       10.897182     10.888560
 
 -0.2500000E+00  0.3500000E+00  0.1500000E+00  0.2400000E-01
   1        2.067082      2.056365
   2        4.575775      4.567558
   3        6.150884      6.136911
   4        7.525919      7.513337
   5        9.990372      9.977764
   6       10.958795     10.949160
 
 -0.4500000E+00  0.4500000E+00  0.1500000E+00  0.2400000E-01
   1        2.167791      2.157041
   2        5.211504      5.196963
   3        5.263655      5.255495
   4        8.020975      8.010889
   5       11.994672     11.984630
   6       12.860155     12.848080
 
 -0.3500000E+00  0.4500000E+00  0.1500000E+00  0.4800000E-01
   1        2.773776      2.763445
   2        4.190474      4.182206
   3        5.752029      5.738852
   4        8.159478      8.147543
   5       10.728091     10.716688
   6       12.916931     12.905140
 
 -0.4500000E+00 -0.4500000E+00  0.1500000E+00  0.2400000E-01
   1        2.786565      2.776691
   2        4.568368      4.560444
   3        5.305288      5.291852
   4        8.153668      8.141987
   5       11.764114     11.752458
   6       14.571012     14.559844
 
 -0.3500000E+00 -0.4500000E+00  0.1500000E+00  0.2400000E-01
   1        3.654535      3.644888
   2        3.716145      3.708134
   3        4.980591      4.967986
   4        9.422484      9.410034
   5       10.590660     10.578602
   6       15.374318     15.362729
 
  0.2500000E+00  0.2500000E+00  0.2500000E+00  0.2000000E-02
   1        4.480196      4.467324
   2        4.480196      4.467358
   3        4.480202      4.467358
   4       10.748569     10.741758
   5       10.748569     10.741758
   6       12.747275     12.731153
 
 -0.2500000E+00  0.2500000E+00  0.2500000E+00  0.6000000E-02
   1        1.973901      1.963629
   2        4.791342      4.784741
   3        6.964154      6.949892
   4        6.964157      6.949918
   5        8.892629      8.878447
   6       10.691970     10.683230
 
 -0.3500000E+00  0.3500000E+00  0.2500000E+00  0.2400000E-01
   1        2.797708      2.788363
   2        3.861977      3.854881
   3        7.023918      7.009705
   4        7.614058      7.600969
   5       10.554398     10.540964
   6       10.840915     10.829985
 
 -0.4500000E+00  0.4500000E+00  0.2500000E+00  0.2400000E-01
   1        2.834286      2.825852
   2        3.775323      3.767813
   3        6.853746      6.839525
   4        7.496406      7.484066
   5       12.549698     12.537522
   6       12.828921     12.816550
 
 -0.3500000E+00  0.4500000E+00  0.2500000E+00  0.2400000E-01
   1        3.124862      3.116715
   2        3.188173      3.180994
   3        6.864928      6.851289
   4        8.841257      8.827768
   5       10.822531     10.809880
   6       12.934000     12.921586
 
 -0.4500000E+00 -0.4500000E+00  0.2500000E+00  0.2400000E-01
   1        2.916556      2.909077
   2        3.240378      3.233024
   3        6.587324      6.573464
   4        9.356530      9.343277
   5       11.667361     11.654737
   6       15.276270     15.263500
 
 -0.3500000E+00  0.3500000E+00  0.3500000E+00  0.6000000E-02
   1        2.902281      2.894377
   2        3.002697      2.995806
   3        8.620468      8.606639
   4        8.620474      8.606665
   5       10.776828     10.763623
   6       10.948834     10.936450
 
 -0.4500000E+00  0.4500000E+00  0.3500000E+00  0.2400000E-01
   1        2.523496      2.516400
   2        2.685669      2.678419
   3        9.083964      9.070473
   4        9.091740      9.078001
   5       12.268591     12.256344
   6       13.075529     13.061905
 
 -0.4500000E+00 -0.4500000E+00  0.3500000E+00  0.8000000E-02
   1        2.369635      2.362546
   2        2.369636      2.362548
   3        9.016364      9.002685
   4       11.445019     11.432030
   5       11.445023     11.432049
   6       15.584617     15.570694
 
 -0.4500000E+00  0.4500000E+00  0.4500000E+00  0.6000000E-02
   1        2.067933      2.060924
   2        2.114667      2.107595
   3       11.349094     11.336010
   4       11.349096     11.336028
   5       12.257815     12.245682
   6       13.556453     13.541798
