       N       E                     dE             d eps       ncg     rms          rms(c)
DAV:   1     0.704494067437E+01    0.70449E+01   -0.15069E+03  1158   0.401E+02
DAV:   2    -0.134432914716E+01   -0.83893E+01   -0.68072E+01  1800   0.541E+01
DAV:   3    -0.139964357927E+01   -0.55314E-01   -0.55304E-01  1080   0.611E+00
DAV:   4    -0.139995779489E+01   -0.31422E-03   -0.31425E-03  1416   0.285E-01
DAV:   5    -0.139996110888E+01   -0.33140E-05   -0.33146E-05   918   0.183E-02    0.769E+00
DAV:   6    -0.117041004276E+02   -0.10304E+02   -0.33178E+00  1104   0.829E+00    0.389E+00
DAV:   7    -0.117834366919E+02   -0.79336E-01   -0.24493E-02  1236   0.136E+00    0.344E+00
DAV:   8    -0.117559710095E+02    0.27466E-01   -0.42559E-01  1152   0.494E+00    0.242E+00
DAV:   9    -0.118499039102E+02   -0.93933E-01   -0.97847E-02  1206   0.254E+00    0.494E-01
DAV:  10    -0.118586064687E+02   -0.87026E-02   -0.19181E-03  1188   0.381E-01    0.182E-01
DAV:  11    -0.118594916797E+02   -0.88521E-03   -0.12144E-03  1152   0.254E-01    0.594E-02
DAV:  12    -0.118595437335E+02   -0.52054E-04   -0.13200E-04   642   0.127E-01
   1 F= -.11859544E+02 E0= -.11859739E+02  d E =0.585660E-03  mag=    -0.0126
