       N       E                     dE             d eps       ncg     rms          rms(c)
DAV:   1    -0.643998173433E+01   -0.64400E+01   -0.11620E+03   552   0.305E+02
DAV:   2    -0.123125408496E+02   -0.58726E+01   -0.55940E+01   870   0.493E+01
DAV:   3    -0.123423792691E+02   -0.29838E-01   -0.29814E-01   546   0.480E+00
DAV:   4    -0.123424325700E+02   -0.53301E-04   -0.53301E-04   720   0.176E-01
DAV:   5    -0.123424326357E+02   -0.65751E-07   -0.66684E-07   474   0.525E-03    0.324E+00
DAV:   6    -0.120119013571E+02    0.33053E+00   -0.20601E-01   618   0.330E+00    0.173E+00
DAV:   7    -0.118605948785E+02    0.15131E+00   -0.29861E-01   636   0.387E+00    0.126E-01
DAV:   8    -0.118595743305E+02    0.10205E-02   -0.79720E-04   582   0.208E-01    0.316E-02
DAV:   9    -0.118595868647E+02   -0.12534E-04   -0.79260E-05   342   0.678E-02
   1 F= -.11859587E+02 E0= -.11859792E+02  d E =0.614858E-03
