 vasp.5.2.12 11Nov11 complex                                                    
  
 executed on             LinuxIFC date 2012.10.17  10:12:40
 running on    1 nodes
 distr:  one band on    1 nodes,    1 groups


--------------------------------------------------------------------------------------------------------


 INCAR:
 POTCAR:    PAW_PBE Ta 17Jan2003                  
 POTCAR:    PAW_PBE Ta 17Jan2003                  
   VRHFIN =Ta:  6s5d                                                            
   LEXCH  = PE                                                                  
   EATOM  =   130.6506 eV,    9.6025 Ry                                         
                                                                                
   TITEL  = PAW_PBE Ta 17Jan2003                                                
   LULTRA =        F    use ultrasoft PP ?                                      
   IUNSCR =        1    unscreen: 0-lin 1-nonlin 2-no                           
   RPACOR =    2.330    partial core radius                                     
   POMASS =  180.948; ZVAL   =    5.000    mass and valenz                      
   RCORE  =    2.900    outmost cutoff radius                                   
   RWIGS  =    2.840; RWIGS  =    1.503    wigner-seitz radius (au A)           
   ENMAX  =  223.667; ENMIN  =  167.750 eV                                      
   RCLOC  =    2.205    cutoff for local pot                                    
   LCOR   =        T    correct aug charges                                     
   LPAW   =        T    paw PP                                                  
   EAUG   =  332.075                                                            
   DEXC   =    -.049                                                            
   RMAX   =    3.083    core radius for proj-oper                               
   RAUG   =    1.300    factor for augmentation sphere                          
   RDEP   =    3.060    radius for radial grids                                 
   QCUT   =   -4.055; QGAM   =    8.109    optimization parameters              
                                                                                
   Description                                                                  
     l     E      TYP  RCUT    TYP  RCUT                                        
     2   .000     23  2.500                                                     
     2   .000     23  2.500                                                     
     0   .000     23  2.500                                                     
     0   .000     23  2.500                                                     
     1   .000     23  2.900                                                     
     1  2.000     23  2.900                                                     
     3   .000      7   .000                                                     
  local pseudopotential read in
  partial core-charges read in
  atomic valenz-charges read in
  non local Contribution for L=           2  read in
    real space projection operators read in
  non local Contribution for L=           2  read in
    real space projection operators read in
  non local Contribution for L=           0  read in
    real space projection operators read in
  non local Contribution for L=           0  read in
    real space projection operators read in
  non local Contribution for L=           1  read in
    real space projection operators read in
  non local Contribution for L=           1  read in
    real space projection operators read in
    PAW grid and wavefunctions read in
 
   number of l-projection  operators is LMAX  =           6
   number of lm-projection operators is LMMAX =          18
 
  PAW_PBE Ta 17Jan2003                  :
 energy of atom  1       EATOM= -130.6506
 kinetic energy error for atom=    0.0156 (will be added to EATOM!!)
 
 
 POSCAR: Ta                                      
  positions in cartesian coordinates
  No initial velocities read in
 exchange correlation table for  LEXCH =        8
   RHO(1)=    0.500       N(1)  =     2000
   RHO(2)=  100.500       N(2)  =     4000
 


--------------------------------------------------------------------------------------------------------


 ion  position               nearest neighbor table
   1  0.000  0.000  0.000-
 
  LATTYP: Found a body centered cubic cell.
 ALAT       =     3.3100000000
  
  Lattice vectors:
  
 A1 = (   2.8665440865,   0.0000000000,   0.0000000000)
 A2 = (  -0.9555146955,   2.7026036829,   0.0000000000)
 A3 = (  -0.9555146955,  -1.3513018414,   2.3405234457)
 Subroutine PRICEL returns:
 Original cell was already a primitive cell.
 

Analysis of symmetry for initial positions (statically):

 Routine SETGRP: Setting up the symmetry group for a 
 body centered cubic supercell.


 Subroutine GETGRP returns: Found 48 space group operations
 (whereof 48 operations were pure point group operations)
 out of a pool of 48 trial point group operations.


The static configuration has the point symmetry O_h .

Analysis of symmetry for dynamics (positions and initial velocities):

 Subroutine DYNSYM returns: Found 48 space group operations
 (whereof 48 operations were pure point group operations)
 out of a pool of 48 trial space group operations
 (whereof 48 operations were pure point group operations)
 and found also     1 'primitive' translations


The dynamic configuration has the point symmetry O_h .

Analysis of magnetic symmetry:

 Subroutine MAGSYM returns: Found 48 space group operations
 (whereof 48 operations were pure point group operations)
 out of a pool of 48 trial space group operations
 (whereof 48 operations were pure point group operations)
 and found also     1 'primitive' translations


The magnetic configuration has the point symmetry O_h .
 
 
 KPOINTS: KPOINTS created by Atomic Simulation Env

Automatic generation of k-mesh.
 
 Subroutine IBZKPT returns following result:
 ===========================================
 
 Found     44 irreducible k-points:
 
 Following reciprocal coordinates:
            Coordinates               Weight
  0.050000  0.050000  0.050000      8.000000
  0.150000  0.050000  0.050000     24.000000
  0.250000  0.050000  0.050000     24.000000
  0.350000  0.050000  0.050000     24.000000
  0.450000  0.050000  0.050000     12.000000
 -0.050000  0.050000  0.050000      6.000000
  0.150000  0.150000  0.050000     24.000000
  0.250000  0.150000  0.050000     48.000000
  0.350000  0.150000  0.050000     48.000000
 -0.150000  0.150000  0.050000     24.000000
  0.250000  0.250000  0.050000     24.000000
  0.350000  0.250000  0.050000     24.000000
 -0.250000  0.250000  0.050000     24.000000
 -0.150000  0.250000  0.050000     24.000000
 -0.350000  0.350000  0.050000     24.000000
 -0.250000  0.350000  0.050000     48.000000
 -0.450000  0.450000  0.050000     24.000000
 -0.350000  0.450000  0.050000     48.000000
 -0.250000  0.450000  0.050000     24.000000
 -0.450000 -0.450000  0.050000     24.000000
 -0.350000 -0.450000  0.050000     48.000000
 -0.350000 -0.350000  0.050000      8.000000
  0.150000  0.150000  0.150000      8.000000
  0.250000  0.150000  0.150000     24.000000
  0.350000  0.150000  0.150000     12.000000
 -0.150000  0.150000  0.150000      6.000000
  0.250000  0.250000  0.150000     24.000000
 -0.250000  0.250000  0.150000     24.000000
 -0.350000  0.350000  0.150000     24.000000
 -0.250000  0.350000  0.150000     24.000000
 -0.450000  0.450000  0.150000     24.000000
 -0.350000  0.450000  0.150000     48.000000
 -0.450000 -0.450000  0.150000     24.000000
 -0.350000 -0.450000  0.150000     24.000000
  0.250000  0.250000  0.250000      2.000000
 -0.250000  0.250000  0.250000      6.000000
 -0.350000  0.350000  0.250000     24.000000
 -0.450000  0.450000  0.250000     24.000000
 -0.350000  0.450000  0.250000     24.000000
 -0.450000 -0.450000  0.250000     24.000000
 -0.350000  0.350000  0.350000      6.000000
 -0.450000  0.450000  0.350000     24.000000
 -0.450000 -0.450000  0.350000      8.000000
 -0.450000  0.450000  0.450000      6.000000
 
 Following cartesian coordinates:
            Coordinates               Weight
  0.017443  0.024668  0.042725      8.000000
  0.052328  0.037001  0.064088     24.000000
  0.087213  0.049335  0.085451     24.000000
  0.122098  0.061669  0.106814     24.000000
  0.156983  0.074003  0.128176     12.000000
 -0.017443  0.012334  0.021363      6.000000
  0.052328  0.074003  0.085451     24.000000
  0.087213  0.086336  0.106814     48.000000
  0.122098  0.098670  0.128176     48.000000
 -0.052328  0.037001  0.021363     24.000000
  0.087213  0.123338  0.128176     24.000000
  0.122098  0.135672  0.149539     24.000000
 -0.087213  0.061669  0.021363     24.000000
 -0.052328  0.074003  0.042725     24.000000
 -0.122098  0.086336  0.021363     24.000000
 -0.087213  0.098670  0.042725     48.000000
 -0.156983  0.111004  0.021363     24.000000
 -0.122098  0.123338  0.042725     48.000000
 -0.087213  0.135672  0.064088     24.000000
 -0.156983 -0.222008 -0.170902     24.000000
 -0.122098 -0.209674 -0.149539     48.000000
 -0.122098 -0.172673 -0.128176      8.000000
  0.052328  0.074003  0.128176      8.000000
  0.087213  0.086336  0.149539     24.000000
  0.122098  0.098670  0.170902     12.000000
 -0.052328  0.037001  0.064088      6.000000
  0.087213  0.123338  0.170902     24.000000
 -0.087213  0.061669  0.064088     24.000000
 -0.122098  0.086336  0.064088     24.000000
 -0.087213  0.098670  0.085451     24.000000
 -0.156983  0.111004  0.064088     24.000000
 -0.122098  0.123338  0.085451     48.000000
 -0.156983 -0.222008 -0.128176     24.000000
 -0.122098 -0.209674 -0.106814     24.000000
  0.087213  0.123338  0.213627      2.000000
 -0.087213  0.061669  0.106814      6.000000
 -0.122098  0.086336  0.106814     24.000000
 -0.156983  0.111004  0.106814     24.000000
 -0.122098  0.123338  0.128176     24.000000
 -0.156983 -0.222008 -0.085451     24.000000
 -0.122098  0.086336  0.149539      6.000000
 -0.156983  0.111004  0.149539     24.000000
 -0.156983 -0.222008 -0.042725      8.000000
 -0.156983  0.111004  0.192265      6.000000
 


--------------------------------------------------------------------------------------------------------




 Dimension of arrays:
   k-points           NKPTS =     44   k-points in BZ     NKDIM =     44   number of bands    NBANDS=      6
   number of dos      NEDOS =    301   number of ions     NIONS =      1
   non local maximal  LDIM  =      6   non local SUM 2l+1 LMDIM =     18
   total plane-waves  NPLWV =   4096
   max r-space proj   IRMAX =      1   max aug-charges    IRDMAX=  15575
   dimension x,y,z NGX =    16 NGY =   16 NGZ =   16
   dimension x,y,z NGXF=    32 NGYF=   32 NGZF=   32
   support grid    NGXF=    32 NGYF=   32 NGZF=   32
   ions per type =               1
 NGX,Y,Z   is equivalent  to a cutoff of   9.28,  9.28,  9.28 a.u.
 NGXF,Y,Z  is equivalent  to a cutoff of  18.56, 18.56, 18.56 a.u.


 I would recommend the setting:
   dimension x,y,z NGX =    15 NGY =   15 NGZ =   15
 SYSTEM =  unknown system                          
 POSCAR =  Ta                                      

 Startparameter for this run:
   NWRITE =      2    write-flag & timer
   PREC   = accura    normal or accurate (medium, high low for compatibility)
   ISTART =      0    job   : 0-new  1-cont  2-samecut
   ICHARG =      2    charge: 1-file 2-atom 10-const
   ISPIN  =      2    spin polarized calculation?
   LNONCOLLINEAR =      F non collinear calculations
   LSORBIT =      F    spin-orbit coupling
   INIWAV =      1    electr: 0-lowe 1-rand  2-diag
   LASPH  =      F    aspherical Exc in radial PAW
   METAGGA=      F    non-selfconsistent MetaGGA calc.

 Electronic Relaxation 1
   ENCUT  =  250.0 eV  18.37 Ry    4.29 a.u.   3.70  3.70  3.70*2*pi/ulx,y,z
   ENINI  =  250.0     initial cutoff
   ENAUG  =  332.1 eV  augmentation charge cutoff
   NELM   =     60;   NELMIN=  2; NELMDL= -5     # of ELM steps 
   EDIFF  = 0.1E-03   stopping-criterion for ELM
   LREAL  =      F    real-space projection
   NLSPLINE    = F    spline interpolate recip. space projectors
   LCOMPAT=      F    compatible to vasp.4.4
   GGA_COMPAT  = T    GGA compatible to vasp.4.4-vasp.4.6
   LMAXPAW     = -100 max onsite density
   LMAXMIX     =    2 max onsite mixed and CHGCAR
   VOSKOWN=      0    Vosko Wilk Nusair interpolation
   ROPT   =    0.00000
 Ionic relaxation
   EDIFFG = 0.1E-02   stopping-criterion for IOM
   NSW    =      0    number of steps for IOM
   NBLOCK =      1;   KBLOCK =      1    inner block; outer block 
   IBRION =     -1    ionic relax: 0-MD 1-quasi-New 2-CG
   NFREE  =      0    steps in history (QN), initial steepest desc. (CG)
   ISIF   =      2    stress and relaxation
   IWAVPR =     10    prediction:  0-non 1-charg 2-wave 3-comb
   ISYM   =      2    0-nonsym 1-usesym 2-fastsym
   LCORR  =      T    Harris-Foulkes like correction to forces

   POTIM  = 0.5000    time-step for ionic-motion
   TEIN   =    0.0    initial temperature
   TEBEG  =    0.0;   TEEND  =   0.0 temperature during run
   SMASS  =  -3.00    Nose mass-parameter (am)
   estimated Nose-frequenzy (Omega)   =  0.10E-29 period in steps =****** mass=  -0.188E-27a.u.
   SCALEE = 1.0000    scale energy and forces
   NPACO  =    256;   APACO  = 16.0  distance and # of slots for P.C.
   PSTRESS=    0.0 pullay stress

  Mass of Ions in am
   POMASS = 180.95
  Ionic Valenz
   ZVAL   =   5.00
  Atomic Wigner-Seitz radii
   RWIGS  =  -1.00
  virtual crystal weights 
   VCA    =   1.00
   NELECT =       5.0000    total number of electrons
   NUPDOWN=      -1.0000    fix difference up-down

 DOS related values:
   EMIN   =  10.00;   EMAX   =-10.00  energy-range for DOS
   EFERMI =   0.00
   ISMEAR =     1;   SIGMA  =   0.05  broadening in eV -4-tet -1-fermi 0-gaus

 Electronic relaxation 2 (details)
   IALGO  =     38    algorithm
   LDIAG  =      T    sub-space diagonalisation (order eigenvalues)
   LSUBROT=      T    optimize rotation matrix (better conditioning)
   TURBO    =      0    0=normal 1=particle mesh
   IRESTART =      0    0=no restart 2=restart with 2 vectors
   NREBOOT  =      0    no. of reboots
   NMIN     =      0    reboot dimension
   EREF     =   0.00    reference energy to select bands
   IMIX   =      4    mixing-type and parameters
     AMIX     =   0.40;   BMIX     =  1.00
     AMIX_MAG =   1.60;   BMIX_MAG =  1.00
     AMIN     =   0.10
     WC   =   100.;   INIMIX=   1;  MIXPRE=   1

 Intra band minimization:
   WEIMIN = 0.0000     energy-eigenvalue tresh-hold
   EBREAK =  0.42E-05  absolut break condition
   DEPER  =   0.30     relativ break condition  

   TIME   =   0.40     timestep for ELM

  volume/ion in A,a.u.               =      18.13       122.36
  Fermi-wavevector in a.u.,A,eV,Ry     =   1.065566  2.013627 15.448462  1.135430
  Thomas-Fermi vector in A             =   2.201121
 
 Write flags
   LWAVE  =      T    write WAVECAR
   LCHARG =      T    write CHGCAR
   LVTOT  =      F    write LOCPOT, total local potential
   LVHAR  =      F    write LOCPOT, Hartree potential only
   LELF   =      F    write electronic localiz. function (ELF)
   LORBIT =     11    0 simple, 1 ext, 2 COOP (PROOUT)


 Dipole corrections
   LMONO  =      F    monopole corrections only (constant potential shift)
   LDIPOL =      F    correct potential (dipole corrections)
   IDIPOL =      0    1-x, 2-y, 3-z, 4-all directions 
   EPSILON=  1.0000000 bulk dielectric constant

 Exchange correlation treatment:
   GGA     =    --    GGA type
   LEXCH   =     8    internal setting for exchange type
   VOSKOWN=      0    Vosko Wilk Nusair interpolation
   LHFCALC =     F    Hartree Fock is set to
   LHFONE  =     F    Hartree Fock one center treatment
   AEXX    =    0.0000 exact exchange contribution

 Linear response parameters
   LEPSILON=     F    determine dielectric tensor
   LRPA    =     F    only Hartree local field effects (RPA)
   LNABLA  =     F    use nabla operator in PAW spheres
   LVEL    =     F    velocity operator in full k-point grid
   LINTERFAST=   F  fast interpolation
   KINTER  =     0    interpolate to denser k-point grid
   CSHIFT  =0.1000    complex shift for real part using Kramers Kronig
   OMEGAMAX=  -1.0    maximum frequency
   RTIME   =    0.100 relaxation time in fs

 Orbital magnetization related:
   ORBITALMAG=     F  switch on orbital magnetization
   LCHIMAG   =     F  perturbation theory with respect to B field
   DQ        =  0.001000  dq finite difference perturbation B field



--------------------------------------------------------------------------------------------------------


 Static calculation
 charge density and potential will be updated during run
 spin polarized calculation
 Variant of blocked Davidson
 Davidson routine will perform the subspace rotation
 perform sub-space diagonalisation
    after iterative eigenvector-optimisation
 modified Broyden-mixing scheme, WC =      100.0
 initial mixing is a Kerker type mixing with AMIX =  0.4000 and BMIX =      1.0000
 Hartree-type preconditioning will be used
 using additional bands            3
 reciprocal scheme for non local part
 use partial core corrections
 calculate Harris-corrections to forces 
   (improved forces if not selfconsistent)
 use gradient corrections 
 use of overlap-Matrix (Vanderbilt PP)
 Methfessel and Paxton  Order N= 1 SIGMA  =   0.05


--------------------------------------------------------------------------------------------------------


  energy-cutoff  :      250.00
  volume of cell :       18.13
      direct lattice vectors                 reciprocal lattice vectors
     2.866544087  0.000000000  0.000000000     0.348852126  0.123337852  0.213627426
    -0.955514696  2.702603683  0.000000000     0.000000000  0.370013556  0.213627426
    -0.955514696 -1.351301841  2.340523446     0.000000000  0.000000000  0.427254853

  length of vectors
     2.866544087  2.866544087  2.866544087     0.427254853  0.427254853  0.427254853


 
 k-points in units of 2pi/SCALE and weight: KPOINTS created by Atomic Simulation Env
   0.01744261  0.02466757  0.04272549       0.008
   0.05232782  0.03700136  0.06408823       0.024
   0.08721303  0.04933514  0.08545097       0.024
   0.12209824  0.06166893  0.10681371       0.024
   0.15698346  0.07400271  0.12817646       0.012
  -0.01744261  0.01233379  0.02136274       0.006
   0.05232782  0.07400271  0.08545097       0.024
   0.08721303  0.08633650  0.10681371       0.048
   0.12209824  0.09867028  0.12817646       0.048
  -0.05232782  0.03700136  0.02136274       0.024
   0.08721303  0.12333785  0.12817646       0.024
   0.12209824  0.13567164  0.14953920       0.024
  -0.08721303  0.06166893  0.02136274       0.024
  -0.05232782  0.07400271  0.04272549       0.024
  -0.12209824  0.08633650  0.02136274       0.024
  -0.08721303  0.09867028  0.04272549       0.048
  -0.15698346  0.11100407  0.02136274       0.024
  -0.12209824  0.12333785  0.04272549       0.048
  -0.08721303  0.13567164  0.06408823       0.024
  -0.15698346 -0.22200813 -0.17090194       0.024
  -0.12209824 -0.20967435 -0.14953920       0.048
  -0.12209824 -0.17267299 -0.12817646       0.008
   0.05232782  0.07400271  0.12817646       0.008
   0.08721303  0.08633650  0.14953920       0.024
   0.12209824  0.09867028  0.17090194       0.012
  -0.05232782  0.03700136  0.06408823       0.006
   0.08721303  0.12333785  0.17090194       0.024
  -0.08721303  0.06166893  0.06408823       0.024
  -0.12209824  0.08633650  0.06408823       0.024
  -0.08721303  0.09867028  0.08545097       0.024
  -0.15698346  0.11100407  0.06408823       0.024
  -0.12209824  0.12333785  0.08545097       0.048
  -0.15698346 -0.22200813 -0.12817646       0.024
  -0.12209824 -0.20967435 -0.10681371       0.024
   0.08721303  0.12333785  0.21362743       0.002
  -0.08721303  0.06166893  0.10681371       0.006
  -0.12209824  0.08633650  0.10681371       0.024
  -0.15698346  0.11100407  0.10681371       0.024
  -0.12209824  0.12333785  0.12817646       0.024
  -0.15698346 -0.22200813 -0.08545097       0.024
  -0.12209824  0.08633650  0.14953920       0.006
  -0.15698346  0.11100407  0.14953920       0.024
  -0.15698346 -0.22200813 -0.04272549       0.008
  -0.15698346  0.11100407  0.19226468       0.006
 
 k-points in reciprocal lattice and weights: KPOINTS created by Atomic Simulation Env
   0.05000000  0.05000000  0.05000000       0.008
   0.15000000  0.05000000  0.05000000       0.024
   0.25000000  0.05000000  0.05000000       0.024
   0.35000000  0.05000000  0.05000000       0.024
   0.45000000  0.05000000  0.05000000       0.012
  -0.05000000  0.05000000  0.05000000       0.006
   0.15000000  0.15000000  0.05000000       0.024
   0.25000000  0.15000000  0.05000000       0.048
   0.35000000  0.15000000  0.05000000       0.048
  -0.15000000  0.15000000  0.05000000       0.024
   0.25000000  0.25000000  0.05000000       0.024
   0.35000000  0.25000000  0.05000000       0.024
  -0.25000000  0.25000000  0.05000000       0.024
  -0.15000000  0.25000000  0.05000000       0.024
  -0.35000000  0.35000000  0.05000000       0.024
  -0.25000000  0.35000000  0.05000000       0.048
  -0.45000000  0.45000000  0.05000000       0.024
  -0.35000000  0.45000000  0.05000000       0.048
  -0.25000000  0.45000000  0.05000000       0.024
  -0.45000000 -0.45000000  0.05000000       0.024
  -0.35000000 -0.45000000  0.05000000       0.048
  -0.35000000 -0.35000000  0.05000000       0.008
   0.15000000  0.15000000  0.15000000       0.008
   0.25000000  0.15000000  0.15000000       0.024
   0.35000000  0.15000000  0.15000000       0.012
  -0.15000000  0.15000000  0.15000000       0.006
   0.25000000  0.25000000  0.15000000       0.024
  -0.25000000  0.25000000  0.15000000       0.024
  -0.35000000  0.35000000  0.15000000       0.024
  -0.25000000  0.35000000  0.15000000       0.024
  -0.45000000  0.45000000  0.15000000       0.024
  -0.35000000  0.45000000  0.15000000       0.048
  -0.45000000 -0.45000000  0.15000000       0.024
  -0.35000000 -0.45000000  0.15000000       0.024
   0.25000000  0.25000000  0.25000000       0.002
  -0.25000000  0.25000000  0.25000000       0.006
  -0.35000000  0.35000000  0.25000000       0.024
  -0.45000000  0.45000000  0.25000000       0.024
  -0.35000000  0.45000000  0.25000000       0.024
  -0.45000000 -0.45000000  0.25000000       0.024
  -0.35000000  0.35000000  0.35000000       0.006
  -0.45000000  0.45000000  0.35000000       0.024
  -0.45000000 -0.45000000  0.35000000       0.008
  -0.45000000  0.45000000  0.45000000       0.006
 
 position of ions in fractional coordinates (direct lattice) 
   0.00000000  0.00000000  0.00000000
 
 position of ions in cartesian coordinates  (Angst):
   0.00000000  0.00000000  0.00000000
 


--------------------------------------------------------------------------------------------------------


 k-point  1 :  0.05000.05000.0500  plane waves:     162
 k-point  2 :  0.15000.05000.0500  plane waves:     165
 k-point  3 :  0.25000.05000.0500  plane waves:     167
 k-point  4 :  0.35000.05000.0500  plane waves:     166
 k-point  5 :  0.45000.05000.0500  plane waves:     166
 k-point  6 :  -.05000.05000.0500  plane waves:     161
 k-point  7 :  0.15000.15000.0500  plane waves:     165
 k-point  8 :  0.25000.15000.0500  plane waves:     166
 k-point  9 :  0.35000.15000.0500  plane waves:     162
 k-point 10 :  -.15000.15000.0500  plane waves:     160
 k-point 11 :  0.25000.25000.0500  plane waves:     161
 k-point 12 :  0.35000.25000.0500  plane waves:     160
 k-point 13 :  -.25000.25000.0500  plane waves:     162
 k-point 14 :  -.15000.25000.0500  plane waves:     167
 k-point 15 :  -.35000.35000.0500  plane waves:     165
 k-point 16 :  -.25000.35000.0500  plane waves:     164
 k-point 17 :  -.45000.45000.0500  plane waves:     162
 k-point 18 :  -.35000.45000.0500  plane waves:     164
 k-point 19 :  -.25000.45000.0500  plane waves:     166
 k-point 20 :  -.4500-.45000.0500  plane waves:     164
 k-point 21 :  -.3500-.45000.0500  plane waves:     161
 k-point 22 :  -.3500-.35000.0500  plane waves:     155
 k-point 23 :  0.15000.15000.1500  plane waves:     162
 k-point 24 :  0.25000.15000.1500  plane waves:     158
 k-point 25 :  0.35000.15000.1500  plane waves:     162
 k-point 26 :  -.15000.15000.1500  plane waves:     164
 k-point 27 :  0.25000.25000.1500  plane waves:     161
 k-point 28 :  -.25000.25000.1500  plane waves:     165
 k-point 29 :  -.35000.35000.1500  plane waves:     165
 k-point 30 :  -.25000.35000.1500  plane waves:     161
 k-point 31 :  -.45000.45000.1500  plane waves:     164
 k-point 32 :  -.35000.45000.1500  plane waves:     161
 k-point 33 :  -.4500-.45000.1500  plane waves:     162
 k-point 34 :  -.3500-.45000.1500  plane waves:     161
 k-point 35 :  0.25000.25000.2500  plane waves:     152
 k-point 36 :  -.25000.25000.2500  plane waves:     160
 k-point 37 :  -.35000.35000.2500  plane waves:     165
 k-point 38 :  -.45000.45000.2500  plane waves:     161
 k-point 39 :  -.35000.45000.2500  plane waves:     162
 k-point 40 :  -.4500-.45000.2500  plane waves:     157
 k-point 41 :  -.35000.35000.3500  plane waves:     156
 k-point 42 :  -.45000.45000.3500  plane waves:     161
 k-point 43 :  -.4500-.45000.3500  plane waves:     167
 k-point 44 :  -.45000.45000.4500  plane waves:     164

 maximum and minimum number of plane-waves per node :       167      152

 maximum number of plane-waves:       167
 maximum index in each direction: 
   IXMAX=    4   IYMAX=    4   IZMAX=    3
   IXMIN=   -4   IYMIN=   -4   IZMIN=   -4

 WARNING: aliasing errors must be expected set NGX to  18 to avoid them
 WARNING: aliasing errors must be expected set NGY to  18 to avoid them
 NGZ is ok and might be reduce to  16
 aliasing errors are usually negligible using standard VASP settings
 and one can safely disregard these warnings

 serial   3D FFT for wavefunctions
 parallel 3D FFT for charge:
    minimum data exchange during FFTs selected (reduces bandwidth)


 total amount of memory used by VASP on root node    36646. kBytes
========================================================================

   base      :      30000. kBytes
   nonl-proj :       1060. kBytes
   fftplans  :       1184. kBytes
   grid      :       2809. kBytes
   one-center:         31. kBytes
   wavefun   :       1562. kBytes
 
 Broyden mixing: mesh for mixing (old mesh)
   NGX =  7   NGY =  7   NGZ =  7
  (NGX  = 32   NGY  = 32   NGZ  = 32)
  gives a total of    343 points

 initial charge density was supplied:
 charge density of overlapping atoms calculated
 number of electron       5.0000000 magnetization       6.0000000
 keeping initial charge density in first step


--------------------------------------------------------------------------------------------------------


 Maximum index for augmentation-charges        15009 (set IRDMAX)


--------------------------------------------------------------------------------------------------------


 First call to EWALD:  gamma=   0.675
 Maximum number of real-space cells 3x 3x 3
 Maximum number of reciprocal cells 3x 3x 3

    FEWALD:  cpu time    0.00: real time    0.00


----------------------------------------- Iteration    1(   1)  ---------------------------------------


    POTLOK:  cpu time    0.11: real time    0.11
    SETDIJ:  cpu time    0.03: real time    0.03
     EDDAV:  cpu time    0.64: real time    0.64
       DOS:  cpu time    0.00: real time    0.00
    --------------------------------------------
      LOOP:  cpu time    0.78: real time    0.81

 eigenvalue-minimisations  :  1158
 total energy-change (2. order) : 0.7044941E+01  (-0.1506877E+03)
 number of electron       5.0000000 magnetization       6.0000000
 augmentation part        5.0000000 magnetization       6.0000000

 Free energy of the ion-electron system (eV)
  ---------------------------------------------------
  alpha Z        PSCENC =        30.58334069
  Ewald energy   TEWEN  =      -197.90100875
  -1/2 Hartree   DENC   =        -2.50452612
  -exchange  EXHF       =         0.00000000
  -V(xc)+E(xc)   XCENC  =       -60.72898754
  PAW double counting   =       143.51874798      -69.33493833
  entropy T*S    EENTRO =         0.00000863
  eigenvalues    EBANDS =        32.77728020
  atomic energy  EATOM  =       130.63502393
  ---------------------------------------------------
  free energy    TOTEN  =         7.04494067 eV

  energy without entropy =        7.04493205  energy(sigma->0) =        7.04493780


--------------------------------------------------------------------------------------------------------




----------------------------------------- Iteration    1(   2)  ---------------------------------------


     EDDAV:  cpu time    0.92: real time    0.92
       DOS:  cpu time    0.00: real time    0.00
    --------------------------------------------
      LOOP:  cpu time    0.93: real time    0.96

 eigenvalue-minimisations  :  1800
 total energy-change (2. order) :-0.8389270E+01  (-0.6807207E+01)
 number of electron       5.0000000 magnetization       6.0000000
 augmentation part        5.0000000 magnetization       6.0000000

 Free energy of the ion-electron system (eV)
  ---------------------------------------------------
  alpha Z        PSCENC =        30.58334069
  Ewald energy   TEWEN  =      -197.90100875
  -1/2 Hartree   DENC   =        -2.50452612
  -exchange  EXHF       =         0.00000000
  -V(xc)+E(xc)   XCENC  =       -60.72898754
  PAW double counting   =       143.51874798      -69.33493833
  entropy T*S    EENTRO =        -0.00007166
  eigenvalues    EBANDS =        24.38809066
  atomic energy  EATOM  =       130.63502393
  ---------------------------------------------------
  free energy    TOTEN  =        -1.34432915 eV

  energy without entropy =       -1.34425749  energy(sigma->0) =       -1.34430526


--------------------------------------------------------------------------------------------------------




----------------------------------------- Iteration    1(   3)  ---------------------------------------


     EDDAV:  cpu time    0.60: real time    0.60
       DOS:  cpu time    0.00: real time    0.00
    --------------------------------------------
      LOOP:  cpu time    0.60: real time    0.62

 eigenvalue-minimisations  :  1080
 total energy-change (2. order) :-0.5531443E-01  (-0.5530438E-01)
 number of electron       5.0000000 magnetization       6.0000000
 augmentation part        5.0000000 magnetization       6.0000000

 Free energy of the ion-electron system (eV)
  ---------------------------------------------------
  alpha Z        PSCENC =        30.58334069
  Ewald energy   TEWEN  =      -197.90100875
  -1/2 Hartree   DENC   =        -2.50452612
  -exchange  EXHF       =         0.00000000
  -V(xc)+E(xc)   XCENC  =       -60.72898754
  PAW double counting   =       143.51874798      -69.33493833
  entropy T*S    EENTRO =        -0.00001359
  eigenvalues    EBANDS =        24.33271816
  atomic energy  EATOM  =       130.63502393
  ---------------------------------------------------
  free energy    TOTEN  =        -1.39964358 eV

  energy without entropy =       -1.39962999  energy(sigma->0) =       -1.39963905


--------------------------------------------------------------------------------------------------------




----------------------------------------- Iteration    1(   4)  ---------------------------------------


     EDDAV:  cpu time    0.75: real time    0.75
       DOS:  cpu time    0.00: real time    0.00
    --------------------------------------------
      LOOP:  cpu time    0.75: real time    0.77

 eigenvalue-minimisations  :  1416
 total energy-change (2. order) :-0.3142156E-03  (-0.3142513E-03)
 number of electron       5.0000000 magnetization       6.0000000
 augmentation part        5.0000000 magnetization       6.0000000

 Free energy of the ion-electron system (eV)
  ---------------------------------------------------
  alpha Z        PSCENC =        30.58334069
  Ewald energy   TEWEN  =      -197.90100875
  -1/2 Hartree   DENC   =        -2.50452612
  -exchange  EXHF       =         0.00000000
  -V(xc)+E(xc)   XCENC  =       -60.72898754
  PAW double counting   =       143.51874798      -69.33493833
  entropy T*S    EENTRO =        -0.00001090
  eigenvalues    EBANDS =        24.33240125
  atomic energy  EATOM  =       130.63502393
  ---------------------------------------------------
  free energy    TOTEN  =        -1.39995779 eV

  energy without entropy =       -1.39994689  energy(sigma->0) =       -1.39995416


--------------------------------------------------------------------------------------------------------




----------------------------------------- Iteration    1(   5)  ---------------------------------------


     EDDAV:  cpu time    0.54: real time    0.54
       DOS:  cpu time    0.00: real time    0.00
    CHARGE:  cpu time    0.07: real time    0.07
    MIXING:  cpu time    0.00: real time    0.00
    --------------------------------------------
      LOOP:  cpu time    0.62: real time    0.71

 eigenvalue-minimisations  :   918
 total energy-change (2. order) :-0.3313987E-05  (-0.3314560E-05)
 number of electron       5.0000001 magnetization       1.9574224
 augmentation part        0.4497194 magnetization      -0.8475991

 Broyden mixing:
  rms(total) = 0.76885E+00    rms(broyden)= 0.76871E+00
  rms(prec ) = 0.98643E+00
  weight for this iteration     100.00

 Free energy of the ion-electron system (eV)
  ---------------------------------------------------
  alpha Z        PSCENC =        30.58334069
  Ewald energy   TEWEN  =      -197.90100875
  -1/2 Hartree   DENC   =        -2.50452612
  -exchange  EXHF       =         0.00000000
  -V(xc)+E(xc)   XCENC  =       -60.72898754
  PAW double counting   =       143.51874798      -69.33493833
  entropy T*S    EENTRO =        -0.00001079
  eigenvalues    EBANDS =        24.33239783
  atomic energy  EATOM  =       130.63502393
  ---------------------------------------------------
  free energy    TOTEN  =        -1.39996111 eV

  energy without entropy =       -1.39995032  energy(sigma->0) =       -1.39995751


--------------------------------------------------------------------------------------------------------




----------------------------------------- Iteration    1(   6)  ---------------------------------------


    POTLOK:  cpu time    0.10: real time    0.10
    SETDIJ:  cpu time    0.03: real time    0.03
     EDDAV:  cpu time    0.61: real time    0.62
       DOS:  cpu time    0.00: real time    0.00
    CHARGE:  cpu time    0.06: real time    0.06
    MIXING:  cpu time    0.00: real time    0.00
    --------------------------------------------
      LOOP:  cpu time    0.82: real time    0.83

 eigenvalue-minimisations  :  1104
 total energy-change (2. order) :-0.1030414E+02  (-0.3317754E+00)
 number of electron       5.0000001 magnetization       1.7087103
 augmentation part        0.3653027 magnetization       1.0138479

 Broyden mixing:
  rms(total) = 0.38857E+00    rms(broyden)= 0.38838E+00
  rms(prec ) = 0.11404E+01
  weight for this iteration     100.00

 eigenvalues of (default mixing * dielectric matrix)
  average eigenvalue GAMMA=   1.4911
  1.4911

 Free energy of the ion-electron system (eV)
  ---------------------------------------------------
  alpha Z        PSCENC =        30.58334069
  Ewald energy   TEWEN  =      -197.90100875
  -1/2 Hartree   DENC   =        -1.98630716
  -exchange  EXHF       =         0.00000000
  -V(xc)+E(xc)   XCENC  =       -66.16437060
  PAW double counting   =       164.50481096      -90.56207071
  entropy T*S    EENTRO =         0.00014543
  eigenvalues    EBANDS =        19.18633578
  atomic energy  EATOM  =       130.63502393
  ---------------------------------------------------
  free energy    TOTEN  =       -11.70410043 eV

  energy without entropy =      -11.70424586  energy(sigma->0) =      -11.70414891


--------------------------------------------------------------------------------------------------------




----------------------------------------- Iteration    1(   7)  ---------------------------------------


    POTLOK:  cpu time    0.10: real time    0.10
    SETDIJ:  cpu time    0.03: real time    0.03
     EDDAV:  cpu time    0.67: real time    0.67
       DOS:  cpu time    0.00: real time    0.00
    CHARGE:  cpu time    0.06: real time    0.06
    MIXING:  cpu time    0.00: real time    0.00
    --------------------------------------------
      LOOP:  cpu time    0.87: real time    1.24

 eigenvalue-minimisations  :  1236
 total energy-change (2. order) :-0.7933626E-01  (-0.2449316E-02)
 number of electron       5.0000001 magnetization       1.3231922
 augmentation part        0.3657636 magnetization       0.6899526

 Broyden mixing:
  rms(total) = 0.34446E+00    rms(broyden)= 0.34445E+00
  rms(prec ) = 0.10654E+01
  weight for this iteration     100.00

 eigenvalues of (default mixing * dielectric matrix)
  average eigenvalue GAMMA=   1.0889
  1.0889  1.0889

 Free energy of the ion-electron system (eV)
  ---------------------------------------------------
  alpha Z        PSCENC =        30.58334069
  Ewald energy   TEWEN  =      -197.90100875
  -1/2 Hartree   DENC   =        -1.86175390
  -exchange  EXHF       =         0.00000000
  -V(xc)+E(xc)   XCENC  =       -66.22647581
  PAW double counting   =       166.82794550      -92.92215802
  entropy T*S    EENTRO =        -0.00008539
  eigenvalues    EBANDS =        19.08173506
  atomic energy  EATOM  =       130.63502393
  ---------------------------------------------------
  free energy    TOTEN  =       -11.78343669 eV

  energy without entropy =      -11.78335130  energy(sigma->0) =      -11.78340823


--------------------------------------------------------------------------------------------------------




----------------------------------------- Iteration    1(   8)  ---------------------------------------


    POTLOK:  cpu time    0.10: real time    0.10
    SETDIJ:  cpu time    0.03: real time    0.03
     EDDAV:  cpu time    0.64: real time    0.64
       DOS:  cpu time    0.00: real time    0.00
    CHARGE:  cpu time    0.06: real time    0.06
    MIXING:  cpu time    0.00: real time    0.00
    --------------------------------------------
      LOOP:  cpu time    0.84: real time    0.85

 eigenvalue-minimisations  :  1152
 total energy-change (2. order) : 0.2746568E-01  (-0.4255866E-01)
 number of electron       5.0000001 magnetization       0.3582366
 augmentation part        0.3877333 magnetization      -0.0739253

 Broyden mixing:
  rms(total) = 0.24153E+00    rms(broyden)= 0.24150E+00
  rms(prec ) = 0.40466E+00
  weight for this iteration     100.00

 eigenvalues of (default mixing * dielectric matrix)
  average eigenvalue GAMMA=   1.1247
  1.3581  1.3581  0.6580

 Free energy of the ion-electron system (eV)
  ---------------------------------------------------
  alpha Z        PSCENC =        30.58334069
  Ewald energy   TEWEN  =      -197.90100875
  -1/2 Hartree   DENC   =        -0.89189382
  -exchange  EXHF       =         0.00000000
  -V(xc)+E(xc)   XCENC  =       -66.00518912
  PAW double counting   =       179.16859880     -105.57320575
  entropy T*S    EENTRO =        -0.00027013
  eigenvalues    EBANDS =        18.22863315
  atomic energy  EATOM  =       130.63502393
  ---------------------------------------------------
  free energy    TOTEN  =       -11.75597101 eV

  energy without entropy =      -11.75570088  energy(sigma->0) =      -11.75588097


--------------------------------------------------------------------------------------------------------




----------------------------------------- Iteration    1(   9)  ---------------------------------------


    POTLOK:  cpu time    0.10: real time    0.10
    SETDIJ:  cpu time    0.03: real time    0.03
     EDDAV:  cpu time    0.66: real time    0.66
       DOS:  cpu time    0.00: real time    0.00
    CHARGE:  cpu time    0.06: real time    0.06
    MIXING:  cpu time    0.00: real time    0.00
    --------------------------------------------
      LOOP:  cpu time    0.86: real time    0.88

 eigenvalue-minimisations  :  1206
 total energy-change (2. order) :-0.9393290E-01  (-0.9784696E-02)
 number of electron       5.0000001 magnetization       0.1135994
 augmentation part        0.3996829 magnetization      -0.0406313

 Broyden mixing:
  rms(total) = 0.49376E-01    rms(broyden)= 0.49291E-01
  rms(prec ) = 0.63405E-01
  weight for this iteration     100.00

 eigenvalues of (default mixing * dielectric matrix)
  average eigenvalue GAMMA=   1.1640
  2.0523  0.9665  0.9665  0.6709

 Free energy of the ion-electron system (eV)
  ---------------------------------------------------
  alpha Z        PSCENC =        30.58334069
  Ewald energy   TEWEN  =      -197.90100875
  -1/2 Hartree   DENC   =        -0.57390588
  -exchange  EXHF       =         0.00000000
  -V(xc)+E(xc)   XCENC  =       -65.98708364
  PAW double counting   =       189.53934358     -116.08067839
  entropy T*S    EENTRO =        -0.00053777
  eigenvalues    EBANDS =        17.93560230
  atomic energy  EATOM  =       130.63502393
  ---------------------------------------------------
  free energy    TOTEN  =       -11.84990391 eV

  energy without entropy =      -11.84936614  energy(sigma->0) =      -11.84972465


--------------------------------------------------------------------------------------------------------




----------------------------------------- Iteration    1(  10)  ---------------------------------------


    POTLOK:  cpu time    0.10: real time    0.10
    SETDIJ:  cpu time    0.03: real time    0.03
     EDDAV:  cpu time    0.65: real time    0.65
       DOS:  cpu time    0.00: real time    0.00
    CHARGE:  cpu time    0.06: real time    0.06
    MIXING:  cpu time    0.00: real time    0.00
    --------------------------------------------
      LOOP:  cpu time    0.85: real time    0.87

 eigenvalue-minimisations  :  1188
 total energy-change (2. order) :-0.8702558E-02  (-0.1918122E-03)
 number of electron       5.0000001 magnetization       0.0235500
 augmentation part        0.3992857 magnetization      -0.0252133

 Broyden mixing:
  rms(total) = 0.18213E-01    rms(broyden)= 0.18157E-01
  rms(prec ) = 0.34858E-01
  weight for this iteration     100.00

 eigenvalues of (default mixing * dielectric matrix)
  average eigenvalue GAMMA=   1.0735
  2.0378  0.9400  0.9400  0.8100  0.6394

 Free energy of the ion-electron system (eV)
  ---------------------------------------------------
  alpha Z        PSCENC =        30.58334069
  Ewald energy   TEWEN  =      -197.90100875
  -1/2 Hartree   DENC   =        -0.56270835
  -exchange  EXHF       =         0.00000000
  -V(xc)+E(xc)   XCENC  =       -65.98696795
  PAW double counting   =       192.09218921     -118.65052337
  entropy T*S    EENTRO =        -0.00020852
  eigenvalues    EBANDS =        17.93225665
  atomic energy  EATOM  =       130.63502393
  ---------------------------------------------------
  free energy    TOTEN  =       -11.85860647 eV

  energy without entropy =      -11.85839795  energy(sigma->0) =      -11.85853696


--------------------------------------------------------------------------------------------------------




----------------------------------------- Iteration    1(  11)  ---------------------------------------


    POTLOK:  cpu time    0.11: real time    0.11
    SETDIJ:  cpu time    0.03: real time    0.03
     EDDAV:  cpu time    0.63: real time    0.63
       DOS:  cpu time    0.00: real time    0.00
    CHARGE:  cpu time    0.06: real time    0.06
    MIXING:  cpu time    0.00: real time    0.00
    --------------------------------------------
      LOOP:  cpu time    0.83: real time    0.85

 eigenvalue-minimisations  :  1152
 total energy-change (2. order) :-0.8852110E-03  (-0.1214420E-03)
 number of electron       5.0000001 magnetization      -0.0165683
 augmentation part        0.3983457 magnetization      -0.0257932

 Broyden mixing:
  rms(total) = 0.59415E-02    rms(broyden)= 0.58922E-02
  rms(prec ) = 0.10158E-01
  weight for this iteration     100.00

 eigenvalues of (default mixing * dielectric matrix)
  average eigenvalue GAMMA=   1.1886
  1.7843  1.7843  1.0797  1.0797  0.6351  0.7682

 Free energy of the ion-electron system (eV)
  ---------------------------------------------------
  alpha Z        PSCENC =        30.58334069
  Ewald energy   TEWEN  =      -197.90100875
  -1/2 Hartree   DENC   =        -0.58837171
  -exchange  EXHF       =         0.00000000
  -V(xc)+E(xc)   XCENC  =       -66.00089543
  PAW double counting   =       194.10274232     -120.66675824
  entropy T*S    EENTRO =         0.00057453
  eigenvalues    EBANDS =        17.97586098
  atomic energy  EATOM  =       130.63502393
  ---------------------------------------------------
  free energy    TOTEN  =       -11.85949168 eV

  energy without entropy =      -11.86006621  energy(sigma->0) =      -11.85968319


--------------------------------------------------------------------------------------------------------




----------------------------------------- Iteration    1(  12)  ---------------------------------------


    POTLOK:  cpu time    0.10: real time    0.10
    SETDIJ:  cpu time    0.03: real time    0.03
     EDDAV:  cpu time    0.43: real time    0.43
       DOS:  cpu time    0.00: real time    0.00
    --------------------------------------------
      LOOP:  cpu time    0.56: real time    0.58

 eigenvalue-minimisations  :   642
 total energy-change (2. order) :-0.5205375E-04  (-0.1319990E-04)
 number of electron       5.0000001 magnetization      -0.0165683
 augmentation part        0.3983457 magnetization      -0.0257932

 Free energy of the ion-electron system (eV)
  ---------------------------------------------------
  alpha Z        PSCENC =        30.58334069
  Ewald energy   TEWEN  =      -197.90100875
  -1/2 Hartree   DENC   =        -0.59071592
  -exchange  EXHF       =         0.00000000
  -V(xc)+E(xc)   XCENC  =       -66.00051593
  PAW double counting   =       195.61757347     -122.18924701
  entropy T*S    EENTRO =         0.00058566
  eigenvalues    EBANDS =        17.98542012
  atomic energy  EATOM  =       130.63502393
  ---------------------------------------------------
  free energy    TOTEN  =       -11.85954373 eV

  energy without entropy =      -11.86012939  energy(sigma->0) =      -11.85973895


--------------------------------------------------------------------------------------------------------




 average (electrostatic) potential at core
  the test charge radii are     1.2538
  (the norm of the test charge is              1.0000)
       1 -35.0256
 
 
 
 E-fermi :   5.6760     XC(G=0): -12.3698     alpha+bet :-13.5035


 spin component 1

 k-point   1 :       0.0500    0.0500    0.0500
  band No.  band energies     occupation 
      1      -1.5434      1.00000
      2       6.0994      0.00000
      3       6.0994      0.00000
      4       7.2139      0.00000
      5       9.4496      0.00000
      6       9.4496      0.00000

 k-point   2 :       0.1500    0.0500    0.0500
  band No.  band energies     occupation 
      1      -0.4207      1.00000
      2       5.4263      1.00000
      3       5.6086      1.03347
      4       8.5621      0.00000
      5       9.1344      0.00000
      6       9.7181      0.00000

 k-point   3 :       0.2500    0.0500    0.0500
  band No.  band energies     occupation 
      1       0.9061      1.00000
      2       4.7695      1.00000
      3       5.3047      1.00000
      4       9.3538      0.00000
      5      10.0464      0.00000
      6      10.5338      0.00000

 k-point   4 :       0.3500    0.0500    0.0500
  band No.  band energies     occupation 
      1       1.5372      1.00000
      2       4.3201      1.00000
      3       6.1130      0.00000
      4       9.6765      0.00000
      5      10.4108      0.00000
      6      12.6687      0.00000

 k-point   5 :       0.4500    0.0500    0.0500
  band No.  band energies     occupation 
      1       1.5955      1.00000
      2       4.1622      1.00000
      3       6.9875      0.00000
      4       9.6576      0.00000
      5      10.5957      0.00000
      6      13.8144      0.00000

 k-point   6 :      -0.0500    0.0500    0.0500
  band No.  band energies     occupation 
      1      -1.9592      1.00000
      2       6.4182      0.00000
      3       6.4182      0.00000
      4       6.5554      0.00000
      5       9.3132      0.00000
      6       9.8099      0.00000

 k-point   7 :       0.1500    0.1500    0.0500
  band No.  band energies     occupation 
      1       0.8499      1.00000
      2       4.8790      1.00000
      3       4.9525      1.00000
      4       9.2101      0.00000
      5      10.0921      0.00000
      6      10.4581      0.00000

 k-point   8 :       0.2500    0.1500    0.0500
  band No.  band energies     occupation 
      1       2.0180      1.00000
      2       4.4079      1.00000
      3       4.9824      1.00000
      4       9.5116      0.00000
      5      10.4351      0.00000
      6      12.6829      0.00000

 k-point   9 :       0.3500    0.1500    0.0500
  band No.  band energies     occupation 
      1       2.2981      1.00000
      2       4.1940      1.00000
      3       5.9445      0.00000
      4       9.7636      0.00000
      5      10.6369      0.00000
      6      14.5358      0.00000

 k-point  10 :      -0.1500    0.1500    0.0500
  band No.  band energies     occupation 
      1      -1.1428      1.00000
      2       5.9644      0.00000
      3       6.1919      0.00000
      4       7.3677      0.00000
      5       8.6318      0.00000
      6       9.9931      0.00000

 k-point  11 :       0.2500    0.2500    0.0500
  band No.  band energies     occupation 
      1       2.9395      1.00000
      2       4.3004      1.00000
      3       5.0180      1.00000
      4       9.8262      0.00000
      5      10.5333      0.00000
      6      14.9659      0.00000

 k-point  12 :       0.3500    0.2500    0.0500
  band No.  band energies     occupation 
      1       3.1217      1.00000
      2       4.3847      1.00000
      3       5.2573      1.00000
      4      10.0656      0.00000
      5      10.5783      0.00000
      6      14.3859      0.00000

 k-point  13 :      -0.2500    0.2500    0.0500
  band No.  band energies     occupation 
      1       0.1790      1.00000
      2       5.2760      1.00000
      3       5.6183      1.03460
      4       8.6582      0.00000
      5       8.9800      0.00000
      6      10.1898      0.00000

 k-point  14 :      -0.1500    0.2500    0.0500
  band No.  band energies     occupation 
      1      -0.0605      1.00000
      2       5.6373      0.98337
      3       5.7099      0.04860
      4       8.0753      0.00000
      5       8.4863      0.00000
      6      10.3928      0.00000

 k-point  15 :      -0.3500    0.3500    0.0500
  band No.  band energies     occupation 
      1       1.2185      1.00000
      2       4.6817      1.00000
      3       5.6988      0.15585
      4       9.1916      0.00000
      5      10.4181      0.00000
      6      11.1152      0.00000

 k-point  16 :      -0.2500    0.3500    0.0500
  band No.  band energies     occupation 
      1       1.2438      1.00000
      2       4.9266      1.00000
      3       5.3592      1.00000
      4       8.3782      0.00000
      5      10.3134      0.00000
      6      10.6966      0.00000

 k-point  17 :      -0.4500    0.4500    0.0500
  band No.  band energies     occupation 
      1       1.4630      1.00000
      2       4.3498      1.00000
      3       6.6997      0.00000
      4       9.3502      0.00000
      5      10.7880      0.00000
      6      13.0627      0.00000

 k-point  18 :      -0.3500    0.4500    0.0500
  band No.  band energies     occupation 
      1       1.9022      1.00000
      2       4.6264      1.00000
      3       5.6023      1.02873
      4       8.9170      0.00000
      5      10.7317      0.00000
      6      12.7021      0.00000

 k-point  19 :      -0.2500    0.4500    0.0500
  band No.  band energies     occupation 
      1       2.3683      1.00000
      2       4.3299      1.00000
      3       5.3647      1.00000
      4       8.6852      0.00000
      5      10.4372      0.00000
      6      12.7731      0.00000

 k-point  20 :      -0.4500   -0.4500    0.0500
  band No.  band energies     occupation 
      1       1.9589      1.00000
      2       4.5254      1.00000
      3       6.0949      0.00000
      4       8.8703      0.00000
      5      11.2399      0.00000
      6      13.9540      0.00000

 k-point  21 :      -0.3500   -0.4500    0.0500
  band No.  band energies     occupation 
      1       2.8401      1.00000
      2       4.3888      1.00000
      3       5.2269      1.00000
      4       9.1540      0.00000
      5      10.6584      0.00000
      6      15.0626      0.00000

 k-point  22 :      -0.3500   -0.3500    0.0500
  band No.  band energies     occupation 
      1       3.5020      1.00000
      2       4.4844      1.00000
      3       4.4844      1.00000
      4      10.1172      0.00000
      5      10.1172      0.00000
      6      14.6773      0.00000

 k-point  23 :       0.1500    0.1500    0.1500
  band No.  band energies     occupation 
      1       2.2367      1.00000
      2       4.3951      1.00000
      3       4.3951      1.00000
      4      10.0598      0.00000
      5      10.0598      0.00000
      6      12.7907      0.00000

 k-point  24 :       0.2500    0.1500    0.1500
  band No.  band energies     occupation 
      1       3.1469      1.00000
      2       4.1493      1.00000
      3       4.7902      1.00000
      4      10.2266      0.00000
      5      10.5375      0.00000
      6      14.9773      0.00000

 k-point  25 :       0.3500    0.1500    0.1500
  band No.  band energies     occupation 
      1       3.1555      1.00000
      2       4.0774      1.00000
      3       5.6111      1.03472
      4      10.2865      0.00000
      5      10.6892      0.00000
      6      14.3718      0.00000

 k-point  26 :      -0.1500    0.1500    0.1500
  band No.  band energies     occupation 
      1      -0.3657      1.00000
      2       6.3752      0.00000
      3       6.3752      0.00000
      4       7.1743      0.00000
      5       7.3742      0.00000
      6      10.5889      0.00000

 k-point  27 :       0.2500    0.2500    0.1500
  band No.  band energies     occupation 
      1       3.7506      1.00000
      2       4.4105      1.00000
      3       4.8379      1.00000
      4      10.5401      0.00000
      5      10.6699      0.00000
      6      13.6630      0.00000

 k-point  28 :      -0.2500    0.2500    0.1500
  band No.  band energies     occupation 
      1       0.8971      1.00000
      2       5.5200      1.00005
      3       6.0175      0.00000
      4       7.2434      0.00000
      5       8.7337      0.00000
      6      10.7932      0.00000

 k-point  29 :      -0.3500    0.3500    0.1500
  band No.  band energies     occupation 
      1       1.9431      1.00000
      2       4.8935      1.00000
      3       5.5099      1.00001
      4       8.0468      0.00000
      5      10.8603      0.00000
      6      10.8972      0.00000

 k-point  30 :      -0.2500    0.3500    0.1500
  band No.  band energies     occupation 
      1       2.0671      1.00000
      2       4.5758      1.00000
      3       6.1509      0.00000
      4       7.5259      0.00000
      5       9.9904      0.00000
      6      10.9588      0.00000

 k-point  31 :      -0.4500    0.4500    0.1500
  band No.  band energies     occupation 
      1       2.1678      1.00000
      2       5.2115      1.00000
      3       5.2637      1.00000
      4       8.0210      0.00000
      5      11.9947      0.00000
      6      12.8602      0.00000

 k-point  32 :      -0.3500    0.4500    0.1500
  band No.  band energies     occupation 
      1       2.7738      1.00000
      2       4.1905      1.00000
      3       5.7520     -0.02675
      4       8.1595      0.00000
      5      10.7281      0.00000
      6      12.9169      0.00000

 k-point  33 :      -0.4500   -0.4500    0.1500
  band No.  band energies     occupation 
      1       2.7866      1.00000
      2       4.5684      1.00000
      3       5.3053      1.00000
      4       8.1537      0.00000
      5      11.7641      0.00000
      6      14.5710      0.00000

 k-point  34 :      -0.3500   -0.4500    0.1500
  band No.  band energies     occupation 
      1       3.6545      1.00000
      2       3.7161      1.00000
      3       4.9806      1.00000
      4       9.4225      0.00000
      5      10.5907      0.00000
      6      15.3743      0.00000

 k-point  35 :       0.2500    0.2500    0.2500
  band No.  band energies     occupation 
      1       4.4802      1.00000
      2       4.4802      1.00000
      3       4.4802      1.00000
      4      10.7486      0.00000
      5      10.7486      0.00000
      6      12.7473      0.00000

 k-point  36 :      -0.2500    0.2500    0.2500
  band No.  band energies     occupation 
      1       1.9739      1.00000
      2       4.7913      1.00000
      3       6.9642      0.00000
      4       6.9642      0.00000
      5       8.8926      0.00000
      6      10.6920      0.00000

 k-point  37 :      -0.3500    0.3500    0.2500
  band No.  band energies     occupation 
      1       2.7977      1.00000
      2       3.8620      1.00000
      3       7.0239      0.00000
      4       7.6141      0.00000
      5      10.5544      0.00000
      6      10.8409      0.00000

 k-point  38 :      -0.4500    0.4500    0.2500
  band No.  band energies     occupation 
      1       2.8343      1.00000
      2       3.7753      1.00000
      3       6.8537      0.00000
      4       7.4964      0.00000
      5      12.5497      0.00000
      6      12.8289      0.00000

 k-point  39 :      -0.3500    0.4500    0.2500
  band No.  band energies     occupation 
      1       3.1249      1.00000
      2       3.1882      1.00000
      3       6.8649      0.00000
      4       8.8413      0.00000
      5      10.8225      0.00000
      6      12.9340      0.00000

 k-point  40 :      -0.4500   -0.4500    0.2500
  band No.  band energies     occupation 
      1       2.9166      1.00000
      2       3.2404      1.00000
      3       6.5873      0.00000
      4       9.3565      0.00000
      5      11.6674      0.00000
      6      15.2763      0.00000

 k-point  41 :      -0.3500    0.3500    0.3500
  band No.  band energies     occupation 
      1       2.9023      1.00000
      2       3.0027      1.00000
      3       8.6205      0.00000
      4       8.6205      0.00000
      5      10.7768      0.00000
      6      10.9488      0.00000

 k-point  42 :      -0.4500    0.4500    0.3500
  band No.  band energies     occupation 
      1       2.5235      1.00000
      2       2.6857      1.00000
      3       9.0840      0.00000
      4       9.0917      0.00000
      5      12.2686      0.00000
      6      13.0755      0.00000

 k-point  43 :      -0.4500   -0.4500    0.3500
  band No.  band energies     occupation 
      1       2.3696      1.00000
      2       2.3696      1.00000
      3       9.0164      0.00000
      4      11.4450      0.00000
      5      11.4450      0.00000
      6      15.5846      0.00000

 k-point  44 :      -0.4500    0.4500    0.4500
  band No.  band energies     occupation 
      1       2.0679      1.00000
      2       2.1147      1.00000
      3      11.3491      0.00000
      4      11.3491      0.00000
      5      12.2578      0.00000
      6      13.5565      0.00000

 spin component 2

 k-point   1 :       0.0500    0.0500    0.0500
  band No.  band energies     occupation 
      1      -1.5548      1.00000
      2       6.0847      0.00000
      3       6.0847      0.00000
      4       7.1990      0.00000
      5       9.4442      0.00000
      6       9.4442      0.00000

 k-point   2 :       0.1500    0.0500    0.0500
  band No.  band energies     occupation 
      1      -0.4321      1.00000
      2       5.4118      1.00000
      3       5.5952      1.02234
      4       8.5478      0.00000
      5       9.1273      0.00000
      6       9.7122      0.00000

 k-point   3 :       0.2500    0.0500    0.0500
  band No.  band energies     occupation 
      1       0.8945      1.00000
      2       4.7550      1.00000
      3       5.2931      1.00000
      4       9.3452      0.00000
      5      10.0401      0.00000
      6      10.5202      0.00000

 k-point   4 :       0.3500    0.0500    0.0500
  band No.  band energies     occupation 
      1       1.5254      1.00000
      2       4.3055      1.00000
      3       6.1025      0.00000
      4       9.6675      0.00000
      5      10.4041      0.00000
      6      12.6563      0.00000

 k-point   5 :       0.4500    0.0500    0.0500
  band No.  band energies     occupation 
      1       1.5838      1.00000
      2       4.1476      1.00000
      3       6.9771      0.00000
      4       9.6489      0.00000
      5      10.5888      0.00000
      6      13.8032      0.00000

 k-point   6 :      -0.0500    0.0500    0.0500
  band No.  band energies     occupation 
      1      -1.9706      1.00000
      2       6.4032      0.00000
      3       6.4032      0.00000
      4       6.5404      0.00000
      5       9.3082      0.00000
      6       9.8051      0.00000

 k-point   7 :       0.1500    0.1500    0.0500
  band No.  band energies     occupation 
      1       0.8383      1.00000
      2       4.8663      1.00000
      3       4.9384      1.00000
      4       9.2023      0.00000
      5      10.0856      0.00000
      6      10.4445      0.00000

 k-point   8 :       0.2500    0.1500    0.0500
  band No.  band energies     occupation 
      1       2.0060      1.00000
      2       4.3945      1.00000
      3       4.9702      1.00000
      4       9.5031      0.00000
      5      10.4281      0.00000
      6      12.6706      0.00000

 k-point   9 :       0.3500    0.1500    0.0500
  band No.  band energies     occupation 
      1       2.2860      1.00000
      2       4.1801      1.00000
      3       5.9337      0.00000
      4       9.7550      0.00000
      5      10.6295      0.00000
      6      14.5252      0.00000

 k-point  10 :      -0.1500    0.1500    0.0500
  band No.  band energies     occupation 
      1      -1.1542      1.00000
      2       5.9494      0.00000
      3       6.1778      0.00000
      4       7.3529      0.00000
      5       8.6256      0.00000
      6       9.9878      0.00000

 k-point  11 :       0.2500    0.2500    0.0500
  band No.  band energies     occupation 
      1       2.9266      1.00000
      2       4.2889      1.00000
      3       5.0055      1.00000
      4       9.8174      0.00000
      5      10.5256      0.00000
      6      14.9555      0.00000

 k-point  12 :       0.3500    0.2500    0.0500
  band No.  band energies     occupation 
      1       3.1084      1.00000
      2       4.3727      1.00000
      3       5.2464      1.00000
      4      10.0569      0.00000
      5      10.5700      0.00000
      6      14.3712      0.00000

 k-point  13 :      -0.2500    0.2500    0.0500
  band No.  band energies     occupation 
      1       0.1676      1.00000
      2       5.2612      1.00000
      3       5.6067      1.03223
      4       8.6497      0.00000
      5       8.9657      0.00000
      6      10.1838      0.00000

 k-point  14 :      -0.1500    0.2500    0.0500
  band No.  band energies     occupation 
      1      -0.0719      1.00000
      2       5.6247      1.02767
      3       5.6953      0.19955
      4       8.0673      0.00000
      5       8.4719      0.00000
      6      10.3868      0.00000

 k-point  15 :      -0.3500    0.3500    0.0500
  band No.  band energies     occupation 
      1       1.2068      1.00000
      2       4.6670      1.00000
      3       5.6887      0.29248
      4       9.1821      0.00000
      5      10.4113      0.00000
      6      11.1018      0.00000

 k-point  16 :      -0.2500    0.3500    0.0500
  band No.  band energies     occupation 
      1       1.2323      1.00000
      2       4.9148      1.00000
      3       5.3460      1.00000
      4       8.3684      0.00000
      5      10.3012      0.00000
      6      10.6884      0.00000

 k-point  17 :      -0.4500    0.4500    0.0500
  band No.  band energies     occupation 
      1       1.4514      1.00000
      2       4.3350      1.00000
      3       6.6902      0.00000
      4       9.3411      0.00000
      5      10.7806      0.00000
      6      13.0507      0.00000

 k-point  18 :      -0.3500    0.4500    0.0500
  band No.  band energies     occupation 
      1       1.8907      1.00000
      2       4.6127      1.00000
      3       5.5923      1.01965
      4       8.9072      0.00000
      5      10.7231      0.00000
      6      12.6902      0.00000

 k-point  19 :      -0.2500    0.4500    0.0500
  band No.  band energies     occupation 
      1       2.3565      1.00000
      2       4.3199      1.00000
      3       5.3515      1.00000
      4       8.6747      0.00000
      5      10.4284      0.00000
      6      12.7615      0.00000

 k-point  20 :      -0.4500   -0.4500    0.0500
  band No.  band energies     occupation 
      1       1.9475      1.00000
      2       4.5112      1.00000
      3       6.0859      0.00000
      4       8.8610      0.00000
      5      11.2308      0.00000
      6      13.9431      0.00000

 k-point  21 :      -0.3500   -0.4500    0.0500
  band No.  band energies     occupation 
      1       2.8281      1.00000
      2       4.3775      1.00000
      3       5.2166      1.00000
      4       9.1436      0.00000
      5      10.6483      0.00000
      6      15.0522      0.00000

 k-point  22 :      -0.3500   -0.3500    0.0500
  band No.  band energies     occupation 
      1       3.4878      1.00000
      2       4.4751      1.00000
      3       4.4751      1.00000
      4      10.1065      0.00000
      5      10.1065      0.00000
      6      14.6634      0.00000

 k-point  23 :       0.1500    0.1500    0.1500
  band No.  band energies     occupation 
      1       2.2249      1.00000
      2       4.3818      1.00000
      3       4.3818      1.00000
      4      10.0525      0.00000
      5      10.0525      0.00000
      6      12.7783      0.00000

 k-point  24 :       0.2500    0.1500    0.1500
  band No.  band energies     occupation 
      1       3.1346      1.00000
      2       4.1356      1.00000
      3       4.7780      1.00000
      4      10.2189      0.00000
      5      10.5305      0.00000
      6      14.9666      0.00000

 k-point  25 :       0.3500    0.1500    0.1500
  band No.  band energies     occupation 
      1       3.1432      1.00000
      2       4.0635      1.00000
      3       5.5994      1.02620
      4      10.2786      0.00000
      5      10.6823      0.00000
      6      14.3567      0.00000

 k-point  26 :      -0.1500    0.1500    0.1500
  band No.  band energies     occupation 
      1      -0.3770      1.00000
      2       6.3606      0.00000
      3       6.3606      0.00000
      4       7.1683      0.00000
      5       7.3594      0.00000
      6      10.5832      0.00000

 k-point  27 :       0.2500    0.2500    0.1500
  band No.  band energies     occupation 
      1       3.7372      1.00000
      2       4.3981      1.00000
      3       4.8256      1.00000
      4      10.5327      0.00000
      5      10.6629      0.00000
      6      13.6474      0.00000

 k-point  28 :      -0.2500    0.2500    0.1500
  band No.  band energies     occupation 
      1       0.8860      1.00000
      2       5.5109      1.00002
      3       6.0029      0.00000
      4       7.2320      0.00000
      5       8.7194      0.00000
      6      10.7863      0.00000

 k-point  29 :      -0.3500    0.3500    0.1500
  band No.  band energies     occupation 
      1       1.9321      1.00000
      2       4.8853      1.00000
      3       5.4954      1.00000
      4       8.0356      0.00000
      5      10.8469      0.00000
      6      10.8886      0.00000

 k-point  30 :      -0.2500    0.3500    0.1500
  band No.  band energies     occupation 
      1       2.0564      1.00000
      2       4.5676      1.00000
      3       6.1369      0.00000
      4       7.5133      0.00000
      5       9.9778      0.00000
      6      10.9492      0.00000

 k-point  31 :      -0.4500    0.4500    0.1500
  band No.  band energies     occupation 
      1       2.1570      1.00000
      2       5.1970      1.00000
      3       5.2555      1.00000
      4       8.0109      0.00000
      5      11.9846      0.00000
      6      12.8481      0.00000

 k-point  32 :      -0.3500    0.4500    0.1500
  band No.  band energies     occupation 
      1       2.7634      1.00000
      2       4.1822      1.00000
      3       5.7389     -0.03531
      4       8.1475      0.00000
      5      10.7167      0.00000
      6      12.9051      0.00000

 k-point  33 :      -0.4500   -0.4500    0.1500
  band No.  band energies     occupation 
      1       2.7767      1.00000
      2       4.5604      1.00000
      3       5.2919      1.00000
      4       8.1420      0.00000
      5      11.7525      0.00000
      6      14.5598      0.00000

 k-point  34 :      -0.3500   -0.4500    0.1500
  band No.  band energies     occupation 
      1       3.6449      1.00000
      2       3.7081      1.00000
      3       4.9680      1.00000
      4       9.4100      0.00000
      5      10.5786      0.00000
      6      15.3627      0.00000

 k-point  35 :       0.2500    0.2500    0.2500
  band No.  band energies     occupation 
      1       4.4673      1.00000
      2       4.4674      1.00000
      3       4.4674      1.00000
      4      10.7418      0.00000
      5      10.7418      0.00000
      6      12.7312      0.00000

 k-point  36 :      -0.2500    0.2500    0.2500
  band No.  band energies     occupation 
      1       1.9636      1.00000
      2       4.7847      1.00000
      3       6.9499      0.00000
      4       6.9499      0.00000
      5       8.8784      0.00000
      6      10.6832      0.00000

 k-point  37 :      -0.3500    0.3500    0.2500
  band No.  band energies     occupation 
      1       2.7884      1.00000
      2       3.8549      1.00000
      3       7.0097      0.00000
      4       7.6010      0.00000
      5      10.5410      0.00000
      6      10.8300      0.00000

 k-point  38 :      -0.4500    0.4500    0.2500
  band No.  band energies     occupation 
      1       2.8259      1.00000
      2       3.7678      1.00000
      3       6.8395      0.00000
      4       7.4841      0.00000
      5      12.5375      0.00000
      6      12.8165      0.00000

 k-point  39 :      -0.3500    0.4500    0.2500
  band No.  band energies     occupation 
      1       3.1167      1.00000
      2       3.1810      1.00000
      3       6.8513      0.00000
      4       8.8278      0.00000
      5      10.8099      0.00000
      6      12.9216      0.00000

 k-point  40 :      -0.4500   -0.4500    0.2500
  band No.  band energies     occupation 
      1       2.9091      1.00000
      2       3.2330      1.00000
      3       6.5735      0.00000
      4       9.3433      0.00000
      5      11.6547      0.00000
      6      15.2635      0.00000

 k-point  41 :      -0.3500    0.3500    0.3500
  band No.  band energies     occupation 
      1       2.8944      1.00000
      2       2.9958      1.00000
      3       8.6066      0.00000
      4       8.6067      0.00000
      5      10.7636      0.00000
      6      10.9364      0.00000

 k-point  42 :      -0.4500    0.4500    0.3500
  band No.  band energies     occupation 
      1       2.5164      1.00000
      2       2.6784      1.00000
      3       9.0705      0.00000
      4       9.0780      0.00000
      5      12.2563      0.00000
      6      13.0619      0.00000

 k-point  43 :      -0.4500   -0.4500    0.3500
  band No.  band energies     occupation 
      1       2.3625      1.00000
      2       2.3625      1.00000
      3       9.0027      0.00000
      4      11.4320      0.00000
      5      11.4320      0.00000
      6      15.5707      0.00000

 k-point  44 :      -0.4500    0.4500    0.4500
  band No.  band energies     occupation 
      1       2.0609      1.00000
      2       2.1076      1.00000
      3      11.3360      0.00000
      4      11.3360      0.00000
      5      12.2457      0.00000
      6      13.5418      0.00000


--------------------------------------------------------------------------------------------------------


 soft charge-density along one line, spin component           1
         0         1         2         3         4         5         6         7         8         9
 total charge-density along one line
 
 soft charge-density along one line, spin component           2
         0         1         2         3         4         5         6         7         8         9
 total charge-density along one line
 
 pseudopotential strength for first ion, spin component:           1
 -6.574   0.000   0.003   0.000   0.002   0.090   0.000   0.000
  0.000  -6.572   0.000   0.003   0.000   0.000   0.090   0.000
  0.003   0.000  -6.571   0.000  -0.001   0.000   0.000   0.090
  0.000   0.003   0.000  -6.574   0.000   0.000   0.000   0.000
  0.002   0.000  -0.001   0.000  -6.570   0.000   0.000   0.000
  0.090   0.000   0.000   0.000   0.000   0.071   0.000   0.000
  0.000   0.090   0.000   0.000   0.000   0.000   0.071   0.000
  0.000   0.000   0.090   0.000   0.000   0.000   0.000   0.071
  0.000   0.000   0.000   0.090   0.000   0.000   0.000   0.000
  0.000   0.000   0.000   0.000   0.090   0.000   0.000   0.000
  0.000   0.000   0.000   0.000   0.000   0.000   0.000   0.000
  0.000   0.000   0.000   0.000   0.000   0.000   0.000   0.000
  0.000   0.000   0.000   0.000   0.000   0.000   0.000   0.000
  0.000   0.000   0.000   0.000   0.000   0.000   0.000   0.000
  0.000   0.000   0.000   0.000   0.000   0.000   0.000   0.000
  0.000   0.000   0.000   0.000   0.000   0.000   0.000   0.000
  0.000   0.000   0.000   0.000   0.000   0.000   0.000   0.000
  0.000   0.000   0.000   0.000   0.000   0.000   0.000   0.000
 pseudopotential strength for first ion, spin component:           2
 -6.575   0.000   0.003   0.000   0.001   0.089   0.000   0.000
  0.000  -6.573   0.000   0.003   0.000   0.000   0.089   0.000
  0.003   0.000  -6.572   0.000  -0.001   0.000   0.000   0.089
  0.000   0.003   0.000  -6.575   0.000   0.000   0.000   0.000
  0.001   0.000  -0.001   0.000  -6.571   0.000   0.000   0.000
  0.089   0.000   0.000   0.000   0.000   0.071   0.000   0.000
  0.000   0.089   0.000   0.000   0.000   0.000   0.071   0.000
  0.000   0.000   0.089   0.000   0.000   0.000   0.000   0.071
  0.000   0.000   0.000   0.089   0.000   0.000   0.000   0.000
  0.000   0.000   0.000   0.000   0.089   0.000   0.000   0.000
  0.000   0.000   0.000   0.000   0.000   0.000   0.000   0.000
  0.000   0.000   0.000   0.000   0.000   0.000   0.000   0.000
  0.000   0.000   0.000   0.000   0.000   0.000   0.000   0.000
  0.000   0.000   0.000   0.000   0.000   0.000   0.000   0.000
  0.000   0.000   0.000   0.000   0.000   0.000   0.000   0.000
  0.000   0.000   0.000   0.000   0.000   0.000   0.000   0.000
  0.000   0.000   0.000   0.000   0.000   0.000   0.000   0.000
  0.000   0.000   0.000   0.000   0.000   0.000   0.000   0.000
 total augmentation occupancy for first ion, spin component:           1
  0.643   0.000   0.079   0.000   0.046  -0.554   0.000  -0.026   0.000  -0.015   0.000   0.000   0.000   0.000   0.000   0.000
  0.000   0.707   0.000   0.092   0.000   0.000  -0.575   0.000  -0.030   0.000   0.000   0.000   0.000   0.000   0.000   0.000
  0.079   0.000   0.724   0.000  -0.028  -0.026   0.000  -0.580   0.000   0.009   0.000   0.000   0.000   0.000   0.000   0.000
  0.000   0.092   0.000   0.643   0.000   0.000  -0.030   0.000  -0.554   0.000   0.000   0.000   0.000   0.000   0.000   0.000
  0.046   0.000  -0.028   0.000   0.756  -0.015   0.000   0.009   0.000  -0.591   0.000   0.000   0.000   0.000   0.000   0.000
 -0.554   0.000  -0.026   0.000  -0.015   0.522   0.000  -0.009   0.000  -0.005   0.000   0.000   0.000   0.000   0.000   0.000
  0.000  -0.575   0.000  -0.030   0.000   0.000   0.515   0.000  -0.010   0.000   0.000   0.000   0.000   0.000   0.000   0.000
 -0.026   0.000  -0.580   0.000   0.009  -0.009   0.000   0.513   0.000   0.003   0.000   0.000   0.000   0.000   0.000   0.000
  0.000  -0.030   0.000  -0.554   0.000   0.000  -0.010   0.000   0.522   0.000   0.000   0.000   0.000   0.000   0.000   0.000
 -0.015   0.000   0.009   0.000  -0.591  -0.005   0.000   0.003   0.000   0.509   0.000   0.000   0.000   0.000   0.000   0.000
  0.000   0.000   0.000   0.000   0.000   0.000   0.000   0.000   0.000   0.000   1.405  -0.278   0.000   0.000   0.000   0.000
  0.000   0.000   0.000   0.000   0.000   0.000   0.000   0.000   0.000   0.000  -0.278   0.059   0.000   0.000   0.000   0.000
  0.000   0.000   0.000   0.000   0.000   0.000   0.000   0.000   0.000   0.000   0.000   0.000   0.301   0.000   0.000   0.011
  0.000   0.000   0.000   0.000   0.000   0.000   0.000   0.000   0.000   0.000   0.000   0.000   0.000   0.301   0.000   0.000
  0.000   0.000   0.000   0.000   0.000   0.000   0.000   0.000   0.000   0.000   0.000   0.000   0.000   0.000   0.301   0.000
  0.000   0.000   0.000   0.000   0.000   0.000   0.000   0.000   0.000   0.000   0.000   0.000   0.011   0.000   0.000   0.000
  0.000   0.000   0.000   0.000   0.000   0.000   0.000   0.000   0.000   0.000   0.000   0.000   0.000   0.011   0.000   0.000
  0.000   0.000   0.000   0.000   0.000   0.000   0.000   0.000   0.000   0.000   0.000   0.000   0.000   0.000   0.011   0.000
 total augmentation occupancy for first ion, spin component:           2
  0.001   0.000   0.000   0.000   0.000  -0.001   0.000   0.000   0.000   0.000   0.000   0.000   0.000   0.000   0.000   0.000
  0.000   0.001   0.000   0.000   0.000   0.000  -0.001   0.000   0.000   0.000   0.000   0.000   0.000   0.000   0.000   0.000
  0.000   0.000   0.001   0.000   0.000   0.000   0.000  -0.001   0.000   0.000   0.000   0.000   0.000   0.000   0.000   0.000
  0.000   0.000   0.000   0.001   0.000   0.000   0.000   0.000  -0.001   0.000   0.000   0.000   0.000   0.000   0.000   0.000
  0.000   0.000   0.000   0.000   0.001   0.000   0.000   0.000   0.000  -0.001   0.000   0.000   0.000   0.000   0.000   0.000
 -0.001   0.000   0.000   0.000   0.000   0.001   0.000   0.000   0.000   0.000   0.000   0.000   0.000   0.000   0.000   0.000
  0.000  -0.001   0.000   0.000   0.000   0.000   0.001   0.000   0.000   0.000   0.000   0.000   0.000   0.000   0.000   0.000
  0.000   0.000  -0.001   0.000   0.000   0.000   0.000   0.001   0.000   0.000   0.000   0.000   0.000   0.000   0.000   0.000
  0.000   0.000   0.000  -0.001   0.000   0.000   0.000   0.000   0.001   0.000   0.000   0.000   0.000   0.000   0.000   0.000
  0.000   0.000   0.000   0.000  -0.001   0.000   0.000   0.000   0.000   0.001   0.000   0.000   0.000   0.000   0.000   0.000
  0.000   0.000   0.000   0.000   0.000   0.000   0.000   0.000   0.000   0.000   0.002   0.003   0.000   0.000   0.000   0.000
  0.000   0.000   0.000   0.000   0.000   0.000   0.000   0.000   0.000   0.000   0.003  -0.001   0.000   0.000   0.000   0.000
  0.000   0.000   0.000   0.000   0.000   0.000   0.000   0.000   0.000   0.000   0.000   0.000   0.001   0.000   0.000   0.000
  0.000   0.000   0.000   0.000   0.000   0.000   0.000   0.000   0.000   0.000   0.000   0.000   0.000   0.001   0.000   0.000
  0.000   0.000   0.000   0.000   0.000   0.000   0.000   0.000   0.000   0.000   0.000   0.000   0.000   0.000   0.001   0.000
  0.000   0.000   0.000   0.000   0.000   0.000   0.000   0.000   0.000   0.000   0.000   0.000   0.000   0.000   0.000   0.000
  0.000   0.000   0.000   0.000   0.000   0.000   0.000   0.000   0.000   0.000   0.000   0.000   0.000   0.000   0.000   0.000
  0.000   0.000   0.000   0.000   0.000   0.000   0.000   0.000   0.000   0.000   0.000   0.000   0.000   0.000   0.000   0.000


------------------------ aborting loop because EDIFF is reached ----------------------------------------


 


 total charge     
 
# of ion     s       p       d       tot
----------------------------------------
  1        0.710   0.695   3.419   4.824
 


 magnetization (x)
 
# of ion     s       p       d       tot
----------------------------------------
  1        0.000  -0.001  -0.005  -0.007
 
    CHARGE:  cpu time    0.06: real time    0.06
    FORLOC:  cpu time    0.00: real time    0.00
    FORNL :  cpu time    0.12: real time    0.12
    STRESS:  cpu time    0.25: real time    0.25
    FORCOR:  cpu time    0.10: real time    0.10
    FORHAR:  cpu time    0.01: real time    0.01
    MIXING:  cpu time    0.00: real time    0.00

  FORCE on cell =-STRESS in cart. coord.  units (eV):
  Direction    XX          YY          ZZ          XY          YZ          ZX
  --------------------------------------------------------------------------------------
  Alpha Z    30.58334    30.58334    30.58334
  Ewald     -65.96700   -65.96700   -65.96700     0.00000     0.00000     0.00000
  Hartree     0.19501     0.19501     0.19501     0.00000     0.00000     0.00000
  E(xc)     -22.46796   -22.46796   -22.46794     0.00001     0.00001     0.00001
  Local       3.83022     3.83022     3.83022     0.00000     0.00000     0.00000
  n-local    -8.11390    -8.72776    -5.51773     1.72585    -2.23972    -1.69683
  augment     2.89011     2.89011     2.89012     0.00000     0.00000     0.00000
  Kinetic    59.93458    60.12970    54.77330    -0.49024     2.92031     1.80214
  Fock        0.00000     0.00000     0.00000     0.00000     0.00000     0.00000
  -------------------------------------------------------------------------------------
  Total      -0.11021    -0.11021    -0.11021     0.00000     0.00000     0.00000
  in kB      -9.73800    -9.73800    -9.73800     0.00000     0.00000     0.00000
  external pressure =       -9.74 kB  Pullay stress =        0.00 kB


 VOLUME and BASIS-vectors are now :
 -----------------------------------------------------------------------------
  energy-cutoff  :      250.00
  volume of cell :       18.13
      direct lattice vectors                 reciprocal lattice vectors
     2.866544087  0.000000000  0.000000000     0.348852126  0.123337852  0.213627426
    -0.955514696  2.702603683  0.000000000     0.000000000  0.370013556  0.213627426
    -0.955514696 -1.351301841  2.340523446     0.000000000  0.000000000  0.427254853

  length of vectors
     2.866544087  2.866544087  2.866544087     0.427254853  0.427254853  0.427254853


 FORCES acting on ions
    electron-ion (+dipol)            ewald-force                    non-local-force                 convergence-correction
 -----------------------------------------------------------------------------------------------
   0.190E-14 0.210E-14 -.111E-14   -.279E-15 -.214E-15 0.640E-15   -.207E-23 -.165E-23 0.000E+00   0.448E-15 0.405E-16 -.297E-16
 -----------------------------------------------------------------------------------------------
   0.190E-14 0.210E-14 -.111E-14   -.279E-15 -.214E-15 0.640E-15   -.207E-23 -.165E-23 0.000E+00   0.448E-15 0.405E-16 -.297E-16
 
 
 POSITION                                       TOTAL-FORCE (eV/Angst)
 -----------------------------------------------------------------------------------
      0.00000      0.00000      0.00000         0.000000      0.000000      0.000000
 -----------------------------------------------------------------------------------
    total drift:                                0.000000      0.000000      0.000000


--------------------------------------------------------------------------------------------------------



  FREE ENERGIE OF THE ION-ELECTRON SYSTEM (eV)
  ---------------------------------------------------
  free  energy   TOTEN  =       -11.859544 eV

  energy  without entropy=      -11.860129  energy(sigma->0) =      -11.859739
 


--------------------------------------------------------------------------------------------------------


    POTLOK:  cpu time    0.13: real time    0.13


--------------------------------------------------------------------------------------------------------


 writing wavefunctions
     LOOP+:  cpu time   10.17: real time   10.87
    4ORBIT:  cpu time    0.00: real time    0.00
 


 total charge     
 
# of ion     s       p       d       tot
----------------------------------------
  1        0.710   0.695   3.419   4.824
 


 magnetization (x)
 
# of ion     s       p       d       tot
----------------------------------------
  1        0.000  -0.001  -0.005  -0.007
 

 total amount of memory used by VASP on root node    36646. kBytes
========================================================================

   base      :      30000. kBytes
   nonl-proj :       1060. kBytes
   fftplans  :       1184. kBytes
   grid      :       2809. kBytes
   one-center:         31. kBytes
   wavefun   :       1562. kBytes
 
  
  
 General timing and accounting informations for this job:
 ========================================================
  
                  Total CPU time used (sec):       10.739
                            User time (sec):       10.534
                          System time (sec):        0.205
                         Elapsed time (sec):       11.587
  
                   Maximum memory used (kb):           0.
                   Average memory used (kb):           0.
  
                          Minor page faults:         7027
                          Major page faults:            0
                 Voluntary context switches:         7300
