PROCAR lm decomposed
# of k-points:   44         # of bands:   6         # of ions:   1

 k-point    1 :    0.05000000 0.05000000 0.05000000     weight = 0.00800000

band   1 # energy   -1.54336845 # occ.  1.00000000
 
ion      s     py     pz     px    dxy    dyz    dz2    dxz    dx2    tot
  1  0.817  0.011  0.032  0.005  0.000  0.002  0.001  0.001  0.000  0.868
 
band   2 # energy    6.09940938 # occ.  0.00000000
 
ion      s     py     pz     px    dxy    dyz    dz2    dxz    dx2    tot
  1  0.000  0.005  0.001  0.000  0.197  0.156  0.316  0.030  0.348  1.054
 
band   3 # energy    6.09940938 # occ.  0.00000000
 
ion      s     py     pz     px    dxy    dyz    dz2    dxz    dx2    tot
  1  0.000  0.000  0.001  0.006  0.002  0.079  0.292  0.094  0.581  1.054
 
band   4 # energy    7.21387143 # occ.  0.00000000
 
ion      s     py     pz     px    dxy    dyz    dz2    dxz    dx2    tot
  1  0.000  0.005  0.015  0.003  0.076  0.455  0.256  0.228  0.009  1.048
 
band   5 # energy    9.44956000 # occ.  0.00000000
 
ion      s     py     pz     px    dxy    dyz    dz2    dxz    dx2    tot
  1  0.000  0.000  0.000  0.000  0.511  0.061  0.091  0.227  0.026  0.917
 
band   6 # energy    9.44956000 # occ.  0.00000000
 
ion      s     py     pz     px    dxy    dyz    dz2    dxz    dx2    tot
  1  0.000  0.000  0.000  0.000  0.181  0.241  0.042  0.371  0.080  0.917
 

 k-point    2 :    0.15000000 0.05000000 0.05000000     weight = 0.02400000

band   1 # energy   -0.42066275 # occ.  1.00000000
 
ion      s     py     pz     px    dxy    dyz    dz2    dxz    dx2    tot
  1  0.734  0.020  0.061  0.039  0.006  0.009  0.001  0.018  0.002  0.891
 
band   2 # energy    5.42634449 # occ.  1.00000000
 
ion      s     py     pz     px    dxy    dyz    dz2    dxz    dx2    tot
  1  0.000  0.007  0.002  0.000  0.160  0.206  0.463  0.053  0.154  1.046
 
band   3 # energy    5.60858815 # occ.  1.03346579
 
ion      s     py     pz     px    dxy    dyz    dz2    dxz    dx2    tot
  1  0.003  0.001  0.002  0.049  0.072  0.022  0.104  0.217  0.535  1.005
 
band   4 # energy    8.56212356 # occ.  0.00000000
 
ion      s     py     pz     px    dxy    dyz    dz2    dxz    dx2    tot
  1  0.002  0.015  0.046  0.001  0.076  0.257  0.277  0.229  0.107  1.009
 
band   5 # energy    9.13443521 # occ.  0.00000000
 
ion      s     py     pz     px    dxy    dyz    dz2    dxz    dx2    tot
  1  0.000  0.000  0.001  0.001  0.069  0.435  0.037  0.208  0.184  0.936
 
band   6 # energy    9.71805954 # occ.  0.00000000
 
ion      s     py     pz     px    dxy    dyz    dz2    dxz    dx2    tot
  1  0.000  0.001  0.000  0.000  0.576  0.039  0.088  0.192  0.029  0.927
 

 k-point    3 :    0.25000000 0.05000000 0.05000000     weight = 0.02400000

band   1 # energy    0.90613360 # occ.  1.00000000
 
ion      s     py     pz     px    dxy    dyz    dz2    dxz    dx2    tot
  1  0.569  0.024  0.072  0.052  0.038  0.024  0.000  0.113  0.039  0.931
 
band   2 # energy    4.76951327 # occ.  1.00000000
 
ion      s     py     pz     px    dxy    dyz    dz2    dxz    dx2    tot
  1  0.000  0.009  0.003  0.000  0.181  0.199  0.448  0.060  0.149  1.051
 
band   3 # energy    5.30468390 # occ.  1.00000000
 
ion      s     py     pz     px    dxy    dyz    dz2    dxz    dx2    tot
  1  0.036  0.010  0.030  0.171  0.080  0.001  0.087  0.240  0.296  0.952
 
band   4 # energy    9.35375135 # occ.  0.00000000
 
ion      s     py     pz     px    dxy    dyz    dz2    dxz    dx2    tot
  1  0.004  0.000  0.000  0.009  0.063  0.357  0.004  0.189  0.345  0.970
 
band   5 # energy   10.04639777 # occ.  0.00000000
 
ion      s     py     pz     px    dxy    dyz    dz2    dxz    dx2    tot
  1  0.000  0.002  0.001  0.000  0.562  0.047  0.106  0.187  0.035  0.941
 
band   6 # energy   10.53378797 # occ.  0.00000000
 
ion      s     py     pz     px    dxy    dyz    dz2    dxz    dx2    tot
  1  0.001  0.026  0.079  0.002  0.036  0.321  0.310  0.108  0.096  0.979
 

 k-point    4 :    0.35000000 0.05000000 0.05000000     weight = 0.02400000

band   1 # energy    1.53720886 # occ.  1.00000000
 
ion      s     py     pz     px    dxy    dyz    dz2    dxz    dx2    tot
  1  0.354  0.012  0.037  0.008  0.102  0.029  0.008  0.305  0.122  0.976
 
band   2 # energy    4.32005862 # occ.  1.00000000
 
ion      s     py     pz     px    dxy    dyz    dz2    dxz    dx2    tot
  1  0.000  0.011  0.004  0.000  0.219  0.188  0.424  0.073  0.141  1.059
 
band   3 # energy    6.11300106 # occ.  0.00000000
 
ion      s     py     pz     px    dxy    dyz    dz2    dxz    dx2    tot
  1  0.069  0.039  0.118  0.396  0.026  0.011  0.066  0.077  0.106  0.908
 
band   4 # energy    9.67645694 # occ.  0.00000000
 
ion      s     py     pz     px    dxy    dyz    dz2    dxz    dx2    tot
  1  0.023  0.001  0.004  0.024  0.053  0.421  0.015  0.158  0.291  0.992
 
band   5 # energy   10.41081408 # occ.  0.00000000
 
ion      s     py     pz     px    dxy    dyz    dz2    dxz    dx2    tot
  1  0.000  0.001  0.000  0.000  0.539  0.063  0.142  0.180  0.047  0.973
 
band   6 # energy   12.66868138 # occ.  0.00000000
 
ion      s     py     pz     px    dxy    dyz    dz2    dxz    dx2    tot
  1  0.000  0.025  0.076  0.007  0.032  0.217  0.319  0.097  0.195  0.969
 

 k-point    5 :    0.45000000 0.05000000 0.05000000     weight = 0.01200000

band   1 # energy    1.59553333 # occ.  1.00000000
 
ion      s     py     pz     px    dxy    dyz    dz2    dxz    dx2    tot
  1  0.279  0.003  0.009  0.006  0.126  0.026  0.014  0.377  0.153  0.992
 
band   2 # energy    4.16217583 # occ.  1.00000000
 
ion      s     py     pz     px    dxy    dyz    dz2    dxz    dx2    tot
  1  0.000  0.011  0.004  0.000  0.262  0.175  0.393  0.087  0.131  1.063
 
band   3 # energy    6.98750636 # occ.  0.00000000
 
ion      s     py     pz     px    dxy    dyz    dz2    dxz    dx2    tot
  1  0.000  0.067  0.200  0.534  0.002  0.014  0.032  0.007  0.030  0.888
 
band   4 # energy    9.65761537 # occ.  0.00000000
 
ion      s     py     pz     px    dxy    dyz    dz2    dxz    dx2    tot
  1  0.074  0.000  0.000  0.000  0.059  0.467  0.045  0.176  0.177  0.997
 
band   5 # energy   10.59574815 # occ.  0.00000000
 
ion      s     py     pz     px    dxy    dyz    dz2    dxz    dx2    tot
  1  0.000  0.000  0.000  0.000  0.498  0.083  0.187  0.166  0.062  0.997
 
band   6 # energy   13.81442671 # occ.  0.00000000
 
ion      s     py     pz     px    dxy    dyz    dz2    dxz    dx2    tot
  1  0.000  0.005  0.015  0.040  0.026  0.154  0.345  0.077  0.320  0.981
 

 k-point    6 :   -0.05000000 0.05000000 0.05000000     weight = 0.00600000

band   1 # energy   -1.95917328 # occ.  1.00000000
 
ion      s     py     pz     px    dxy    dyz    dz2    dxz    dx2    tot
  1  0.843  0.003  0.008  0.006  0.000  0.000  0.000  0.000  0.000  0.861
 
band   2 # energy    6.41818060 # occ.  0.00000000
 
ion      s     py     pz     px    dxy    dyz    dz2    dxz    dx2    tot
  1  0.000  0.004  0.001  0.000  0.265  0.177  0.397  0.088  0.132  1.065
 
band   3 # energy    6.41818278 # occ.  0.00000000
 
ion      s     py     pz     px    dxy    dyz    dz2    dxz    dx2    tot
  1  0.000  0.000  0.001  0.004  0.029  0.177  0.397  0.088  0.368  1.065
 
band   4 # energy    6.55538413 # occ.  0.00000000
 
ion      s     py     pz     px    dxy    dyz    dz2    dxz    dx2    tot
  1  0.000  0.000  0.000  0.000  0.059  0.356  0.000  0.178  0.474  1.067
 
band   5 # energy    9.31316782 # occ.  0.00000000
 
ion      s     py     pz     px    dxy    dyz    dz2    dxz    dx2    tot
  1  0.000  0.000  0.000  0.000  0.453  0.075  0.170  0.151  0.057  0.906
 
band   6 # energy    9.80992704 # occ.  0.00000000
 
ion      s     py     pz     px    dxy    dyz    dz2    dxz    dx2    tot
  1  0.000  0.000  0.000  0.000  0.155  0.233  0.058  0.466  0.019  0.934
 

 k-point    7 :    0.15000000 0.15000000 0.05000000     weight = 0.02400000

band   1 # energy    0.84994295 # occ.  1.00000000
 
ion      s     py     pz     px    dxy    dyz    dz2    dxz    dx2    tot
  1  0.624  0.064  0.090  0.032  0.012  0.061  0.000  0.031  0.001  0.916
 
band   2 # energy    4.87902941 # occ.  1.00000000
 
ion      s     py     pz     px    dxy    dyz    dz2    dxz    dx2    tot
  1  0.000  0.023  0.000  0.046  0.085  0.054  0.000  0.109  0.679  0.996
 
band   3 # energy    4.95247121 # occ.  1.00000000
 
ion      s     py     pz     px    dxy    dyz    dz2    dxz    dx2    tot
  1  0.006  0.035  0.000  0.018  0.040  0.236  0.574  0.118  0.005  1.030
 
band   4 # energy    9.21007353 # occ.  0.00000000
 
ion      s     py     pz     px    dxy    dyz    dz2    dxz    dx2    tot
  1  0.000  0.000  0.000  0.001  0.024  0.241  0.000  0.482  0.194  0.943
 
band   5 # energy   10.09209193 # occ.  0.00000000
 
ion      s     py     pz     px    dxy    dyz    dz2    dxz    dx2    tot
  1  0.004  0.001  0.000  0.000  0.735  0.021  0.096  0.010  0.092  0.960
 
band   6 # energy   10.45811914 # occ.  0.00000000
 
ion      s     py     pz     px    dxy    dyz    dz2    dxz    dx2    tot
  1  0.004  0.029  0.093  0.014  0.079  0.311  0.287  0.155  0.010  0.981
 

 k-point    8 :    0.25000000 0.15000000 0.05000000     weight = 0.04800000

band   1 # energy    2.01799371 # occ.  1.00000000
 
ion      s     py     pz     px    dxy    dyz    dz2    dxz    dx2    tot
  1  0.422  0.056  0.089  0.018  0.047  0.095  0.016  0.186  0.027  0.957
 
band   2 # energy    4.40786898 # occ.  1.00000000
 
ion      s     py     pz     px    dxy    dyz    dz2    dxz    dx2    tot
  1  0.000  0.049  0.004  0.024  0.179  0.233  0.229  0.001  0.303  1.021
 
band   3 # energy    4.98236689 # occ.  1.00000000
 
ion      s     py     pz     px    dxy    dyz    dz2    dxz    dx2    tot
  1  0.046  0.031  0.026  0.197  0.006  0.005  0.283  0.180  0.196  0.972
 
band   4 # energy    9.51162726 # occ.  0.00000000
 
ion      s     py     pz     px    dxy    dyz    dz2    dxz    dx2    tot
  1  0.003  0.000  0.000  0.009  0.004  0.315  0.000  0.363  0.268  0.962
 
band   5 # energy   10.43506829 # occ.  0.00000000
 
ion      s     py     pz     px    dxy    dyz    dz2    dxz    dx2    tot
  1  0.014  0.000  0.000  0.000  0.649  0.009  0.193  0.051  0.070  0.986
 
band   6 # energy   12.68288167 # occ.  0.00000000
 
ion      s     py     pz     px    dxy    dyz    dz2    dxz    dx2    tot
  1  0.002  0.053  0.121  0.028  0.104  0.249  0.244  0.101  0.058  0.961
 

 k-point    9 :    0.35000000 0.15000000 0.05000000     weight = 0.04800000

band   1 # energy    2.29807735 # occ.  1.00000000
 
ion      s     py     pz     px    dxy    dyz    dz2    dxz    dx2    tot
  1  0.250  0.031  0.041  0.004  0.074  0.074  0.038  0.369  0.110  0.989
 
band   2 # energy    4.19401054 # occ.  1.00000000
 
ion      s     py     pz     px    dxy    dyz    dz2    dxz    dx2    tot
  1  0.000  0.060  0.003  0.007  0.255  0.221  0.320  0.018  0.157  1.041
 
band   3 # energy    5.94452025 # occ.  0.00000000
 
ion      s     py     pz     px    dxy    dyz    dz2    dxz    dx2    tot
  1  0.026  0.051  0.119  0.389  0.039  0.043  0.081  0.022  0.152  0.922
 
band   4 # energy    9.76362937 # occ.  0.00000000
 
ion      s     py     pz     px    dxy    dyz    dz2    dxz    dx2    tot
  1  0.041  0.000  0.001  0.009  0.022  0.361  0.033  0.259  0.255  0.980
 
band   5 # energy   10.63686632 # occ.  0.00000000
 
ion      s     py     pz     px    dxy    dyz    dz2    dxz    dx2    tot
  1  0.009  0.002  0.002  0.013  0.502  0.011  0.295  0.150  0.012  0.996
 
band   6 # energy   14.53584192 # occ.  0.00000000
 
ion      s     py     pz     px    dxy    dyz    dz2    dxz    dx2    tot
  1  0.000  0.043  0.092  0.073  0.089  0.179  0.227  0.052  0.194  0.949
 

 k-point   10 :   -0.15000000 0.15000000 0.05000000     weight = 0.02400000

band   1 # energy   -1.14278396 # occ.  1.00000000
 
ion      s     py     pz     px    dxy    dyz    dz2    dxz    dx2    tot
  1  0.789  0.023  0.008  0.045  0.005  0.001  0.002  0.001  0.001  0.876
 
band   2 # energy    5.96435435 # occ.  0.00000000
 
ion      s     py     pz     px    dxy    dyz    dz2    dxz    dx2    tot
  1  0.000  0.003  0.000  0.002  0.002  0.689  0.000  0.344  0.015  1.055
 
band   3 # energy    6.19192358 # occ.  0.00000000
 
ion      s     py     pz     px    dxy    dyz    dz2    dxz    dx2    tot
  1  0.001  0.011  0.002  0.021  0.423  0.001  0.514  0.001  0.053  1.026
 
band   4 # energy    7.36769432 # occ.  0.00000000
 
ion      s     py     pz     px    dxy    dyz    dz2    dxz    dx2    tot
  1  0.000  0.013  0.000  0.007  0.111  0.013  0.000  0.007  0.888  1.038
 
band   5 # energy    8.63175145 # occ.  0.00000000
 
ion      s     py     pz     px    dxy    dyz    dz2    dxz    dx2    tot
  1  0.000  0.000  0.000  0.000  0.279  0.057  0.408  0.113  0.035  0.893
 
band   6 # energy    9.99310310 # occ.  0.00000000
 
ion      s     py     pz     px    dxy    dyz    dz2    dxz    dx2    tot
  1  0.002  0.000  0.002  0.000  0.093  0.249  0.082  0.499  0.012  0.939
 

 k-point   11 :    0.25000000 0.25000000 0.05000000     weight = 0.02400000

band   1 # energy    2.93954847 # occ.  1.00000000
 
ion      s     py     pz     px    dxy    dyz    dz2    dxz    dx2    tot
  1  0.240  0.015  0.085  0.007  0.002  0.351  0.125  0.176  0.000  1.001
 
band   2 # energy    4.30038044 # occ.  1.00000000
 
ion      s     py     pz     px    dxy    dyz    dz2    dxz    dx2    tot
  1  0.000  0.069  0.000  0.138  0.061  0.073  0.000  0.146  0.486  0.974
 
band   3 # energy    5.01795335 # occ.  1.00000000
 
ion      s     py     pz     px    dxy    dyz    dz2    dxz    dx2    tot
  1  0.042  0.187  0.053  0.093  0.232  0.018  0.313  0.009  0.029  0.976
 
band   4 # energy    9.82621553 # occ.  0.00000000
 
ion      s     py     pz     px    dxy    dyz    dz2    dxz    dx2    tot
  1  0.000  0.004  0.000  0.009  0.031  0.226  0.000  0.452  0.246  0.968
 
band   5 # energy   10.53334964 # occ.  0.00000000
 
ion      s     py     pz     px    dxy    dyz    dz2    dxz    dx2    tot
  1  0.041  0.003  0.000  0.001  0.479  0.031  0.366  0.015  0.060  0.997
 
band   6 # energy   14.96589454 # occ.  0.00000000
 
ion      s     py     pz     px    dxy    dyz    dz2    dxz    dx2    tot
  1  0.001  0.103  0.131  0.051  0.206  0.160  0.182  0.080  0.026  0.940
 

 k-point   12 :    0.35000000 0.25000000 0.05000000     weight = 0.02400000

band   1 # energy    3.12173147 # occ.  1.00000000
 
ion      s     py     pz     px    dxy    dyz    dz2    dxz    dx2    tot
  1  0.162  0.005  0.038  0.021  0.001  0.244  0.156  0.347  0.045  1.018
 
band   2 # energy    4.38473980 # occ.  1.00000000
 
ion      s     py     pz     px    dxy    dyz    dz2    dxz    dx2    tot
  1  0.001  0.187  0.004  0.037  0.345  0.096  0.120  0.034  0.162  0.986
 
band   3 # energy    5.25725520 # occ.  1.00000000
 
ion      s     py     pz     px    dxy    dyz    dz2    dxz    dx2    tot
  1  0.000  0.037  0.111  0.295  0.136  0.124  0.039  0.000  0.198  0.940
 
band   4 # energy   10.06559738 # occ.  0.00000000
 
ion      s     py     pz     px    dxy    dyz    dz2    dxz    dx2    tot
  1  0.024  0.009  0.001  0.002  0.015  0.307  0.133  0.253  0.232  0.977
 
band   5 # energy   10.57831392 # occ.  0.00000000
 
ion      s     py     pz     px    dxy    dyz    dz2    dxz    dx2    tot
  1  0.000  0.003  0.008  0.021  0.313  0.008  0.407  0.233  0.000  0.993
 
band   6 # energy   14.38585899 # occ.  0.00000000
 
ion      s     py     pz     px    dxy    dyz    dz2    dxz    dx2    tot
  1  0.678  0.000  0.040  0.017  0.000  0.093  0.012  0.037  0.035  0.913
 

 k-point   13 :   -0.25000000 0.25000000 0.05000000     weight = 0.02400000

band   1 # energy    0.17904769 # occ.  1.00000000
 
ion      s     py     pz     px    dxy    dyz    dz2    dxz    dx2    tot
  1  0.666  0.045  0.008  0.090  0.061  0.001  0.026  0.002  0.008  0.908
 
band   2 # energy    5.27603284 # occ.  1.00000000
 
ion      s     py     pz     px    dxy    dyz    dz2    dxz    dx2    tot
  1  0.000  0.003  0.000  0.002  0.000  0.696  0.000  0.348  0.003  1.052
 
band   3 # energy    5.61834740 # occ.  1.03460075
 
ion      s     py     pz     px    dxy    dyz    dz2    dxz    dx2    tot
  1  0.016  0.042  0.001  0.085  0.549  0.006  0.177  0.011  0.069  0.955
 
band   4 # energy    8.65816751 # occ.  0.00000000
 
ion      s     py     pz     px    dxy    dyz    dz2    dxz    dx2    tot
  1  0.000  0.005  0.000  0.010  0.100  0.047  0.665  0.095  0.012  0.934
 
band   5 # energy    8.97999815 # occ.  0.00000000
 
ion      s     py     pz     px    dxy    dyz    dz2    dxz    dx2    tot
  1  0.000  0.032  0.000  0.016  0.105  0.004  0.000  0.002  0.839  0.998
 
band   6 # energy   10.18982241 # occ.  0.00000000
 
ion      s     py     pz     px    dxy    dyz    dz2    dxz    dx2    tot
  1  0.007  0.000  0.003  0.000  0.066  0.254  0.104  0.509  0.008  0.952
 

 k-point   14 :   -0.15000000 0.25000000 0.05000000     weight = 0.02400000

band   1 # energy   -0.06049981 # occ.  1.00000000
 
ion      s     py     pz     px    dxy    dyz    dz2    dxz    dx2    tot
  1  0.702  0.076  0.030  0.041  0.020  0.017  0.005  0.002  0.002  0.896
 
band   2 # energy    5.63727953 # occ.  0.98336776
 
ion      s     py     pz     px    dxy    dyz    dz2    dxz    dx2    tot
  1  0.000  0.004  0.012  0.032  0.209  0.229  0.112  0.004  0.381  0.984
 
band   3 # energy    5.70985356 # occ.  0.04860127
 
ion      s     py     pz     px    dxy    dyz    dz2    dxz    dx2    tot
  1  0.003  0.024  0.002  0.007  0.065  0.528  0.193  0.182  0.034  1.037
 
band   4 # energy    8.07530806 # occ.  0.00000000
 
ion      s     py     pz     px    dxy    dyz    dz2    dxz    dx2    tot
  1  0.000  0.000  0.001  0.003  0.241  0.001  0.430  0.225  0.008  0.910
 
band   5 # energy    8.48632192 # occ.  0.00000000
 
ion      s     py     pz     px    dxy    dyz    dz2    dxz    dx2    tot
  1  0.001  0.050  0.001  0.003  0.240  0.035  0.133  0.023  0.519  1.005
 
band   6 # energy   10.39275735 # occ.  0.00000000
 
ion      s     py     pz     px    dxy    dyz    dz2    dxz    dx2    tot
  1  0.012  0.000  0.002  0.001  0.121  0.167  0.098  0.544  0.022  0.968
 

 k-point   15 :   -0.35000000 0.35000000 0.05000000     weight = 0.02400000

band   1 # energy    1.21845919 # occ.  1.00000000
 
ion      s     py     pz     px    dxy    dyz    dz2    dxz    dx2    tot
  1  0.454  0.030  0.008  0.059  0.283  0.001  0.082  0.002  0.035  0.955
 
band   2 # energy    4.68170446 # occ.  1.00000000
 
ion      s     py     pz     px    dxy    dyz    dz2    dxz    dx2    tot
  1  0.000  0.003  0.000  0.002  0.000  0.701  0.000  0.351  0.001  1.057
 
band   3 # energy    5.69875855 # occ.  0.15584913
 
ion      s     py     pz     px    dxy    dyz    dz2    dxz    dx2    tot
  1  0.066  0.127  0.000  0.253  0.345  0.016  0.026  0.032  0.043  0.908
 
band   4 # energy    9.19158244 # occ.  0.00000000
 
ion      s     py     pz     px    dxy    dyz    dz2    dxz    dx2    tot
  1  0.003  0.021  0.001  0.041  0.079  0.021  0.746  0.041  0.010  0.963
 
band   5 # energy   10.41809148 # occ.  0.00000000
 
ion      s     py     pz     px    dxy    dyz    dz2    dxz    dx2    tot
  1  0.020  0.002  0.003  0.004  0.050  0.279  0.051  0.558  0.006  0.973
 
band   6 # energy   11.11520041 # occ.  0.00000000
 
ion      s     py     pz     px    dxy    dyz    dz2    dxz    dx2    tot
  1  0.000  0.040  0.000  0.020  0.101  0.001  0.000  0.001  0.809  0.972
 

 k-point   16 :   -0.25000000 0.35000000 0.05000000     weight = 0.04800000

band   1 # energy    1.24375403 # occ.  1.00000000
 
ion      s     py     pz     px    dxy    dyz    dz2    dxz    dx2    tot
  1  0.538  0.090  0.028  0.060  0.137  0.030  0.042  0.003  0.002  0.930
 
band   2 # energy    4.92656669 # occ.  1.00000000
 
ion      s     py     pz     px    dxy    dyz    dz2    dxz    dx2    tot
  1  0.004  0.000  0.012  0.068  0.207  0.480  0.010  0.027  0.164  0.973
 
band   3 # energy    5.35920920 # occ.  1.00000000
 
ion      s     py     pz     px    dxy    dyz    dz2    dxz    dx2    tot
  1  0.018  0.055  0.003  0.063  0.147  0.263  0.080  0.274  0.095  0.999
 
band   4 # energy    8.37820474 # occ.  0.00000000
 
ion      s     py     pz     px    dxy    dyz    dz2    dxz    dx2    tot
  1  0.000  0.002  0.000  0.028  0.111  0.002  0.634  0.136  0.026  0.939
 
band   5 # energy   10.31344567 # occ.  0.00000000
 
ion      s     py     pz     px    dxy    dyz    dz2    dxz    dx2    tot
  1  0.004  0.064  0.000  0.000  0.046  0.092  0.138  0.072  0.563  0.980
 
band   6 # energy   10.69662980 # occ.  0.00000000
 
ion      s     py     pz     px    dxy    dyz    dz2    dxz    dx2    tot
  1  0.037  0.038  0.002  0.006  0.227  0.117  0.018  0.476  0.062  0.982
 

 k-point   17 :   -0.45000000 0.45000000 0.05000000     weight = 0.02400000

band   1 # energy    1.46304382 # occ.  1.00000000
 
ion      s     py     pz     px    dxy    dyz    dz2    dxz    dx2    tot
  1  0.301  0.003  0.007  0.006  0.496  0.000  0.110  0.000  0.062  0.986
 
band   2 # energy    4.34975108 # occ.  1.00000000
 
ion      s     py     pz     px    dxy    dyz    dz2    dxz    dx2    tot
  1  0.000  0.003  0.000  0.001  0.000  0.705  0.000  0.353  0.000  1.062
 
band   3 # energy    6.69970991 # occ.  0.00000000
 
ion      s     py     pz     px    dxy    dyz    dz2    dxz    dx2    tot
  1  0.028  0.228  0.000  0.455  0.057  0.036  0.000  0.071  0.007  0.882
 
band   4 # energy    9.35022656 # occ.  0.00000000
 
ion      s     py     pz     px    dxy    dyz    dz2    dxz    dx2    tot
  1  0.056  0.012  0.000  0.024  0.174  0.000  0.687  0.000  0.022  0.975
 
band   5 # energy   10.78804426 # occ.  0.00000000
 
ion      s     py     pz     px    dxy    dyz    dz2    dxz    dx2    tot
  1  0.009  0.031  0.001  0.061  0.008  0.293  0.000  0.586  0.001  0.990
 
band   6 # energy   13.06269878 # occ.  0.00000000
 
ion      s     py     pz     px    dxy    dyz    dz2    dxz    dx2    tot
  1  0.000  0.012  0.000  0.006  0.108  0.000  0.000  0.000  0.861  0.987
 

 k-point   18 :   -0.35000000 0.45000000 0.05000000     weight = 0.04800000

band   1 # energy    1.90223882 # occ.  1.00000000
 
ion      s     py     pz     px    dxy    dyz    dz2    dxz    dx2    tot
  1  0.325  0.047  0.025  0.011  0.412  0.020  0.091  0.000  0.040  0.971
 
band   2 # energy    4.62640634 # occ.  1.00000000
 
ion      s     py     pz     px    dxy    dyz    dz2    dxz    dx2    tot
  1  0.004  0.003  0.014  0.034  0.036  0.733  0.004  0.173  0.025  1.027
 
band   3 # energy    5.60225615 # occ.  1.02873120
 
ion      s     py     pz     px    dxy    dyz    dz2    dxz    dx2    tot
  1  0.044  0.136  0.002  0.261  0.086  0.000  0.005  0.267  0.114  0.916
 
band   4 # energy    8.91703052 # occ.  0.00000000
 
ion      s     py     pz     px    dxy    dyz    dz2    dxz    dx2    tot
  1  0.020  0.010  0.000  0.050  0.136  0.005  0.708  0.018  0.002  0.949
 
band   5 # energy   10.73165239 # occ.  0.00000000
 
ion      s     py     pz     px    dxy    dyz    dz2    dxz    dx2    tot
  1  0.056  0.007  0.001  0.047  0.011  0.232  0.008  0.473  0.159  0.994
 
band   6 # energy   12.70207462 # occ.  0.00000000
 
ion      s     py     pz     px    dxy    dyz    dz2    dxz    dx2    tot
  1  0.006  0.119  0.001  0.018  0.175  0.005  0.012  0.060  0.573  0.967
 

 k-point   19 :   -0.25000000 0.45000000 0.05000000     weight = 0.02400000

band   1 # energy    2.36831224 # occ.  1.00000000
 
ion      s     py     pz     px    dxy    dyz    dz2    dxz    dx2    tot
  1  0.368  0.094  0.026  0.043  0.140  0.220  0.067  0.000  0.003  0.961
 
band   2 # energy    4.32994736 # occ.  1.00000000
 
ion      s     py     pz     px    dxy    dyz    dz2    dxz    dx2    tot
  1  0.000  0.011  0.033  0.088  0.316  0.196  0.011  0.007  0.282  0.944
 
band   3 # energy    5.36469548 # occ.  1.00000000
 
ion      s     py     pz     px    dxy    dyz    dz2    dxz    dx2    tot
  1  0.016  0.122  0.033  0.055  0.000  0.265  0.119  0.311  0.073  0.994
 
band   4 # energy    8.68524292 # occ.  0.00000000
 
ion      s     py     pz     px    dxy    dyz    dz2    dxz    dx2    tot
  1  0.000  0.003  0.009  0.023  0.126  0.008  0.501  0.220  0.057  0.947
 
band   5 # energy   10.43721207 # occ.  0.00000000
 
ion      s     py     pz     px    dxy    dyz    dz2    dxz    dx2    tot
  1  0.083  0.000  0.005  0.002  0.023  0.262  0.135  0.300  0.181  0.990
 
band   6 # energy   12.77307819 # occ.  0.00000000
 
ion      s     py     pz     px    dxy    dyz    dz2    dxz    dx2    tot
  1  0.019  0.167  0.004  0.033  0.283  0.000  0.047  0.123  0.289  0.965
 

 k-point   20 :   -0.45000000-0.45000000 0.05000000     weight = 0.02400000

band   1 # energy    1.95893184 # occ.  1.00000000
 
ion      s     py     pz     px    dxy    dyz    dz2    dxz    dx2    tot
  1  0.247  0.010  0.023  0.005  0.524  0.007  0.098  0.004  0.066  0.984
 
band   2 # energy    4.52543578 # occ.  1.00000000
 
ion      s     py     pz     px    dxy    dyz    dz2    dxz    dx2    tot
  1  0.001  0.014  0.016  0.007  0.014  0.654  0.008  0.327  0.002  1.043
 
band   3 # energy    6.09493178 # occ.  0.00000000
 
ion      s     py     pz     px    dxy    dyz    dz2    dxz    dx2    tot
  1  0.000  0.184  0.000  0.369  0.006  0.096  0.000  0.193  0.045  0.892
 
band   4 # energy    8.87032448 # occ.  0.00000000
 
ion      s     py     pz     px    dxy    dyz    dz2    dxz    dx2    tot
  1  0.086  0.001  0.000  0.000  0.173  0.016  0.640  0.008  0.022  0.946
 
band   5 # energy   11.23986245 # occ.  0.00000000
 
ion      s     py     pz     px    dxy    dyz    dz2    dxz    dx2    tot
  1  0.000  0.065  0.000  0.131  0.017  0.216  0.000  0.432  0.136  0.997
 
band   6 # energy   13.95397777 # occ.  0.00000000
 
ion      s     py     pz     px    dxy    dyz    dz2    dxz    dx2    tot
  1  0.000  0.042  0.000  0.084  0.089  0.020  0.000  0.040  0.711  0.985
 

 k-point   21 :   -0.35000000-0.45000000 0.05000000     weight = 0.04800000

band   1 # energy    2.84014568 # occ.  1.00000000
 
ion      s     py     pz     px    dxy    dyz    dz2    dxz    dx2    tot
  1  0.214  0.050  0.027  0.000  0.415  0.116  0.112  0.016  0.036  0.986
 
band   2 # energy    4.38879509 # occ.  1.00000000
 
ion      s     py     pz     px    dxy    dyz    dz2    dxz    dx2    tot
  1  0.010  0.006  0.042  0.100  0.127  0.537  0.021  0.035  0.093  0.972
 
band   3 # energy    5.22687266 # occ.  1.00000000
 
ion      s     py     pz     px    dxy    dyz    dz2    dxz    dx2    tot
  1  0.003  0.163  0.013  0.174  0.007  0.003  0.022  0.447  0.105  0.936
 
band   4 # energy    9.15396169 # occ.  0.00000000
 
ion      s     py     pz     px    dxy    dyz    dz2    dxz    dx2    tot
  1  0.036  0.002  0.011  0.022  0.134  0.064  0.618  0.063  0.000  0.950
 
band   5 # energy   10.65842341 # occ.  0.00000000
 
ion      s     py     pz     px    dxy    dyz    dz2    dxz    dx2    tot
  1  0.045  0.022  0.002  0.065  0.004  0.215  0.003  0.303  0.326  0.984
 
band   6 # energy   15.06263014 # occ.  0.00000000
 
ion      s     py     pz     px    dxy    dyz    dz2    dxz    dx2    tot
  1  0.032  0.143  0.007  0.104  0.193  0.017  0.029  0.091  0.371  0.987
 

 k-point   22 :   -0.35000000-0.35000000 0.05000000     weight = 0.00800000

band   1 # energy    3.50195168 # occ.  1.00000000
 
ion      s     py     pz     px    dxy    dyz    dz2    dxz    dx2    tot
  1  0.178  0.000  0.000  0.000  0.063  0.376  0.211  0.188  0.008  1.024
 
band   2 # energy    4.48441636 # occ.  1.00000000
 
ion      s     py     pz     px    dxy    dyz    dz2    dxz    dx2    tot
  1  0.000  0.096  0.000  0.191  0.024  0.141  0.000  0.283  0.193  0.928
 
band   3 # energy    4.48442381 # occ.  1.00000000
 
ion      s     py     pz     px    dxy    dyz    dz2    dxz    dx2    tot
  1  0.000  0.127  0.096  0.064  0.506  0.048  0.000  0.024  0.063  0.928
 
band   4 # energy   10.11721423 # occ.  0.00000000
 
ion      s     py     pz     px    dxy    dyz    dz2    dxz    dx2    tot
  1  0.000  0.028  0.000  0.057  0.050  0.145  0.000  0.290  0.398  0.967
 
band   5 # energy   10.11721649 # occ.  0.00000000
 
ion      s     py     pz     px    dxy    dyz    dz2    dxz    dx2    tot
  1  0.000  0.038  0.028  0.019  0.079  0.100  0.644  0.050  0.010  0.967
 
band   6 # energy   14.67727048 # occ.  0.00000000
 
ion      s     py     pz     px    dxy    dyz    dz2    dxz    dx2    tot
  1  0.615  0.013  0.039  0.007  0.016  0.095  0.053  0.047  0.002  0.887
 

 k-point   23 :    0.15000000 0.15000000 0.15000000     weight = 0.00800000

band   1 # energy    2.23674731 # occ.  1.00000000
 
ion      s     py     pz     px    dxy    dyz    dz2    dxz    dx2    tot
  1  0.502  0.058  0.175  0.029  0.013  0.075  0.042  0.038  0.002  0.933
 
band   2 # energy    4.39507845 # occ.  1.00000000
 
ion      s     py     pz     px    dxy    dyz    dz2    dxz    dx2    tot
  1  0.000  0.073  0.017  0.004  0.079  0.190  0.350  0.004  0.298  1.015
 
band   3 # energy    4.39507845 # occ.  1.00000000
 
ion      s     py     pz     px    dxy    dyz    dz2    dxz    dx2    tot
  1  0.000  0.000  0.014  0.080  0.024  0.025  0.281  0.149  0.442  1.015
 
band   4 # energy   10.05980044 # occ.  0.00000000
 
ion      s     py     pz     px    dxy    dyz    dz2    dxz    dx2    tot
  1  0.000  0.000  0.000  0.000  0.550  0.051  0.023  0.345  0.000  0.970
 
band   5 # energy   10.05980044 # occ.  0.00000000
 
ion      s     py     pz     px    dxy    dyz    dz2    dxz    dx2    tot
  1  0.000  0.000  0.000  0.000  0.251  0.258  0.018  0.229  0.214  0.970
 
band   6 # energy   12.79067397 # occ.  0.00000000
 
ion      s     py     pz     px    dxy    dyz    dz2    dxz    dx2    tot
  1  0.003  0.050  0.149  0.025  0.055  0.331  0.186  0.166  0.007  0.972
 

 k-point   24 :    0.25000000 0.15000000 0.15000000     weight = 0.02400000
