<?xml version="1.0" encoding="ISO-8859-1"?>
<modeling>
 <generator>
  <i name="program" type="string">vasp </i>
  <i name="version" type="string">5.2.12  </i>
  <i name="subversion" type="string">11Nov11 complex                                                      parallel </i>
  <i name="platform" type="string">LinuxIFC </i>
  <i name="date" type="string">2012 10 14 </i>
  <i name="time" type="string">15:12:07 </i>
 </generator>
 <incar>
  <i type="string" name="PREC">accurate</i>
  <i name="ENCUT">    250.00000000</i>
  <i type="logical" name="LREAL"> F  </i>
  <i type="int" name="ISMEAR">     1</i>
  <i name="SIGMA">      0.05000000</i>
 </incar>
 <kpoints>
  <generation param="Monkhorst-Pack">
   <v type="int" name="divisions">      10       10       10 </v>
   <v name="usershift">      0.00000000       0.00000000       0.00000000 </v>
   <v name="genvec1">      0.10000000       0.00000000       0.00000000 </v>
   <v name="genvec2">      0.00000000       0.10000000       0.00000000 </v>
   <v name="genvec3">      0.00000000       0.00000000       0.10000000 </v>
   <v name="shift">      0.50000000       0.50000000       0.50000000 </v>
  </generation>
  <varray name="kpointlist" >
   <v>       0.05000000       0.05000000       0.05000000 </v>
   <v>       0.15000000       0.05000000       0.05000000 </v>
   <v>       0.25000000       0.05000000       0.05000000 </v>
   <v>       0.35000000       0.05000000       0.05000000 </v>
   <v>       0.45000000       0.05000000       0.05000000 </v>
   <v>      -0.05000000       0.05000000       0.05000000 </v>
   <v>       0.15000000       0.15000000       0.05000000 </v>
   <v>       0.25000000       0.15000000       0.05000000 </v>
   <v>       0.35000000       0.15000000       0.05000000 </v>
   <v>      -0.15000000       0.15000000       0.05000000 </v>
   <v>       0.25000000       0.25000000       0.05000000 </v>
   <v>       0.35000000       0.25000000       0.05000000 </v>
   <v>      -0.25000000       0.25000000       0.05000000 </v>
   <v>      -0.15000000       0.25000000       0.05000000 </v>
   <v>      -0.35000000       0.35000000       0.05000000 </v>
   <v>      -0.25000000       0.35000000       0.05000000 </v>
   <v>      -0.45000000       0.45000000       0.05000000 </v>
   <v>      -0.35000000       0.45000000       0.05000000 </v>
   <v>      -0.25000000       0.45000000       0.05000000 </v>
   <v>      -0.45000000      -0.45000000       0.05000000 </v>
   <v>      -0.35000000      -0.45000000       0.05000000 </v>
   <v>      -0.35000000      -0.35000000       0.05000000 </v>
   <v>       0.15000000       0.15000000       0.15000000 </v>
   <v>       0.25000000       0.15000000       0.15000000 </v>
   <v>       0.35000000       0.15000000       0.15000000 </v>
   <v>      -0.15000000       0.15000000       0.15000000 </v>
   <v>       0.25000000       0.25000000       0.15000000 </v>
   <v>      -0.25000000       0.25000000       0.15000000 </v>
   <v>      -0.35000000       0.35000000       0.15000000 </v>
   <v>      -0.25000000       0.35000000       0.15000000 </v>
   <v>      -0.45000000       0.45000000       0.15000000 </v>
   <v>      -0.35000000       0.45000000       0.15000000 </v>
   <v>      -0.45000000      -0.45000000       0.15000000 </v>
   <v>      -0.35000000      -0.45000000       0.15000000 </v>
   <v>       0.25000000       0.25000000       0.25000000 </v>
   <v>      -0.25000000       0.25000000       0.25000000 </v>
   <v>      -0.35000000       0.35000000       0.25000000 </v>
   <v>      -0.45000000       0.45000000       0.25000000 </v>
   <v>      -0.35000000       0.45000000       0.25000000 </v>
   <v>      -0.45000000      -0.45000000       0.25000000 </v>
   <v>      -0.35000000       0.35000000       0.35000000 </v>
   <v>      -0.45000000       0.45000000       0.35000000 </v>
   <v>      -0.45000000      -0.45000000       0.35000000 </v>
   <v>      -0.45000000       0.45000000       0.45000000 </v>
  </varray>
  <varray name="weights" >
   <v>       0.00800000 </v>
   <v>       0.02400000 </v>
   <v>       0.02400000 </v>
   <v>       0.02400000 </v>
   <v>       0.01200000 </v>
   <v>       0.00600000 </v>
   <v>       0.02400000 </v>
   <v>       0.04800000 </v>
   <v>       0.04800000 </v>
   <v>       0.02400000 </v>
   <v>       0.02400000 </v>
   <v>       0.02400000 </v>
   <v>       0.02400000 </v>
   <v>       0.02400000 </v>
   <v>       0.02400000 </v>
   <v>       0.04800000 </v>
   <v>       0.02400000 </v>
   <v>       0.04800000 </v>
   <v>       0.02400000 </v>
   <v>       0.02400000 </v>
   <v>       0.04800000 </v>
   <v>       0.00800000 </v>
   <v>       0.00800000 </v>
   <v>       0.02400000 </v>
   <v>       0.01200000 </v>
   <v>       0.00600000 </v>
   <v>       0.02400000 </v>
   <v>       0.02400000 </v>
   <v>       0.02400000 </v>
   <v>       0.02400000 </v>
   <v>       0.02400000 </v>
   <v>       0.04800000 </v>
   <v>       0.02400000 </v>
   <v>       0.02400000 </v>
   <v>       0.00200000 </v>
   <v>       0.00600000 </v>
   <v>       0.02400000 </v>
   <v>       0.02400000 </v>
   <v>       0.02400000 </v>
   <v>       0.02400000 </v>
   <v>       0.00600000 </v>
   <v>       0.02400000 </v>
   <v>       0.00800000 </v>
   <v>       0.00600000 </v>
  </varray>
 </kpoints>
 <parameters>
  <separator name="general" >
   <i type="string" name="SYSTEM">unknown system</i>
   <i type="logical" name="LCOMPAT"> F  </i>
  </separator>
  <separator name="electronic" >
   <i type="string" name="PREC">accura</i>
   <i name="ENMAX">    250.00000000</i>
   <i name="ENAUG">    332.07500000</i>
   <i name="EDIFF">      0.00010000</i>
   <i type="int" name="IALGO">    38</i>
   <i type="int" name="IWAVPR">    10</i>
   <i type="int" name="NBANDS">     6</i>
   <i name="NELECT">      5.00000000</i>
   <i type="int" name="TURBO">     0</i>
   <i type="int" name="IRESTART">     0</i>
   <i type="int" name="NREBOOT">     0</i>
   <i type="int" name="NMIN">     0</i>
   <i name="EREF">      0.00000000</i>
   <separator name="electronic smearing" >
    <i type="int" name="ISMEAR">     1</i>
    <i name="SIGMA">      0.05000000</i>
    <i name="KSPACING">      0.50000000</i>
    <i type="logical" name="KGAMMA"> T  </i>
   </separator>
   <separator name="electronic projectors" >
    <i type="logical" name="LREAL"> F  </i>
    <v name="ROPT">      0.00000000</v>
    <i type="int" name="LMAXPAW">  -100</i>
    <i type="int" name="LMAXMIX">     2</i>
    <i type="logical" name="NLSPLINE"> F  </i>
   </separator>
   <separator name="electronic startup" >
    <i type="int" name="ISTART">     0</i>
    <i type="int" name="ICHARG">     2</i>
    <i type="int" name="INIWAV">     1</i>
   </separator>
   <separator name="electronic spin" >
    <i type="int" name="ISPIN">     1</i>
    <i type="logical" name="LNONCOLLINEAR"> F  </i>
    <v name="MAGMOM">      1.00000000</v>
    <i name="NUPDOWN">     -1.00000000</i>
    <i type="logical" name="LSORBIT"> F  </i>
    <v name="SAXIS">      0.00000000      0.00000000      1.00000000</v>
    <i type="logical" name="LSPIRAL"> F  </i>
    <v name="QSPIRAL">      0.00000000      0.00000000      0.00000000</v>
    <i type="logical" name="LZEROZ"> F  </i>
   </separator>
   <separator name="electronic exchange-correlation" >
    <i type="logical" name="LASPH"> F  </i>
    <i type="logical" name="LMETAGGA"> F  </i>
   </separator>
   <separator name="electronic convergence" >
    <i type="int" name="NELM">    60</i>
    <i type="int" name="NELMDL">    -5</i>
    <i type="int" name="NELMIN">     2</i>
    <i name="ENINI">    250.00000000</i>
    <separator name="electronic convergence detail" >
     <i type="logical" name="LDIAG"> T  </i>
     <i type="logical" name="LSUBROT"> T  </i>
     <i name="WEIMIN">      0.00000000</i>
     <i name="EBREAK">      0.00000417</i>
     <i name="DEPER">      0.30000000</i>
     <i type="int" name="NRMM">     4</i>
     <i name="TIME">      0.40000000</i>
    </separator>
   </separator>
   <separator name="electronic mixer" >
    <i name="AMIX">      0.40000000</i>
    <i name="BMIX">      1.00000000</i>
    <i name="AMIN">      0.10000000</i>
    <i name="AMIX_MAG">      1.60000000</i>
    <i name="BMIX_MAG">      1.00000000</i>
    <separator name="electronic mixer details" >
     <i type="int" name="IMIX">     4</i>
     <i type="int" name="MAXMIX">   -45</i>
     <i name="WC">    100.00000000</i>
     <i type="int" name="INIMIX">     1</i>
     <i type="int" name="MIXPRE">     1</i>
     <i type="int" name="MREMOVE">     5</i>
    </separator>
   </separator>
   <separator name="electronic dipolcorrection" >
    <i type="logical" name="LDIPOL"> F  </i>
    <i type="logical" name="LMONO"> F  </i>
    <i type="int" name="IDIPOL">     0</i>
    <i name="EPSILON">      1.00000000</i>
    <v name="DIPOL">   -100.00000000   -100.00000000   -100.00000000</v>
    <i name="EFIELD">      0.00000000</i>
   </separator>
  </separator>
  <separator name="grids" >
   <i type="int" name="NGX">    16</i>
   <i type="int" name="NGY">    16</i>
   <i type="int" name="NGZ">    16</i>
   <i type="int" name="NGXF">    32</i>
   <i type="int" name="NGYF">    32</i>
   <i type="int" name="NGZF">    32</i>
   <i type="logical" name="ADDGRID"> F  </i>
  </separator>
  <separator name="ionic" >
   <i type="int" name="NSW">     0</i>
   <i type="int" name="IBRION">    -1</i>
   <i type="int" name="ISIF">     2</i>
   <i name="PSTRESS">      0.00000000</i>
   <i name="EDIFFG">      0.00100000</i>
   <i type="int" name="NFREE">     0</i>
   <i name="POTIM">      0.50000000</i>
   <i name="SMASS">     -3.00000000</i>
   <i name="SCALEE">      1.00000000</i>
  </separator>
  <separator name="ionic md" >
   <i name="TEBEG">      0.00010000</i>
   <i name="TEEND">      0.00010000</i>
   <i type="int" name="NBLOCK">     1</i>
   <i type="int" name="KBLOCK">     1</i>
   <i type="int" name="NPACO">   256</i>
   <i name="APACO">     16.00000000</i>
  </separator>
  <separator name="symmetry" >
   <i type="int" name="ISYM">     2</i>
   <i name="SYMPREC">      0.00001000</i>
  </separator>
  <separator name="dos" >
   <i type="logical" name="LORBIT"> F  </i>
   <v name="RWIGS">     -1.00000000</v>
   <i type="int" name="NEDOS">   301</i>
   <i name="EMIN">     10.00000000</i>
   <i name="EMAX">    -10.00000000</i>
   <i name="EFERMI">      0.00000000</i>
  </separator>
  <separator name="writing" >
   <i type="int" name="NWRITE">     2</i>
   <i type="logical" name="LWAVE"> T  </i>
   <i type="logical" name="LCHARG"> T  </i>
   <i type="logical" name="LPARD"> F  </i>
   <i type="logical" name="LVTOT"> F  </i>
   <i type="logical" name="LVHAR"> F  </i>
   <i type="logical" name="LELF"> F  </i>
   <i type="logical" name="LOPTICS"> F  </i>
   <v name="STM">      0.00000000      0.00000000      0.00000000      0.00000000      0.00000000      0.00000000      0.00000000</v>
  </separator>
  <separator name="performance" >
   <i type="int" name="NPAR">     1</i>
   <i type="int" name="NSIM">     4</i>
   <i type="int" name="NBLK">    -1</i>
   <i type="logical" name="LPLANE"> T  </i>
   <i type="logical" name="LSCALAPACK"> F  </i>
   <i type="logical" name="LSCAAWARE"> F  </i>
   <i type="logical" name="LSCALU"> F  </i>
   <i type="logical" name="LASYNC"> F  </i>
   <i type="logical" name="LORBITALREAL"> F  </i>
  </separator>
  <separator name="miscellaneous" >
   <i type="int" name="IDIOT">     3</i>
   <i type="logical" name="LMUSIC"> F  </i>
   <v name="POMASS">    180.94800000</v>
   <v name="DARWINR">      0.00000000</v>
   <v name="DARWINV">      1.00000000</v>
   <i type="logical" name="LCORR"> T  </i>
  </separator>
  <i type="logical" name="GGA_COMPAT"> T  </i>
  <i type="logical" name="LBERRY"> F  </i>
  <i type="int" name="ICORELEVEL">     0</i>
  <i type="logical" name="LDAU"> F  </i>
  <i type="int" name="I_CONSTRAINED_M">     0</i>
  <separator name="electronic exchange-correlation" >
   <i type="string" name="GGA">--</i>
   <i type="int" name="VOSKOWN">     0</i>
   <i type="logical" name="LHFCALC"> F  </i>
   <i type="string" name="PRECFOCK"></i>
   <i type="logical" name="LHFONE"> F  </i>
   <i type="logical" name="LRHFCALC"> F  </i>
   <i type="logical" name="LTHOMAS"> F  </i>
   <i type="logical" name="LMODELHF"> F  </i>
   <i name="ENCUT4O">     -1.00000000</i>
   <i type="int" name="EXXOEP">     0</i>
   <i type="int" name="FOURORBIT">     0</i>
   <i name="AEXX">      0.00000000</i>
   <i name="HFALPHA">      0.00000000</i>
   <i name="ALDAX">      1.00000000</i>
   <i name="AGGAX">      1.00000000</i>
   <i name="ALDAC">      1.00000000</i>
   <i name="AGGAC">      1.00000000</i>
   <i type="int" name="NKREDX">     1</i>
   <i type="int" name="NKREDY">     1</i>
   <i type="int" name="NKREDZ">     1</i>
   <i type="logical" name="SHIFTRED"> F  </i>
   <i type="logical" name="ODDONLY"> F  </i>
   <i type="logical" name="EVENONLY"> F  </i>
   <i type="int" name="LMAXFOCK">     0</i>
   <i type="int" name="NMAXFOCKAE">     0</i>
   <i type="logical" name="LFOCKAEDFT"> F  </i>
   <i name="HFSCREEN">      0.00000000</i>
   <i name="HFSCREENC">      0.00000000</i>
  </separator>
  <separator name="vdW DFT" >
   <i type="logical" name="LUSE_VDW"> F  </i>
   <i name="Zab_VDW">     -0.84910000</i>
   <i name="PARAM1">      0.12340000</i>
   <i name="PARAM2">      1.00000000</i>
   <i name="PARAM3">      0.00000000</i>
  </separator>
  <separator name="model GW" >
   <i type="int" name="MODEL_GW">     0</i>
   <i name="MODEL_EPS0">     10.87940730</i>
   <i name="MODEL_ALPHA">      1.00000000</i>
  </separator>
  <separator name="linear response parameters" >
   <i type="logical" name="LEPSILON"> F  </i>
   <i type="logical" name="LRPA"> F  </i>
   <i type="logical" name="LNABLA"> F  </i>
   <i type="logical" name="LVEL"> F  </i>
   <i type="int" name="KINTER">     0</i>
   <i name="CSHIFT">      0.10000000</i>
   <i name="OMEGAMAX">     -1.00000000</i>
  </separator>
  <separator name="orbital magnetization" >
   <i type="logical" name="NUCIND"> F  </i>
   <v name="MAGPOS">      0.00000000      0.00000000      0.00000000</v>
   <i type="logical" name="LNICSALL"> T  </i>
   <i type="logical" name="ORBITALMAG"> F  </i>
   <i type="logical" name="LMAGBLOCH"> F  </i>
   <i type="logical" name="LCHIMAG"> F  </i>
   <i type="logical" name="LGAUGE"> T  </i>
   <i type="int" name="MAGATOM">     0</i>
   <v name="MAGDIPOL">      0.00000000      0.00000000      0.00000000</v>
   <v name="AVECCONST">      0.00000000      0.00000000      0.00000000</v>
  </separator>
  <separator name="response functions" >
   <i type="logical" name="LADDER"> F  </i>
   <i type="logical" name="LHARTREE"> T  </i>
   <i type="int" name="IBSE">     0</i>
   <i type="logical" name="LTCTE"> F  </i>
   <i type="logical" name="LTETE"> F  </i>
   <i type="logical" name="LFXCEPS"> F  </i>
   <i type="logical" name="L2ORDER"> F  </i>
   <i type="logical" name="LUSEW"> F  </i>
   <i name="ENCUTGW">     -2.00000000</i>
   <i name="ENCUTGWSOFT">     -2.00000000</i>
   <i name="ENCUTLF">     -1.00000000</i>
   <i type="int" name="LMAXMP2">    -1</i>
   <i name="SCISSOR">      0.00000000</i>
   <i type="int" name="NOMEGA">     0</i>
   <i type="int" name="NOMEGAR">     0</i>
   <i type="int" name="NBANDSGW">    -1</i>
   <i type="int" name="NBANDSO">    -1</i>
   <i type="int" name="NBANDSV">    -1</i>
   <i name="OPTEMAX">      0.00000000</i>
   <i type="int" name="NELM">     1</i>
   <i type="int" name="DIM">     3</i>
   <i type="int" name="ANTIRES">     0</i>
   <i name="OMEGAMAX">    -30.00000000</i>
   <i name="OMEGATL">   -200.00000000</i>
   <i type="int" name="OMEGAGRID">     0</i>
   <i name="CSHIFT">     -0.10000000</i>
   <i type="logical" name="SELFENERGY"> F  </i>
   <i type="logical" name="LSPECTRAL"> F  </i>
   <i type="logical" name="ODDONLYGW"> F  </i>
   <i type="logical" name="EVENONLYGW"> F  </i>
   <i type="int" name="NKREDLFX">     1</i>
   <i type="int" name="NKREDLFY">     1</i>
   <i type="int" name="NKREDLFZ">     1</i>
   <i type="int" name="MAXMEM">  1800</i>
   <i type="int" name="TELESCOPE">     0</i>
  </separator>
 </parameters>
 <atominfo>
  <atoms>       1 </atoms>
  <types>       1 </types>
  <array name="atoms" >
   <dimension dim="1">ion</dimension>
   <field type="string">element</field>
   <field type="int">atomtype</field>
   <set>
    <rc><c>Ta</c><c>   1</c></rc>
   </set>
  </array>
  <array name="atomtypes" >
   <dimension dim="1">type</dimension>
   <field type="int">atomspertype</field>
   <field type="string">element</field>
   <field>mass</field>
   <field>valence</field>
   <field type="string">pseudopotential</field>
   <set>
    <rc><c>   1</c><c>Ta</c><c>    180.94800000</c><c>      5.00000000</c><c>  PAW_PBE Ta 17Jan2003                  </c></rc>
   </set>
  </array>
 </atominfo>
 <structure name="initialpos" >
  <crystal>
   <varray name="basis" >
    <v>       2.86654409       0.00000000       0.00000000 </v>
    <v>      -0.95551470       2.70260368       0.00000000 </v>
    <v>      -0.95551470      -1.35130184       2.34052345 </v>
   </varray>
   <i name="volume">     18.13234550 </i>
   <varray name="rec_basis" >
    <v>       0.34885213       0.12333785       0.21362743 </v>
    <v>       0.00000000       0.37001356       0.21362743 </v>
    <v>       0.00000000       0.00000000       0.42725485 </v>
   </varray>
  </crystal>
  <varray name="positions" >
   <v>       0.00000000       0.00000000       0.00000000 </v>
  </varray>
 </structure>
 <calculation>
  <scstep>
   <time name="dav">    0.35    0.57</time>
   <time name="total">    0.41    0.77</time>
   <energy>
    <i name="alphaZ">     30.58334069 </i>
    <i name="ewald">   -197.90100875 </i>
    <i name="hartreedc">     -2.50452612 </i>
    <i name="XCdc">    -66.68582559 </i>
    <i name="pawpsdc">    148.27821850 </i>
    <i name="pawaedc">    -73.99089003 </i>
    <i name="eentropy">     -0.00101479 </i>
    <i name="bandstr">     25.14670042 </i>
    <i name="atom">    130.63502393 </i>
    <i name="e_fr_energy">     -6.43998173 </i>
    <i name="e_wo_entrp">     -6.43896695 </i>
    <i name="e_0_energy">     -6.43964347 </i>
   </energy>
  </scstep>
  <scstep>
   <time name="dav">    0.45    0.46</time>
   <time name="total">    0.46    0.50</time>
   <energy>
    <i name="e_fr_energy">    -12.31254085 </i>
    <i name="e_wo_entrp">    -12.31199270 </i>
    <i name="e_0_energy">    -12.31235813 </i>
   </energy>
  </scstep>
  <scstep>
   <time name="dav">    0.32    0.46</time>
   <time name="total">    0.33    0.50</time>
   <energy>
    <i name="e_fr_energy">    -12.34237927 </i>
    <i name="e_wo_entrp">    -12.34177844 </i>
    <i name="e_0_energy">    -12.34217899 </i>
   </energy>
  </scstep>
  <scstep>
   <time name="dav">    0.39    0.40</time>
   <time name="total">    0.40    0.51</time>
   <energy>
    <i name="e_fr_energy">    -12.34243257 </i>
    <i name="e_wo_entrp">    -12.34183222 </i>
    <i name="e_0_energy">    -12.34223245 </i>
   </energy>
  </scstep>
  <scstep>
   <time name="dav">    0.30    0.32</time>
   <time name="total">    0.34    0.46</time>
   <energy>
    <i name="e_fr_energy">    -12.34243264 </i>
    <i name="e_wo_entrp">    -12.34183228 </i>
    <i name="e_0_energy">    -12.34223252 </i>
   </energy>
  </scstep>
  <scstep>
   <time name="dav">    0.38    0.40</time>
   <time name="total">    0.48    0.64</time>
   <energy>
    <i name="e_fr_energy">    -12.01190136 </i>
    <i name="e_wo_entrp">    -12.01180243 </i>
    <i name="e_0_energy">    -12.01186838 </i>
   </energy>
  </scstep>
  <scstep>
   <time name="dav">    0.34    0.35</time>
   <time name="total">    0.44    0.46</time>
   <energy>
    <i name="e_fr_energy">    -11.86059488 </i>
    <i name="e_wo_entrp">    -11.86112786 </i>
    <i name="e_0_energy">    -11.86077254 </i>
   </energy>
  </scstep>
  <scstep>
   <time name="dav">    0.33    0.34</time>
   <time name="total">    0.46    0.64</time>
   <energy>
    <i name="e_fr_energy">    -11.85957433 </i>
    <i name="e_wo_entrp">    -11.86018494 </i>
    <i name="e_0_energy">    -11.85977787 </i>
   </energy>
  </scstep>
  <scstep>
   <time name="dav">    0.23    0.24</time>
   <time name="total">    0.29    0.33</time>
   <energy>
    <i name="alphaZ">     30.58334069 </i>
    <i name="ewald">   -197.90100875 </i>
    <i name="hartreedc">     -0.58676886 </i>
    <i name="XCdc">    -65.99703435 </i>
    <i name="pawpsdc">    196.38934877 </i>
    <i name="pawaedc">   -122.96843051 </i>
    <i name="eentropy">      0.00061486 </i>
    <i name="bandstr">     17.98532735 </i>
    <i name="atom">    130.63502393 </i>
    <i name="e_fr_energy">    -11.85958686 </i>
    <i name="e_wo_entrp">    -11.86020172 </i>
    <i name="e_0_energy">    -11.85979182 </i>
   </energy>
  </scstep>
  <parameters_embedded>
   <separator name="dft+d2" >
    <i type="logical" name="LVDW"> F  </i>
   </separator>
  </parameters_embedded>
  <structure>
   <crystal>
    <varray name="basis" >
     <v>       2.86654409       0.00000000       0.00000000 </v>
     <v>      -0.95551470       2.70260368       0.00000000 </v>
     <v>      -0.95551470      -1.35130184       2.34052345 </v>
    </varray>
    <i name="volume">     18.13234550 </i>
    <varray name="rec_basis" >
     <v>       0.34885213       0.12333785       0.21362743 </v>
     <v>       0.00000000       0.37001356       0.21362743 </v>
     <v>       0.00000000       0.00000000       0.42725485 </v>
    </varray>
   </crystal>
   <varray name="positions" >
    <v>       0.00000000       0.00000000       0.00000000 </v>
   </varray>
  </structure>
  <varray name="forces" >
   <v>       0.00000000       0.00000000       0.00000000 </v>
  </varray>
  <varray name="stress" >
   <v>      -8.88652654       0.00000000       0.00000000 </v>
   <v>       0.00000000      -8.88652654       0.00000000 </v>
   <v>       0.00000000       0.00000000      -8.88652654 </v>
  </varray>
  <energy>
   <i name="e_fr_energy">    -11.85958686 </i>
   <i name="e_wo_entrp">    -11.85979182 </i>
   <i name="e_0_energy">      0.00061486 </i>
  </energy>
  <time name="totalsc">    4.14    6.33</time>
  <eigenvalues>
   <array>
    <dimension dim="1">band</dimension>
    <dimension dim="2">kpoint</dimension>
    <dimension dim="3">spin</dimension>
    <field>eigene</field>
    <field>occ</field>
    <set>
     <set comment="spin 1">
      <set comment="kpoint 1">
       <r>   -1.5474    1.0000 </r>
       <r>    6.0903    0.0000 </r>
       <r>    6.0903    0.0000 </r>
       <r>    7.2045    0.0000 </r>
       <r>    9.4452    0.0000 </r>
       <r>    9.4452    0.0000 </r>
      </set>
      <set comment="kpoint 2">
       <r>   -0.4247    1.0000 </r>
       <r>    5.4175    1.0000 </r>
       <r>    5.6007    1.0273 </r>
       <r>    8.5531    0.0000 </r>
       <r>    9.1291    0.0000 </r>
       <r>    9.7133    0.0000 </r>
      </set>
      <set comment="kpoint 3">
       <r>    0.9017    1.0000 </r>
       <r>    4.7609    1.0000 </r>
       <r>    5.2987    1.0000 </r>
       <r>    9.3475    0.0000 </r>
       <r>   10.0413    0.0000 </r>
       <r>   10.5250    0.0000 </r>
      </set>
      <set comment="kpoint 4">
       <r>    1.5318    1.0000 </r>
       <r>    4.3115    1.0000 </r>
       <r>    6.1092    0.0000 </r>
       <r>    9.6701    0.0000 </r>
       <r>   10.4053    0.0000 </r>
       <r>   12.6602    0.0000 </r>
      </set>
      <set comment="kpoint 5">
       <r>    1.5898    1.0000 </r>
       <r>    4.1536    1.0000 </r>
       <r>    6.9847    0.0000 </r>
       <r>    9.6514    0.0000 </r>
       <r>   10.5900    0.0000 </r>
       <r>   13.8060    0.0000 </r>
      </set>
      <set comment="kpoint 6">
       <r>   -1.9632    1.0000 </r>
       <r>    6.4088    0.0000 </r>
       <r>    6.4088    0.0000 </r>
       <r>    6.5460    0.0000 </r>
       <r>    9.3090    0.0000 </r>
       <r>    9.8057    0.0000 </r>
      </set>
      <set comment="kpoint 7">
       <r>    0.8458    1.0000 </r>
       <r>    4.8717    1.0000 </r>
       <r>    4.9443    1.0000 </r>
       <r>    9.2044    0.0000 </r>
       <r>   10.0868    0.0000 </r>
       <r>   10.4495    0.0000 </r>
      </set>
      <set comment="kpoint 8">
       <r>    2.0130    1.0000 </r>
       <r>    4.4003    1.0000 </r>
       <r>    4.9763    1.0000 </r>
       <r>    9.5054    0.0000 </r>
       <r>   10.4294    0.0000 </r>
       <r>   12.6750    0.0000 </r>
      </set>
      <set comment="kpoint 9">
       <r>    2.2922    1.0000 </r>
       <r>    4.1861    1.0000 </r>
       <r>    5.9404    0.0000 </r>
       <r>    9.7574    0.0000 </r>
       <r>   10.6310    0.0000 </r>
       <r>   14.5287    0.0000 </r>
      </set>
      <set comment="kpoint 10">
       <r>   -1.1468    1.0000 </r>
       <r>    5.9552    0.0000 </r>
       <r>    6.1833    0.0000 </r>
       <r>    7.3584    0.0000 </r>
       <r>    8.6272    0.0000 </r>
       <r>    9.9886    0.0000 </r>
      </set>
      <set comment="kpoint 11">
       <r>    2.9332    1.0000 </r>
       <r>    4.2945    1.0000 </r>
       <r>    5.0120    1.0000 </r>
       <r>    9.8198    0.0000 </r>
       <r>   10.5274    0.0000 </r>
       <r>   14.9594    0.0000 </r>
      </set>
      <set comment="kpoint 12">
       <r>    3.1147    1.0000 </r>
       <r>    4.3786    1.0000 </r>
       <r>    5.2526    1.0000 </r>
       <r>   10.0592    0.0000 </r>
       <r>   10.5720    0.0000 </r>
       <r>   14.3793    0.0000 </r>
      </set>
      <set comment="kpoint 13">
       <r>    0.1749    1.0000 </r>
       <r>    5.2671    1.0000 </r>
       <r>    5.6119    1.0350 </r>
       <r>    8.6523    0.0000 </r>
       <r>    8.9708    0.0000 </r>
       <r>   10.1848    0.0000 </r>
      </set>
      <set comment="kpoint 14">
       <r>   -0.0645    1.0000 </r>
       <r>    5.6298    1.0153 </r>
       <r>    5.7011    0.1291 </r>
       <r>    8.0698    0.0000 </r>
       <r>    8.4772    0.0000 </r>
       <r>   10.3878    0.0000 </r>
      </set>
      <set comment="kpoint 15">
       <r>    1.2135    1.0000 </r>
       <r>    4.6729    1.0000 </r>
       <r>    5.6945    0.2097 </r>
       <r>    9.1852    0.0000 </r>
       <r>   10.4127    0.0000 </r>
       <r>   11.1061    0.0000 </r>
      </set>
      <set comment="kpoint 16">
       <r>    1.2394    1.0000 </r>
       <r>    4.9199    1.0000 </r>
       <r>    5.3518    1.0000 </r>
       <r>    8.3717    0.0000 </r>
       <r>   10.3052    0.0000 </r>
       <r>   10.6906    0.0000 </r>
      </set>
      <set comment="kpoint 17">
       <r>    1.4574    1.0000 </r>
       <r>    4.3411    1.0000 </r>
       <r>    6.6969    0.0000 </r>
       <r>    9.3440    0.0000 </r>
       <r>   10.7825    0.0000 </r>
       <r>   13.0537    0.0000 </r>
      </set>
      <set comment="kpoint 18">
       <r>    1.8969    1.0000 </r>
       <r>    4.6185    1.0000 </r>
       <r>    5.5980    1.0249 </r>
       <r>    8.9106    0.0000 </r>
       <r>   10.7256    0.0000 </r>
       <r>   12.6940    0.0000 </r>
      </set>
      <set comment="kpoint 19">
       <r>    2.3632    1.0000 </r>
       <r>    4.3245    1.0000 </r>
       <r>    5.3577    1.0000 </r>
       <r>    8.6783    0.0000 </r>
       <r>   10.4309    0.0000 </r>
       <r>   12.7656    0.0000 </r>
      </set>
      <set comment="kpoint 20">
       <r>    1.9533    1.0000 </r>
       <r>    4.5171    1.0000 </r>
       <r>    6.0918    0.0000 </r>
       <r>    8.8641    0.0000 </r>
       <r>   11.2339    0.0000 </r>
       <r>   13.9461    0.0000 </r>
      </set>
      <set comment="kpoint 21">
       <r>    2.8341    1.0000 </r>
       <r>    4.3827    1.0000 </r>
       <r>    5.2221    1.0000 </r>
       <r>    9.1471    0.0000 </r>
       <r>   10.6516    0.0000 </r>
       <r>   15.0559    0.0000 </r>
      </set>
      <set comment="kpoint 22">
       <r>    3.4943    1.0000 </r>
       <r>    4.4801    1.0000 </r>
       <r>    4.4801    1.0000 </r>
       <r>   10.1101    0.0000 </r>
       <r>   10.1101    0.0000 </r>
       <r>   14.6710    0.0000 </r>
      </set>
      <set comment="kpoint 23">
       <r>    2.2324    1.0000 </r>
       <r>    4.3876    1.0000 </r>
       <r>    4.3876    1.0000 </r>
       <r>   10.0541    0.0000 </r>
       <r>   10.0541    0.0000 </r>
       <r>   12.7829    0.0000 </r>
      </set>
      <set comment="kpoint 24">
       <r>    3.1413    1.0000 </r>
       <r>    4.1417    1.0000 </r>
       <r>    4.7845    1.0000 </r>
       <r>   10.2206    0.0000 </r>
       <r>   10.5317    0.0000 </r>
       <r>   14.9706    0.0000 </r>
      </set>
      <set comment="kpoint 25">
       <r>    3.1495    1.0000 </r>
       <r>    4.0697    1.0000 </r>
       <r>    5.6063    1.0320 </r>
       <r>   10.2805    0.0000 </r>
       <r>   10.6834    0.0000 </r>
       <r>   14.3652    0.0000 </r>
      </set>
      <set comment="kpoint 26">
       <r>   -0.3695    1.0000 </r>
       <r>    6.3664    0.0000 </r>
       <r>    6.3664    0.0000 </r>
       <r>    7.1702    0.0000 </r>
       <r>    7.3648    0.0000 </r>
       <r>   10.5840    0.0000 </r>
      </set>
      <set comment="kpoint 27">
       <r>    3.7436    1.0000 </r>
       <r>    4.4043    1.0000 </r>
       <r>    4.8322    1.0000 </r>
       <r>   10.5342    0.0000 </r>
       <r>   10.6641    0.0000 </r>
       <r>   13.6565    0.0000 </r>
      </set>
      <set comment="kpoint 28">
       <r>    0.8933    1.0000 </r>
       <r>    5.5147    1.0000 </r>
       <r>    6.0088    0.0000 </r>
       <r>    7.2364    0.0000 </r>
       <r>    8.7245    0.0000 </r>
       <r>   10.7877    0.0000 </r>
      </set>
      <set comment="kpoint 29">
       <r>    1.9386    1.0000 </r>
       <r>    4.8895    1.0000 </r>
       <r>    5.5013    1.0000 </r>
       <r>    8.0400    0.0000 </r>
       <r>   10.8512    0.0000 </r>
       <r>   10.8914    0.0000 </r>
      </set>
      <set comment="kpoint 30">
       <r>    2.0631    1.0000 </r>
       <r>    4.5711    1.0000 </r>
       <r>    6.1428    0.0000 </r>
       <r>    7.5183    0.0000 </r>
       <r>    9.9820    0.0000 </r>
       <r>   10.9525    0.0000 </r>
      </set>
      <set comment="kpoint 31">
       <r>    2.1626    1.0000 </r>
       <r>    5.2029    1.0000 </r>
       <r>    5.2603    1.0000 </r>
       <r>    8.0148    0.0000 </r>
       <r>   11.9894    0.0000 </r>
       <r>   12.8512    0.0000 </r>
      </set>
      <set comment="kpoint 32">
       <r>    2.7691    1.0000 </r>
       <r>    4.1863    1.0000 </r>
       <r>    5.7446   -0.0328 </r>
       <r>    8.1522    0.0000 </r>
       <r>   10.7210    0.0000 </r>
       <r>   12.9095    0.0000 </r>
      </set>
      <set comment="kpoint 33">
       <r>    2.7817    1.0000 </r>
       <r>    4.5649    1.0000 </r>
       <r>    5.2976    1.0000 </r>
       <r>    8.1467    0.0000 </r>
       <r>   11.7569    0.0000 </r>
       <r>   14.5644    0.0000 </r>
      </set>
      <set comment="kpoint 34">
       <r>    3.6499    1.0000 </r>
       <r>    3.7121    1.0000 </r>
       <r>    4.9737    1.0000 </r>
       <r>    9.4148    0.0000 </r>
       <r>   10.5833    0.0000 </r>
       <r>   15.3676    0.0000 </r>
      </set>
      <set comment="kpoint 35">
       <r>    4.4738    1.0000 </r>
       <r>    4.4738    1.0000 </r>
       <r>    4.4738    1.0000 </r>
       <r>   10.7428    0.0000 </r>
       <r>   10.7428    0.0000 </r>
       <r>   12.7408    0.0000 </r>
      </set>
      <set comment="kpoint 36">
       <r>    1.9704    1.0000 </r>
       <r>    4.7874    1.0000 </r>
       <r>    6.9558    0.0000 </r>
       <r>    6.9558    0.0000 </r>
       <r>    8.8833    0.0000 </r>
       <r>   10.6861    0.0000 </r>
      </set>
      <set comment="kpoint 37">
       <r>    2.7940    1.0000 </r>
       <r>    3.8580    1.0000 </r>
       <r>    7.0156    0.0000 </r>
       <r>    7.6065    0.0000 </r>
       <r>   10.5454    0.0000 </r>
       <r>   10.8351    0.0000 </r>
      </set>
      <set comment="kpoint 38">
       <r>    2.8301    1.0000 </r>
       <r>    3.7717    1.0000 </r>
       <r>    6.8454    0.0000 </r>
       <r>    7.4895    0.0000 </r>
       <r>   12.5407    0.0000 </r>
       <r>   12.8235    0.0000 </r>
      </set>
      <set comment="kpoint 39">
       <r>    3.1212    1.0000 </r>
       <r>    3.1842    1.0000 </r>
       <r>    6.8572    0.0000 </r>
       <r>    8.8334    0.0000 </r>
       <r>   10.8152    0.0000 </r>
       <r>   12.9269    0.0000 </r>
      </set>
      <set comment="kpoint 40">
       <r>    2.9126    1.0000 </r>
       <r>    3.2367    1.0000 </r>
       <r>    6.5797    0.0000 </r>
       <r>    9.3488    0.0000 </r>
       <r>   11.6595    0.0000 </r>
       <r>   15.2702    0.0000 </r>
      </set>
      <set comment="kpoint 41">
       <r>    2.8987    1.0000 </r>
       <r>    2.9988    1.0000 </r>
       <r>    8.6125    0.0000 </r>
       <r>    8.6125    0.0000 </r>
       <r>   10.7677    0.0000 </r>
       <r>   10.9436    0.0000 </r>
      </set>
      <set comment="kpoint 42">
       <r>    2.5196    1.0000 </r>
       <r>    2.6819    1.0000 </r>
       <r>    9.0766    0.0000 </r>
       <r>    9.0837    0.0000 </r>
       <r>   12.2597    0.0000 </r>
       <r>   13.0702    0.0000 </r>
      </set>
      <set comment="kpoint 43">
       <r>    2.3658    1.0000 </r>
       <r>    2.3658    1.0000 </r>
       <r>    9.0087    0.0000 </r>
       <r>   11.4370    0.0000 </r>
       <r>   11.4370    0.0000 </r>
       <r>   15.5786    0.0000 </r>
      </set>
      <set comment="kpoint 44">
       <r>    2.0641    1.0000 </r>
       <r>    2.1109    1.0000 </r>
       <r>   11.3411    0.0000 </r>
       <r>   11.3411    0.0000 </r>
       <r>   12.2489    0.0000 </r>
       <r>   13.5515    0.0000 </r>
      </set>
     </set>
    </set>
   </array>
  </eigenvalues>
  <separator name="orbital magnetization" >
   <v name="MAGDIPOLOUT">      0.00000000      0.00000000      0.00000000</v>
  </separator>
  <dos>
   <i name="efermi">      5.67602324 </i>
   <total>
    <array>
     <dimension dim="1">gridpoints</dimension>
     <dimension dim="2">spin</dimension>
     <field>energy</field>
     <field>total</field>
     <field>integrated</field>
     <set>
      <set comment="spin 1">
       <r>    -2.8403     0.0000     0.0000 </r>
       <r>    -2.7760     0.0000     0.0000 </r>
       <r>    -2.7117     0.0000     0.0000 </r>
       <r>    -2.6474     0.0000     0.0000 </r>
       <r>    -2.5831     0.0000     0.0000 </r>
       <r>    -2.5187     0.0000     0.0000 </r>
       <r>    -2.4544     0.0000     0.0000 </r>
       <r>    -2.3901     0.0000     0.0000 </r>
       <r>    -2.3258     0.0000     0.0000 </r>
       <r>    -2.2615     0.0000     0.0000 </r>
       <r>    -2.1971     0.0000     0.0000 </r>
       <r>    -2.1328     0.0000     0.0000 </r>
       <r>    -2.0685    -0.0010    -0.0001 </r>
       <r>    -2.0042     0.0020     0.0001 </r>
       <r>    -1.9399     0.1579     0.0102 </r>
       <r>    -1.8755     0.0307     0.0122 </r>
       <r>    -1.8112    -0.0030     0.0120 </r>
       <r>    -1.7469     0.0000     0.0120 </r>
       <r>    -1.6826    -0.0001     0.0120 </r>
       <r>    -1.6183    -0.0076     0.0115 </r>
       <r>    -1.5539     0.1049     0.0182 </r>
       <r>    -1.4896     0.1602     0.0286 </r>
       <r>    -1.4253    -0.0082     0.0280 </r>
       <r>    -1.3610    -0.0004     0.0280 </r>
       <r>    -1.2967    -0.0001     0.0280 </r>
       <r>    -1.2323    -0.0134     0.0271 </r>
       <r>    -1.1680     0.1433     0.0364 </r>
       <r>    -1.1037     0.6196     0.0762 </r>
       <r>    -1.0394     0.0005     0.0762 </r>
       <r>    -0.9751    -0.0036     0.0760 </r>
       <r>    -0.9107     0.0000     0.0760 </r>
       <r>    -0.8464     0.0000     0.0760 </r>
       <r>    -0.7821     0.0000     0.0760 </r>
       <r>    -0.7178     0.0000     0.0760 </r>
       <r>    -0.6535     0.0000     0.0760 </r>
       <r>    -0.5891     0.0000     0.0760 </r>
       <r>    -0.5248    -0.0059     0.0756 </r>
       <r>    -0.4605     0.0292     0.0775 </r>
       <r>    -0.3962     0.6740     0.1208 </r>
       <r>    -0.3319     0.2405     0.1363 </r>
       <r>    -0.2675    -0.0036     0.1361 </r>
       <r>    -0.2032    -0.0016     0.1360 </r>
       <r>    -0.1389    -0.0208     0.1346 </r>
       <r>    -0.0746     0.2691     0.1520 </r>
       <r>    -0.0103     0.5219     0.1855 </r>
       <r>     0.0541    -0.0234     0.1840 </r>
       <r>     0.1184    -0.0256     0.1824 </r>
       <r>     0.1827     0.4952     0.2142 </r>
       <r>     0.2470     0.2989     0.2334 </r>
       <r>     0.3113    -0.0222     0.2320 </r>
       <r>     0.3757    -0.0003     0.2320 </r>
       <r>     0.4400     0.0000     0.2320 </r>
       <r>     0.5043     0.0000     0.2320 </r>
       <r>     0.5686     0.0000     0.2320 </r>
       <r>     0.6329     0.0000     0.2320 </r>
       <r>     0.6973    -0.0001     0.2320 </r>
       <r>     0.7616    -0.0150     0.2310 </r>
       <r>     0.8259     0.1126     0.2383 </r>
       <r>     0.8902     1.2234     0.3170 </r>
       <r>     0.9545     0.9700     0.3794 </r>
       <r>     1.0189    -0.0497     0.3762 </r>
       <r>     1.0832    -0.0031     0.3760 </r>
       <r>     1.1475    -0.0443     0.3731 </r>
       <r>     1.2118     0.5498     0.4085 </r>
       <r>     1.2761     1.7175     0.5189 </r>
       <r>     1.3405     0.0266     0.5207 </r>
       <r>     1.4048    -0.0331     0.5185 </r>
       <r>     1.4691     0.5121     0.5515 </r>
       <r>     1.5334     0.6587     0.5938 </r>
       <r>     1.5977     0.6067     0.6329 </r>
       <r>     1.6621     0.1229     0.6408 </r>
       <r>     1.7264    -0.0116     0.6400 </r>
       <r>     1.7907    -0.0081     0.6395 </r>
       <r>     1.8550    -0.0128     0.6387 </r>
       <r>     1.9193     1.4360     0.7310 </r>
       <r>     1.9837     1.7865     0.8459 </r>
       <r>     2.0480     1.6462     0.9518 </r>
       <r>     2.1123     0.8610     1.0072 </r>
       <r>     2.1766     0.6142     1.0467 </r>
       <r>     2.2409     0.3420     1.0687 </r>
       <r>     2.3053     1.1408     1.1421 </r>
       <r>     2.3696     1.2363     1.2216 </r>
       <r>     2.4339     0.4993     1.2537 </r>
       <r>     2.4982     0.1020     1.2603 </r>
       <r>     2.5625     0.6186     1.3001 </r>
       <r>     2.6269    -0.0223     1.2986 </r>
       <r>     2.6912     0.4556     1.3279 </r>
       <r>     2.7555     0.7926     1.3789 </r>
       <r>     2.8198     3.0695     1.5764 </r>
       <r>     2.8841     1.8562     1.6957 </r>
       <r>     2.9485     1.2865     1.7785 </r>
       <r>     3.0128     0.3601     1.8017 </r>
       <r>     3.0771     0.0114     1.8024 </r>
       <r>     3.1414     1.7955     1.9179 </r>
       <r>     3.2057     1.5769     2.0193 </r>
       <r>     3.2701     0.7331     2.0665 </r>
       <r>     3.3344     0.0310     2.0684 </r>
       <r>     3.3987    -0.0096     2.0678 </r>
       <r>     3.4630     0.0198     2.0691 </r>
       <r>     3.5273     0.2170     2.0831 </r>
       <r>     3.5917    -0.0105     2.0824 </r>
       <r>     3.6560     0.4348     2.1104 </r>
       <r>     3.7203     0.9259     2.1699 </r>
       <r>     3.7846     1.4303     2.2619 </r>
       <r>     3.8489     0.5029     2.2943 </r>
       <r>     3.9133     0.4871     2.3256 </r>
       <r>     3.9776    -0.0281     2.3238 </r>
       <r>     4.0419     0.0331     2.3259 </r>
       <r>     4.1062     0.2838     2.3442 </r>
       <r>     4.1705     1.7700     2.4580 </r>
       <r>     4.2349     2.4163     2.6134 </r>
       <r>     4.2992     0.6669     2.6563 </r>
       <r>     4.3635     2.8158     2.8374 </r>
       <r>     4.4278     4.2137     3.1085 </r>
       <r>     4.4921     0.8345     3.1621 </r>
       <r>     4.5565     1.2552     3.2429 </r>
       <r>     4.6208     1.9052     3.3654 </r>
       <r>     4.6851     1.2103     3.4433 </r>
       <r>     4.7494     0.4681     3.4734 </r>
       <r>     4.8137     1.4468     3.5664 </r>
       <r>     4.8781     1.3728     3.6547 </r>
       <r>     4.9424     2.5815     3.8208 </r>
       <r>     5.0067     2.9301     4.0092 </r>
       <r>     5.0710     0.5905     4.0472 </r>
       <r>     5.1353    -0.1023     4.0406 </r>
       <r>     5.1997     0.5344     4.0750 </r>
       <r>     5.2640     3.0834     4.2733 </r>
       <r>     5.3283     2.6390     4.4431 </r>
       <r>     5.3926     2.0769     4.5767 </r>
       <r>     5.4569     0.6456     4.6182 </r>
       <r>     5.5213     1.0152     4.6835 </r>
       <r>     5.5856     1.3198     4.7684 </r>
       <r>     5.6499     3.1524     4.9711 </r>
       <r>     5.7142     1.4146     5.0621 </r>
       <r>     5.7785     1.6711     5.1696 </r>
       <r>     5.8429     0.0343     5.1718 </r>
       <r>     5.9072     0.0616     5.1758 </r>
       <r>     5.9715     1.9126     5.2988 </r>
       <r>     6.0358     0.8993     5.3566 </r>
       <r>     6.1001     1.1758     5.4323 </r>
       <r>     6.1645     1.7622     5.5456 </r>
       <r>     6.2288     0.6835     5.5896 </r>
       <r>     6.2931    -0.0333     5.5874 </r>
       <r>     6.3574     0.1294     5.5958 </r>
       <r>     6.4217     0.5297     5.6298 </r>
       <r>     6.4861     0.0908     5.6357 </r>
       <r>     6.5504     0.1769     5.6470 </r>
       <r>     6.6147     0.7218     5.6935 </r>
       <r>     6.6790     0.2077     5.7068 </r>
       <r>     6.7433     0.5824     5.7443 </r>
       <r>     6.8077    -0.0029     5.7441 </r>
       <r>     6.8720     1.2029     5.8215 </r>
       <r>     6.9363     0.3636     5.8449 </r>
       <r>     7.0006     0.7768     5.8948 </r>
       <r>     7.0649     0.6669     5.9377 </r>
       <r>     7.1293    -0.0340     5.9355 </r>
       <r>     7.1936     0.2433     5.9512 </r>
       <r>     7.2579     0.8225     6.0041 </r>
       <r>     7.3222     0.1607     6.0144 </r>
       <r>     7.3865     0.7863     6.0650 </r>
       <r>     7.4509     0.1094     6.0720 </r>
       <r>     7.5152     0.9786     6.1350 </r>
       <r>     7.5795     0.6322     6.1756 </r>
       <r>     7.6438     0.6100     6.2149 </r>
       <r>     7.7081     0.0229     6.2163 </r>
       <r>     7.7725    -0.0053     6.2160 </r>
       <r>     7.8368     0.0000     6.2160 </r>
       <r>     7.9011    -0.0025     6.2158 </r>
       <r>     7.9654    -0.0406     6.2132 </r>
       <r>     8.0297     0.8455     6.2676 </r>
       <r>     8.0941     1.3005     6.3513 </r>
       <r>     8.1584     1.5664     6.4520 </r>
       <r>     8.2227     0.8751     6.5083 </r>
       <r>     8.2870    -0.0939     6.5023 </r>
       <r>     8.3513     0.3023     6.5217 </r>
       <r>     8.4157     1.2020     6.5990 </r>
       <r>     8.4800     0.4082     6.6253 </r>
       <r>     8.5443     0.6114     6.6646 </r>
       <r>     8.6086     0.8006     6.7161 </r>
       <r>     8.6729     1.7279     6.8272 </r>
       <r>     8.7373     1.1359     6.9003 </r>
       <r>     8.8016     0.2139     6.9140 </r>
       <r>     8.8659     1.0885     6.9841 </r>
       <r>     8.9302     1.7965     7.0996 </r>
       <r>     8.9945     0.9638     7.1616 </r>
       <r>     9.0589     0.5189     7.1950 </r>
       <r>     9.1232     1.7313     7.3063 </r>
       <r>     9.1875     2.3639     7.4584 </r>
       <r>     9.2518     0.9142     7.5172 </r>
       <r>     9.3161     0.2612     7.5340 </r>
       <r>     9.3805     2.0525     7.6660 </r>
       <r>     9.4448     0.9927     7.7298 </r>
       <r>     9.5091     1.2097     7.8077 </r>
       <r>     9.5734     0.6603     7.8501 </r>
       <r>     9.6377     0.0936     7.8561 </r>
       <r>     9.7021     1.1385     7.9294 </r>
       <r>     9.7664     1.5808     8.0311 </r>
       <r>     9.8307     1.2271     8.1100 </r>
       <r>     9.8950     0.2203     8.1241 </r>
       <r>     9.9593     0.1517     8.1339 </r>
       <r>    10.0237     1.5027     8.2306 </r>
       <r>    10.0880     2.2181     8.3732 </r>
       <r>    10.1523     0.9127     8.4319 </r>
       <r>    10.2166     0.9274     8.4916 </r>
       <r>    10.2809     0.9279     8.5513 </r>
       <r>    10.3453     1.3417     8.6376 </r>
       <r>    10.4096     1.9093     8.7604 </r>
       <r>    10.4739     3.2639     8.9703 </r>
       <r>    10.5382     2.3674     9.1226 </r>
       <r>    10.6025     3.3652     9.3390 </r>
       <r>    10.6669     3.4347     9.5599 </r>
       <r>    10.7312     4.4843     9.8484 </r>
       <r>    10.7955     2.5703    10.0137 </r>
       <r>    10.8598     2.2470    10.1582 </r>
       <r>    10.9241     1.1252    10.2306 </r>
       <r>    10.9885     0.8134    10.2829 </r>
       <r>    11.0528     0.0007    10.2830 </r>
       <r>    11.1171     0.5226    10.3166 </r>
       <r>    11.1814     0.2384    10.3319 </r>
       <r>    11.2457     0.5162    10.3651 </r>
       <r>    11.3101     0.2775    10.3829 </r>
       <r>    11.3744     0.2903    10.4016 </r>
       <r>    11.4387     0.3033    10.4211 </r>
       <r>    11.5030     0.2483    10.4371 </r>
       <r>    11.5673    -0.0262    10.4354 </r>
       <r>    11.6317     0.0831    10.4408 </r>
       <r>    11.6960     0.6233    10.4808 </r>
       <r>    11.7603     0.4707    10.5111 </r>
       <r>    11.8246     0.3495    10.5336 </r>
       <r>    11.8889    -0.0302    10.5317 </r>
       <r>    11.9533     0.0296    10.5336 </r>
       <r>    12.0176     0.6497    10.5754 </r>
       <r>    12.0819     0.0817    10.5806 </r>
       <r>    12.1462    -0.0129    10.5798 </r>
       <r>    12.2105    -0.0103    10.5791 </r>
       <r>    12.2749     0.7337    10.6263 </r>
       <r>    12.3392     0.2331    10.6413 </r>
       <r>    12.4035    -0.0203    10.6400 </r>
       <r>    12.4678    -0.0219    10.6386 </r>
       <r>    12.5321     0.2872    10.6571 </r>
       <r>    12.5965     0.4294    10.6847 </r>
       <r>    12.6608     0.9086    10.7431 </r>
       <r>    12.7251     2.8379    10.9256 </r>
       <r>    12.7894     0.9172    10.9846 </r>
       <r>    12.8537     1.2186    11.0630 </r>
       <r>    12.9181     1.7050    11.1727 </r>
       <r>    12.9824     1.0187    11.2382 </r>
       <r>    13.0467     0.3632    11.2616 </r>
       <r>    13.1110     1.1164    11.3334 </r>
       <r>    13.1753    -0.0159    11.3323 </r>
       <r>    13.2397    -0.0054    11.3320 </r>
       <r>    13.3040     0.0000    11.3320 </r>
       <r>    13.3683     0.0000    11.3320 </r>
       <r>    13.4326    -0.0004    11.3320 </r>
       <r>    13.4969    -0.0057    11.3316 </r>
       <r>    13.5613     0.1216    11.3394 </r>
       <r>    13.6256     0.1297    11.3478 </r>
       <r>    13.6899     0.6478    11.3894 </r>
       <r>    13.7542     0.0361    11.3918 </r>
       <r>    13.8185     0.2660    11.4089 </r>
       <r>    13.8829     0.0942    11.4149 </r>
       <r>    13.9472     0.4037    11.4409 </r>
       <r>    14.0115     0.3849    11.4657 </r>
       <r>    14.0758    -0.0252    11.4640 </r>
       <r>    14.1401    -0.0006    11.4640 </r>
       <r>    14.2045     0.0000    11.4640 </r>
       <r>    14.2688    -0.0066    11.4636 </r>
       <r>    14.3331     0.0183    11.4648 </r>
       <r>    14.3974     0.9236    11.5242 </r>
       <r>    14.4617     0.1480    11.5337 </r>
       <r>    14.5261     0.7292    11.5806 </r>
       <r>    14.5904     1.5038    11.6773 </r>
       <r>    14.6547     0.1139    11.6846 </r>
       <r>    14.7190     0.1819    11.6963 </r>
       <r>    14.7833    -0.0044    11.6961 </r>
       <r>    14.8477    -0.0045    11.6958 </r>
       <r>    14.9120    -0.0369    11.6934 </r>
       <r>    14.9763     1.0241    11.7593 </r>
       <r>    15.0406     0.9290    11.8190 </r>
       <r>    15.1049     1.1074    11.8902 </r>
       <r>    15.1693    -0.0359    11.8879 </r>
       <r>    15.2336     0.0226    11.8894 </r>
       <r>    15.2979     0.6250    11.9296 </r>
       <r>    15.3622     0.4150    11.9563 </r>
       <r>    15.4265     0.4572    11.9857 </r>
       <r>    15.4909    -0.0293    11.9838 </r>
       <r>    15.5552     0.0399    11.9864 </r>
       <r>    15.6195     0.2106    11.9999 </r>
       <r>    15.6838     0.0027    12.0001 </r>
       <r>    15.7481    -0.0014    12.0000 </r>
       <r>    15.8125     0.0000    12.0000 </r>
       <r>    15.8768     0.0000    12.0000 </r>
       <r>    15.9411     0.0000    12.0000 </r>
       <r>    16.0054     0.0000    12.0000 </r>
       <r>    16.0697     0.0000    12.0000 </r>
       <r>    16.1341     0.0000    12.0000 </r>
       <r>    16.1984     0.0000    12.0000 </r>
       <r>    16.2627     0.0000    12.0000 </r>
       <r>    16.3270     0.0000    12.0000 </r>
       <r>    16.3913     0.0000    12.0000 </r>
       <r>    16.4557     0.0000    12.0000 </r>
      </set>
     </set>
    </array>
   </total>
  </dos>
 </calculation>
 <structure name="finalpos" >
  <crystal>
   <varray name="basis" >
    <v>       2.86654409       0.00000000       0.00000000 </v>
    <v>      -0.95551470       2.70260368       0.00000000 </v>
    <v>      -0.95551470      -1.35130184       2.34052345 </v>
   </varray>
   <i name="volume">     18.13234550 </i>
   <varray name="rec_basis" >
    <v>       0.34885213       0.12333785       0.21362743 </v>
    <v>       0.00000000       0.37001356       0.21362743 </v>
    <v>       0.00000000       0.00000000       0.42725485 </v>
   </varray>
  </crystal>
  <varray name="positions" >
   <v>       0.00000000       0.00000000       0.00000000 </v>
  </varray>
 </structure>
</modeling>
