    4    4    1    2
  0.8797333E+01  0.2461200E-09  0.2461200E-09  0.6707900E-09  0.5000000E-15
  1.000000000000000E-004
  CAR 
 unknown system                          
   16   84   14
 
  0.0000000E+00  0.0000000E+00  0.0000000E+00  0.1000000E-02
   1      -15.750074    -15.749627
   2      -15.486215    -15.485783
   3       -3.274802     -3.274340
   4       -1.114130     -1.113633
   5        2.423937      2.424083
   6        2.423981      2.424102
   7        2.570435      2.570587
   8        2.570480      2.570603
   9        9.043264      9.043860
  10       13.744792     13.746958
  11       13.744841     13.746992
  12       14.444286     14.446372
  13       14.444330     14.446419
  14       16.327385     16.329782
 
  0.1000000E+00 -0.6938894E-17  0.0000000E+00  0.6000000E-02
   1      -15.510524    -15.510083
   2      -15.245706    -15.245267
   3       -3.001112     -3.000660
   4       -1.046121     -1.045618
   5        1.309066      1.309306
   6        1.496471      1.496676
   7        1.972056      1.972286
   8        2.461473      2.461611
   9        9.343572      9.344161
  10       13.679334     13.681230
  11       13.843694     13.845649
  12       14.832498     14.834589
  13       15.370219     15.372268
  14       17.126396     16.698923
 
  0.2000000E+00 -0.2775558E-16  0.0000000E+00  0.6000000E-02
   1      -14.784132    -14.783694
   2      -14.515034    -14.514603
   3       -2.078472     -2.078049
   4       -1.025803     -1.025461
   5       -0.921296     -0.920993
   6       -0.266174     -0.265691
   7        1.055149      1.055499
   8        1.372583      1.372886
   9       10.247340     10.247924
  10       13.262671     13.264289
  11       13.494533     13.496135
  12       14.646367     14.646760
  13       15.337096     15.337617
  14       17.454520     17.455246
 
  0.3000000E+00 -0.5551115E-16  0.0000000E+00  0.6000000E-02
   1      -13.591890    -13.591470
   2      -13.324781    -13.324369
   3       -4.036749     -4.036336
   4       -3.973901     -3.973487
   5       -0.642720     -0.642331
   6       -0.042876     -0.042430
   7        0.173814      0.174224
   8        1.021711      1.022171
   9       11.075490     11.075957
  10       11.740354     11.740907
  11       12.341977     12.342454
  12       12.486321     12.487767
  13       12.712126     12.713559
  14       18.427528     18.428548
 
  0.4000000E+00 -0.5551115E-16  0.0000000E+00  0.6000000E-02
   1      -11.903347    -11.902976
   2      -11.741021    -11.740643
   3       -6.879729     -6.879260
   4       -6.735161     -6.734708
   5       -0.813828     -0.813334
   6       -0.591739     -0.591286
   7        1.036215      1.036519
   8        2.657136      2.657531
   9        8.105066      8.105609
  10        9.496091      9.496636
  11       11.951568     11.952914
  12       12.342493     12.343895
  13       13.848545     13.849106
  14       19.200952     19.202553
 
  0.5000000E+00 -0.8326673E-16  0.0000000E+00  0.3000000E-02
   1      -10.325583    -10.325373
   2      -10.265715    -10.265475
   3       -8.649028     -8.648443
   4       -8.594923     -8.594328
   5       -1.066675     -1.066175
   6       -0.845993     -0.845531
   7        2.530303      2.530349
   8        3.329306      3.329824
   9        6.805829      6.806377
  10        7.973051      7.973701
  11       11.877928     11.879304
  12       12.263442     12.264866
  13       16.405507     16.405221
  14       16.604509     16.605906
 
  0.1000000E+00  0.1000000E+00  0.0000000E+00  0.6000000E-02
   1      -15.029364    -15.028935
   2      -14.761203    -14.760774
   3       -2.393604     -2.393168
   4       -0.628067     -0.627565
   5       -0.062733     -0.062482
   6       -0.000469     -0.000213
   7        1.002885      1.003251
   8        1.051400      1.051783
   9        9.944538      9.945125
  10       14.347424     14.349114
  11       14.491244     14.492907
  12       15.383587     15.385344
  13       15.506095     15.506449
  14       15.551652     15.553464
 
  0.2000000E+00  0.1000000E+00  0.0000000E+00  0.1200000E-01
   1      -14.066189    -14.065762
   2      -13.794838    -13.794413
   3       -2.626634     -2.626300
   4       -2.524442     -2.524130
   5       -1.174334     -1.173935
   6       -0.308393     -0.307893
   7       -0.173575     -0.173076
   8        0.432302      0.432781
   9       11.147480     11.148064
  10       12.797116     12.797428
  11       13.631929     13.632399
  12       14.108790     14.110205
  13       14.273914     14.275362
  14       17.588740     17.589955
 
  0.3000000E+00  0.1000000E+00  0.0000000E+00  0.1200000E-01
   1      -12.619131    -12.618730
   2      -12.407640    -12.407239
   3       -5.420719     -5.420309
   4       -5.336017     -5.335626
   5       -1.255955     -1.255406
   6       -1.131832     -1.131307
   7        0.412275      0.412621
   8        1.952743      1.953176
   9        9.679434      9.679848
  10       10.743543     10.743996
  11       12.946424     12.946993
  12       13.469090     13.470407
  13       13.798652     13.800007
  14       18.557570     18.558995
 
  0.4000000E+00  0.1000000E+00  0.0000000E+00  0.1200000E-01
   1      -10.782835    -10.782520
   2      -10.628133    -10.627814
   3       -7.903861     -7.903361
   4       -7.798519     -7.798040
   5       -1.778349     -1.777793
   6       -1.672287     -1.671751
   7        2.353099      2.353283
   8        3.376153      3.376582
   9        7.324107      7.324613
  10        8.395205      8.395718
  11       13.148025     13.149319
  12       13.567018     13.568396
  13       15.328777     15.329282
  14       18.092771     18.093378
 
  0.2000000E+00  0.2000000E+00  0.0000000E+00  0.6000000E-02
   1      -12.850166    -12.849757
   2      -12.624790    -12.624379
   3       -4.333852     -4.333574
   4       -4.305237     -4.304969
   5       -2.259537     -2.258839
   6       -2.216920     -2.216248
   7        0.204305      0.204653
   8        1.735711      1.736157
   9       10.511799     10.512044
  10       11.311562     11.311974
  11       12.650074     12.650664
  12       16.214347     16.215611
  13       16.555659     16.556868
  14       17.420839     17.422666
 
  0.3000000E+00  0.2000000E+00  0.0000000E+00  0.1200000E-01
   1      -11.220019    -11.219648
   2      -11.015854    -11.015504
   3       -6.532701     -6.532354
   4       -6.457781     -6.457451
   5       -3.398061     -3.397355
   6       -3.330094     -3.329375
   7        2.051501      2.051773
   8        3.305121      3.305529
   9        8.020790      8.021108
  10        8.739838      8.740228
  11       14.698907     14.699483
  12       16.215011     16.216212
  13       16.625335     16.626687
  14       17.549162     17.551145
 
  0.4000000E+00  0.2000000E+00  0.0000000E+00  0.6000000E-02
   1       -9.673944     -9.673726
   2       -9.609335     -9.609082
   3       -8.203605     -8.203128
   4       -8.084993     -8.084512
   5       -3.613923     -3.613192
   6       -3.601624     -3.600919
   7        3.669441      3.669462
   8        4.240543      4.241064
   9        6.909053      6.909381
  10        7.212479      7.212911
  11       16.139911     16.141119
  12       16.631721     16.633176
  13       17.117713     17.117201
  14       17.220848     17.222955
 
  0.3000000E+00  0.3000000E+00  0.0000000E+00  0.6000000E-02
   1       -9.480479     -9.480199
   2       -9.371125     -9.370835
   3       -7.637572     -7.637321
   4       -7.567209     -7.566963
   5       -4.889595     -4.888672
   6       -4.847642     -4.846708
   7        4.012450      4.012587
   8        5.044610      5.045046
   9        6.400505      6.400789
  10        7.009621      7.009855
  11       16.418587     16.420795
  12       16.466320     16.468496
  13       16.918389     16.918853
  14       18.354944     18.362070
 
  0.0000000E+00  0.0000000E+00  0.1000000E+00  0.2000000E-02
   1      -15.744027    -15.743579
   2      -15.493375    -15.492942
   3       -3.322188     -3.321729
   4       -1.224704     -1.224213
   5        2.282666      2.282838
   6        2.282709      2.282858
   7        2.524323      2.524487
   8        2.524368      2.524502
   9        9.184087      9.184683
  10       13.692443     13.694617
  11       13.692491     13.694651
  12       14.429653     14.431746
  13       14.429698     14.431792
  14       16.274537     16.286433
 
  0.1000000E+00 -0.6938894E-17  0.1000000E+00  0.1200000E-01
   1      -15.503277    -15.502834
   2      -15.252029    -15.251590
   3       -2.972163     -2.971712
   4       -1.115249     -1.114751
   5        1.494667      1.494869
   6        1.622729      1.622914
   7        1.970903      1.971133
   8        2.349801      2.349963
   9        9.480551      9.481144
  10       13.691592     13.693488
  11       13.858869     13.860819
  12       14.828419     14.830508
  13       15.369294     15.371343
  14       16.390131     16.395820
 
  0.2000000E+00 -0.2775558E-16  0.1000000E+00  0.1200000E-01
   1      -14.780334    -14.779901
   2      -14.528219    -14.527785
   3       -2.053475     -2.053047
   4       -1.072814     -1.072470
   5       -0.959129     -0.958818
   6       -0.318990     -0.318503
   7        1.057684      1.058029
   8        1.097855      1.098192
   9       10.375957     10.376544
  10       13.217429     13.219021
  11       13.340391     13.341997
  12       14.720306     14.720674
  13       15.461001     15.461531
  14       17.216427     17.217060
 
  0.3000000E+00 -0.5551115E-16  0.1000000E+00  0.1200000E-01
   1      -13.584913    -13.584492
   2      -13.326450    -13.326034
   3       -4.032488     -4.032074
   4       -3.951924     -3.951522
   5       -0.568168     -0.567785
   6        0.053823      0.054248
   7        0.183213      0.183623
   8        0.980116      0.980577
   9       11.331242     11.331671
  10       11.896112     11.896662
  11       12.401471     12.402054
  12       12.504624     12.506010
  13       12.718239     12.719648
  14       18.317052     18.317922
 
  0.4000000E+00 -0.5551115E-16  0.1000000E+00  0.1200000E-01
   1      -11.894199    -11.893829
   2      -11.727061    -11.726678
   3       -6.853191     -6.852722
   4       -6.731151     -6.730696
   5       -0.792385     -0.791891
   6       -0.582189     -0.581734
   7        1.187153      1.187457
   8        2.632462      2.632853
   9        8.135300      8.135841
  10        9.516227      9.516760
  11       11.972759     11.974099
  12       12.357567     12.358973
  13       13.982693     13.983248
  14       19.106873     19.108127
 
  0.5000000E+00 -0.8326673E-16  0.1000000E+00  0.6000000E-02
   1      -10.322632    -10.322421
   2      -10.267806    -10.267567
   3       -8.647115     -8.646529
   4       -8.597115     -8.596520
   5       -1.064368     -1.063868
   6       -0.846115     -0.845653
   7        2.555634      2.555686
   8        3.322554      3.323058
   9        6.798602      6.799158
  10        7.929422      7.930074
  11       11.886893     11.888269
  12       12.256483     12.257904
  13       16.516617     16.516344
  14       16.694595     16.695993
 
  0.1000000E+00  0.1000000E+00  0.1000000E+00  0.1200000E-01
   1      -15.023412    -15.022983
   2      -14.770664    -14.770232
   3       -2.373438     -2.373000
   4       -0.688746     -0.688243
   5       -0.062726     -0.062475
   6        0.001765      0.002021
   7        1.001164      1.001537
   8        1.052185      1.052569
   9       10.075061     10.075649
  10       14.319269     14.320901
  11       14.345396     14.347086
  12       15.387100     15.388858
  13       15.496710     15.497474
  14       15.572668     15.574069
 
  0.2000000E+00  0.1000000E+00  0.1000000E+00  0.2400000E-01
   1      -14.060502    -14.060075
   2      -13.804214    -13.803786
   3       -2.627587     -2.627251
   4       -2.531832     -2.531518
   5       -1.172686     -1.172284
   6       -0.309388     -0.308888
   7       -0.231049     -0.230549
   8        0.367606      0.368083
   9       11.269313     11.269900
  10       12.755210     12.755535
  11       13.530945     13.531420
  12       14.089729     14.091141
  13       14.227061     14.228509
  14       17.569885     17.571483
 
  0.3000000E+00  0.1000000E+00  0.1000000E+00  0.2400000E-01
   1      -12.613722    -12.613321
   2      -12.402619    -12.402216
   3       -5.411598     -5.411189
   4       -5.330818     -5.330425
   5       -1.207340     -1.206793
   6       -1.128680     -1.128156
   7        0.484744      0.485092
   8        1.895991      1.896421
   9        9.612319      9.612741
  10       10.676686     10.677135
  11       13.065349     13.065916
  12       13.498101     13.499420
  13       13.793654     13.795012
  14       18.416573     18.417950
 
  0.4000000E+00  0.1000000E+00  0.1000000E+00  0.2400000E-01
   1      -10.777627    -10.777310
   2      -10.623289    -10.622980
   3       -7.893020     -7.892522
   4       -7.790080     -7.789598
   5       -1.790231     -1.789673
   6       -1.658732     -1.658199
   7        2.321368      2.321564
   8        3.408773      3.409172
   9        7.245728      7.246239
  10        8.345028      8.345547
  11       13.178040     13.179354
  12       13.573417     13.574799
  13       15.428828     15.429354
  14       18.091157     18.091874
 
  0.2000000E+00  0.2000000E+00  0.1000000E+00  0.1200000E-01
   1      -12.847736    -12.847331
   2      -12.629341    -12.628934
   3       -4.341678     -4.341398
   4       -4.325985     -4.325708
   5       -2.186225     -2.185553
   6       -2.138011     -2.137308
   7        0.288071      0.288427
   8        1.682096      1.682540
   9       10.497969     10.498225
  10       11.184704     11.185119
  11       12.759601     12.760196
  12       16.375677     16.376881
  13       16.619710     16.620904
  14       17.402355     17.403615
 
  0.3000000E+00  0.2000000E+00  0.1000000E+00  0.2400000E-01
   1      -11.201116    -11.200753
   2      -11.019193    -11.018844
   3       -6.513915     -6.513565
   4       -6.447008     -6.446681
   5       -3.392972     -3.392259
   6       -3.323410     -3.322688
   7        2.093579      2.093857
   8        3.306263      3.306663
   9        8.068921      8.069233
  10        8.753242      8.753620
  11       14.790020     14.790633
  12       16.233103     16.234304
  13       16.667000     16.668363
  14       17.442034     17.443922
 
  0.4000000E+00  0.2000000E+00  0.1000000E+00  0.1200000E-01
   1       -9.671095     -9.670876
   2       -9.611190     -9.610938
   3       -8.212685     -8.212210
   4       -8.118216     -8.117738
   5       -3.615266     -3.614536
   6       -3.605000     -3.604295
   7        3.594558      3.594588
   8        4.189677      4.190197
   9        6.896266      6.896601
  10        7.198131      7.198561
  11       16.109660     16.110885
  12       16.613347     16.614719
  13       16.756081     16.757901
  14       17.029030     17.029542
 
  0.3000000E+00  0.3000000E+00  0.1000000E+00  0.1200000E-01
   1       -9.476417     -9.476136
   2       -9.374660     -9.374371
   3       -7.635090     -7.634840
   4       -7.568860     -7.568614
   5       -4.887831     -4.886908
   6       -4.848010     -4.847076
   7        4.042737      4.042880
   8        5.018653      5.019077
   9        6.420005      6.420285
  10        6.988894      6.989133
  11       16.147614     16.149544
  12       16.333667     16.335790
  13       17.247478     17.248079
  14       18.472027     18.473372
 
  0.0000000E+00  0.0000000E+00  0.2000000E+00  0.2000000E-02
   1      -15.727202    -15.726757
   2      -15.513075    -15.512641
   3       -3.199048     -3.198589
   4       -1.670003     -1.669496
   5        2.276564      2.276736
   6        2.276607      2.276756
   7        2.505535      2.505685
   8        2.505580      2.505700
   9        9.572445      9.573028
  10       13.697493     13.699669
  11       13.697542     13.699702
  12       13.855621     13.857788
  13       13.855669     13.857823
  14       15.262500     15.262873
 
  0.1000000E+00 -0.6938894E-17  0.2000000E+00  0.1200000E-01
   1      -15.485960    -15.485517
   2      -15.271658    -15.271217
   3       -2.878057     -2.877607
   4       -1.399470     -1.398971
   5        1.441788      1.441987
   6        1.611054      1.611235
   7        1.903934      1.904177
   8        2.331595      2.331760
   9        9.867708      9.868299
  10       13.697194     13.699090
  11       13.856019     13.857968
  12       14.771462     14.773571
  13       14.986551     14.988641
  14       15.543286     15.543901
 
  0.2000000E+00 -0.2775558E-16  0.2000000E+00  0.1200000E-01
   1      -14.763387    -14.762955
   2      -14.547129    -14.546695
   3       -1.927593     -1.927165
   4       -1.073902     -1.073566
   5       -0.965215     -0.964907
   6       -0.582745     -0.582250
   7        1.029083      1.029430
   8        1.074742      1.075089
   9       10.748487     10.749073
  10       13.227320     13.228915
  11       13.323373     13.324964
  12       14.769947     14.770325
  13       15.383751     15.384290
  14       16.460665     16.461297
 
  0.3000000E+00 -0.5551115E-16  0.2000000E+00  0.1200000E-01
   1      -13.568786    -13.568364
   2      -13.356640    -13.356230
   3       -4.034262     -4.033849
   4       -3.971789     -3.971384
   5       -0.543371     -0.542986
   6        0.038671      0.039096
   7        0.165858      0.166265
   8        0.821086      0.821544
   9       11.350961     11.351401
  10       12.264615     12.265234
  11       12.297554     12.298038
  12       12.522501     12.523939
  13       12.710369     12.711776
  14       17.531285     17.532124
 
  0.4000000E+00 -0.5551115E-16  0.2000000E+00  0.1200000E-01
   1      -11.879937    -11.879567
   2      -11.742392    -11.742009
   3       -6.843899     -6.843431
   4       -6.740520     -6.740065
   5       -0.696246     -0.695771
   6       -0.581359     -0.580903
   7        1.310835      1.311134
   8        2.512204      2.512592
   9        8.385787      8.386319
  10        9.442437      9.442973
  11       11.999056     12.000405
  12       12.335442     12.336842
  13       14.347833     14.348412
  14       18.825746     18.826851
 
  0.5000000E+00 -0.8326673E-16  0.2000000E+00  0.6000000E-02
   1      -10.314091    -10.313878
   2      -10.273931    -10.273696
   3       -8.641337     -8.640750
   4       -8.603255     -8.602661
   5       -0.963388     -0.962907
   6       -0.846324     -0.845862
   7        2.628832      2.628904
   8        3.303747      3.304201
   9        7.042025      7.042595
  10        7.810448      7.811105
  11       11.915861     11.917247
  12       12.234930     12.236347
  13       16.863267     16.863038
  14       16.953648     16.955051
 
  0.1000000E+00  0.1000000E+00  0.2000000E+00  0.1200000E-01
   1      -15.006082    -15.005653
   2      -14.789766    -14.789334
   3       -2.246998     -2.246561
   4       -0.861635     -0.861137
   5       -0.055127     -0.054883
   6        0.031213      0.031452
   7        0.949097      0.949475
   8        1.035493      1.035878
   9       10.456813     10.457410
  10       14.309641     14.311269
  11       14.337815     14.339509
  12       15.399623     15.401409
  13       15.497421     15.498629
  14       15.622509     15.623516
 
  0.2000000E+00  0.1000000E+00  0.2000000E+00  0.2400000E-01
   1      -14.044065    -14.043638
   2      -13.832192    -13.831771
   3       -2.614741     -2.614401
   4       -2.559933     -2.559606
   5       -1.078774     -1.078371
   6       -0.308578     -0.308084
   7       -0.216086     -0.215595
   8        0.266428      0.266899
   9       11.624228     11.624820
  10       12.857986     12.858316
  11       13.506907     13.507379
  12       14.115636     14.117057
  13       14.222546     14.223989
  14       16.961755     16.961786
 
  0.3000000E+00  0.1000000E+00  0.2000000E+00  0.2400000E-01
   1      -12.595279    -12.594880
   2      -12.417570    -12.417168
   3       -5.385625     -5.385210
   4       -5.335554     -5.335152
   5       -1.247720     -1.247174
   6       -1.130242     -1.129725
   7        0.600391      0.600743
   8        1.825877      1.826301
   9        9.652471      9.652901
  10       10.645159     10.645592
  11       13.428855     13.429379
  12       13.512564     13.513933
  13       13.798908     13.800277
  14       17.933217     17.934438
 
  0.4000000E+00  0.1000000E+00  0.2000000E+00  0.2400000E-01
   1      -10.772533    -10.772218
   2      -10.641123    -10.640820
   3       -7.888916     -7.888418
   4       -7.783232     -7.782747
   5       -1.764487     -1.763928
   6       -1.678676     -1.678133
   7        2.446411      2.446621
   8        3.353634      3.353999
   9        7.267013      7.267539
  10        8.126654      8.127194
  11       13.214026     13.215336
  12       13.533489     13.534851
  13       15.716367     15.716956
  14       18.037193     18.038164
 
  0.2000000E+00  0.2000000E+00  0.2000000E+00  0.1200000E-01
   1      -12.832249    -12.831843
   2      -12.654808    -12.654394
   3       -4.349654     -4.349375
   4       -4.341212     -4.340929
   5       -2.238974     -2.238285
   6       -2.208240     -2.207566
   7        0.323086      0.323449
   8        1.517697      1.518136
   9       10.497805     10.498069
  10       10.958883     10.959318
  11       13.083424     13.084046
  12       16.332294     16.333479
  13       16.601826     16.603040
  14       17.319202     17.309670
 
  0.3000000E+00  0.2000000E+00  0.2000000E+00  0.2400000E-01
   1      -11.183377    -11.183015
   2      -11.026666    -11.026314
   3       -6.501078     -6.500728
   4       -6.436791     -6.436458
   5       -3.357148     -3.356425
   6       -3.303236     -3.302529
   7        2.198414      2.198699
   8        3.217003      3.217389
   9        8.097006      8.097317
  10        8.734320      8.734686
  11       15.008694     15.009426
  12       16.241508     16.242734
  13       16.702270     16.703641
  14       17.190181     17.191939
 
  0.4000000E+00  0.2000000E+00  0.2000000E+00  0.1200000E-01
   1       -9.662670     -9.662448
   2       -9.616626     -9.616378
   3       -8.209248     -8.208772
   4       -8.124607     -8.124131
   5       -3.653563     -3.652833
   6       -3.609627     -3.608922
   7        3.662522      3.662577
   8        4.160600      4.161080
   9        6.744401      6.744761
  10        7.158930      7.159353
  11       16.083114     16.084407
  12       16.352717     16.354349
  13       16.650705     16.652240
  14       16.884990     16.886195
 
  0.3000000E+00  0.3000000E+00  0.2000000E+00  0.1200000E-01
   1       -9.495683     -9.495383
   2       -9.389006     -9.388714
   3       -7.634589     -7.634339
   4       -7.607076     -7.606833
   5       -4.903319     -4.902411
   6       -4.882732     -4.881809
   7        4.110954      4.111086
   8        4.834743      4.835164
   9        6.411686      6.411992
  10        6.916006      6.916252
  11       15.779555     15.781454
  12       16.043625     16.045666
  13       17.772895     17.773215
  14       18.774576     18.778113
 
  0.0000000E+00  0.0000000E+00  0.3000000E+00  0.2000000E-02
   1      -15.698441    -15.697993
   2      -15.541316    -15.540871
   3       -2.988957     -2.988505
   4       -1.935768     -1.935263
   5        2.635684      2.635801
   6        2.635730      2.635815
   7        2.657046      2.657160
   8        2.657092      2.657173
   9       10.191151     10.191734
  10       13.732750     13.734914
  11       13.732797     13.734946
  12       13.829093     13.831256
  13       13.829140     13.831290
  14       14.239766     14.240382
 
  0.1000000E+00 -0.6938894E-17  0.3000000E+00  0.1200000E-01
   1      -15.455504    -15.455059
   2      -15.301880    -15.301441
   3       -2.694045     -2.693595
   4       -1.580042     -1.579547
   5        1.429733      1.429932
   6        1.512633      1.512816
   7        1.884241      1.884486
   8        2.107015      2.107233
   9       10.485354     10.485942
  10       13.646468     13.648347
  11       13.999583     14.001498
  12       14.507202     14.507872
  13       14.782912     14.785020
  14       15.031487     15.033565
 
  0.2000000E+00 -0.2775558E-16  0.3000000E+00  0.1200000E-01
   1      -14.736602    -14.736170
   2      -14.576586    -14.576151
   3       -1.742878     -1.742453
   4       -1.084478     -1.084159
   5       -0.971376     -0.971071
   6       -0.841538     -0.841049
   7        1.019337      1.019684
   8        1.027518      1.027868
   9       11.337640     11.338234
  10       13.243028     13.244639
  11       13.310183     13.311752
  12       14.838358     14.838779
  13       15.057444     15.058077
  14       15.671119     15.671618
 
  0.3000000E+00 -0.5551115E-16  0.3000000E+00  0.1200000E-01
   1      -13.540696    -13.540269
   2      -13.382088    -13.381676
   3       -4.025350     -4.024943
   4       -3.974186     -3.973790
   5       -0.355655     -0.355269
   6        0.117711      0.118127
   7        0.145420      0.145837
   8        0.505487      0.505945
   9       11.527665     11.528107
  10       12.141270     12.141820
  11       12.533406     12.534676
  12       12.638059     12.639361
  13       12.951450     12.952271
  14       16.651163     16.651924
 
  0.4000000E+00 -0.5551115E-16  0.3000000E+00  0.1200000E-01
   1      -11.857290    -11.856920
   2      -11.765432    -11.765048
   3       -6.828925     -6.828459
   4       -6.753882     -6.753426
   5       -0.696461     -0.695985
   6       -0.582000     -0.581545
   7        1.472672      1.472974
   8        2.323599      2.323981
   9        8.471339      8.471872
  10        9.269483      9.270023
  11       12.037002     12.038354
  12       12.300686     12.302080
  13       14.904614     14.905226
  14       18.164822     18.165816
 
  0.5000000E+00 -0.8326673E-16  0.3000000E+00  0.6000000E-02
   1      -10.334373    -10.334156
   2      -10.279148    -10.278911
   3       -8.614415     -8.613826
   4       -8.560847     -8.560253
   5       -0.920389     -0.919906
   6       -0.830449     -0.829986
   7        2.932047      2.932146
   8        3.314251      3.314620
   9        7.044484      7.045087
  10        7.486212      7.486906
  11       11.964642     11.966026
  12       12.174535     12.175933
  13       17.322373     17.323766
  14       17.349458     17.349319
 
  0.1000000E+00  0.1000000E+00  0.3000000E+00  0.1200000E-01
   1      -14.976136    -14.975703
   2      -14.818264    -14.817828
   3       -2.042486     -2.042052
   4       -1.020580     -1.020087
   5       -0.018689     -0.018443
   6        0.037422      0.037662
   7        1.099441      1.099814
   8        1.135803      1.136167
   9       11.062882     11.063478
  10       14.377705     14.379218
  11       14.398982     14.400647
  12       15.071218     15.071947
  13       15.422467     15.424243
  14       15.655362     15.655902
 
  0.2000000E+00  0.1000000E+00  0.3000000E+00  0.2400000E-01
   1      -14.018039    -14.017612
   2      -13.859769    -13.859347
   3       -2.608935     -2.608607
   4       -2.563147     -2.562822
   5       -0.883415     -0.883013
   6       -0.331324     -0.330830
   7       -0.220933     -0.220440
   8        0.025268      0.025733
   9       12.173792     12.174391
  10       12.965312     12.965658
  11       13.496473     13.496900
  12       14.141824     14.143248
  13       14.218544     14.219975
  14       16.055422     16.056208
 
  0.3000000E+00  0.1000000E+00  0.3000000E+00  0.2400000E-01
   1      -12.561119    -12.560725
   2      -12.445840    -12.445441
   3       -5.379291     -5.378877
   4       -5.329062     -5.328669
   5       -1.219517     -1.218980
   6       -1.164513     -1.163986
   7        0.737513      0.737866
   8        1.630806      1.631225
   9        9.907119      9.907520
  10       10.501417     10.501861
  11       13.555237     13.556582
  12       13.789218     13.790530
  13       13.995073     13.995737
  14       17.284202     17.285231
 
  0.4000000E+00  0.1000000E+00  0.3000000E+00  0.2400000E-01
   1      -10.753238    -10.752923
   2      -10.651161    -10.650855
   3       -7.867211     -7.866716
   4       -7.797848     -7.797363
   5       -1.714654     -1.714107
   6       -1.679487     -1.678943
   7        2.658430      2.658641
   8        3.226638      3.226982
   9        7.443425      7.443954
  10        7.996016      7.996557
  11       13.269056     13.270383
  12       13.492494     13.493846
  13       16.156922     16.157640
  14       18.014817     18.015946
 
  0.2000000E+00  0.2000000E+00  0.3000000E+00  0.1200000E-01
   1      -12.803552    -12.803149
   2      -12.679530    -12.679119
   3       -4.321660     -4.321375
   4       -4.319081     -4.318792
   5       -2.243752     -2.243065
   6       -2.211738     -2.211064
   7        0.521395      0.521766
   8        1.346956      1.347386
   9       10.682899     10.683141
  10       10.929613     10.930020
  11       13.614147     13.614799
  12       16.323703     16.324787
  13       16.655324     16.656561
  14       16.823377     16.824640
 
  0.3000000E+00  0.2000000E+00  0.3000000E+00  0.2400000E-01
   1      -11.162556    -11.162194
   2      -11.057262    -11.056909
   3       -6.502656     -6.502307
   4       -6.452774     -6.452440
   5       -3.377607     -3.376893
   6       -3.314022     -3.313313
   7        2.279569      2.279867
   8        3.033683      3.034060
   9        8.178340      8.178658
  10        8.646231      8.646586
  11       15.301886     15.302817
  12       16.224656     16.225918