       N       E                     dE             d eps       ncg     rms          rms(c)
DAV:   1    -0.901878582376E+01   -0.90188E+01   -0.39810E+03  5438   0.390E+02
DAV:   2    -0.350943289092E+02   -0.26076E+02   -0.24831E+02  6106   0.109E+02
DAV:   3    -0.355725397017E+02   -0.47821E+00   -0.47759E+00  6066   0.135E+01
DAV:   4    -0.355755945805E+02   -0.30549E-02   -0.30547E-02  5604   0.114E+00
DAV:   5    -0.355756360333E+02   -0.41453E-04   -0.41450E-04  5814   0.121E-01    0.128E+01
DAV:   6    -0.362582649129E+02   -0.68263E+00   -0.89113E-01  5058   0.561E+00    0.564E+00
DAV:   7    -0.366719846838E+02   -0.41372E+00   -0.63103E-01  4968   0.482E+00    0.266E+00
DAV:   8    -0.366293837143E+02    0.42601E-01   -0.11624E-01  5436   0.228E+00    0.787E-01
DAV:   9    -0.366442010965E+02   -0.14817E-01   -0.16317E-02  5160   0.817E-01    0.281E-01
DAV:  10    -0.366422702267E+02    0.19309E-02   -0.80887E-04  5814   0.203E-01    0.809E-02
DAV:  11    -0.366421083213E+02    0.16191E-03   -0.32656E-04  5328   0.122E-01    0.388E-02
DAV:  12    -0.366420763076E+02    0.32014E-04   -0.72046E-05  4098   0.596E-02
   1 F= -.36642076E+02 E0= -.36642097E+02  d E =0.616074E-04  mag=    -0.0001
