PROCAR lm decomposed
# of k-points:   84         # of bands:  14         # of ions:   4

 k-point    1 :    0.00000000 0.00000000 0.00000000     weight = 0.00100000

band   1 # energy  -15.75007402 # occ.  1.00000000
 
ion      s     py     pz     px    dxy    dyz    dz2    dxz    dx2    tot
  1  0.151  0.000  0.000  0.000  0.000  0.000  0.000  0.000  0.000  0.151
  2  0.153  0.000  0.000  0.000  0.000  0.000  0.000  0.000  0.000  0.153
  3  0.153  0.000  0.000  0.000  0.000  0.000  0.000  0.000  0.000  0.153
  4  0.151  0.000  0.000  0.000  0.000  0.000  0.000  0.000  0.000  0.151
tot  0.608  0.000  0.000  0.000  0.000  0.000  0.000  0.000  0.000  0.608
 
band   2 # energy  -15.48621529 # occ.  1.00000000
 
ion      s     py     pz     px    dxy    dyz    dz2    dxz    dx2    tot
  1  0.158  0.000  0.000  0.000  0.000  0.000  0.000  0.000  0.000  0.158
  2  0.157  0.000  0.000  0.000  0.000  0.000  0.000  0.000  0.000  0.157
  3  0.157  0.000  0.000  0.000  0.000  0.000  0.000  0.000  0.000  0.157
  4  0.158  0.000  0.000  0.000  0.000  0.000  0.000  0.000  0.000  0.158
tot  0.631  0.000  0.000  0.000  0.000  0.000  0.000  0.000  0.000  0.631
 
band   3 # energy   -3.27480221 # occ.  1.00000000
 
ion      s     py     pz     px    dxy    dyz    dz2    dxz    dx2    tot
  1  0.000  0.000  0.081  0.000  0.000  0.000  0.000  0.000  0.000  0.081
  2  0.000  0.000  0.089  0.000  0.000  0.000  0.000  0.000  0.000  0.089
  3  0.000  0.000  0.089  0.000  0.000  0.000  0.000  0.000  0.000  0.089
  4  0.000  0.000  0.081  0.000  0.000  0.000  0.000  0.000  0.000  0.081
tot  0.000  0.000  0.342  0.000  0.000  0.000  0.000  0.000  0.000  0.342
 
band   4 # energy   -1.11412976 # occ.  1.00000000
 
ion      s     py     pz     px    dxy    dyz    dz2    dxz    dx2    tot
  1  0.000  0.000  0.119  0.000  0.000  0.000  0.000  0.000  0.000  0.119
  2  0.000  0.000  0.108  0.000  0.000  0.000  0.000  0.000  0.000  0.108
  3  0.000  0.000  0.108  0.000  0.000  0.000  0.000  0.000  0.000  0.108
  4  0.000  0.000  0.119  0.000  0.000  0.000  0.000  0.000  0.000  0.119
tot  0.000  0.000  0.454  0.000  0.000  0.000  0.000  0.000  0.000  0.454
 
band   5 # energy    2.42393747 # occ.  1.00000000
 
ion      s     py     pz     px    dxy    dyz    dz2    dxz    dx2    tot
  1  0.000  0.051  0.000  0.152  0.000  0.000  0.000  0.000  0.000  0.202
  2  0.000  0.051  0.000  0.154  0.000  0.000  0.000  0.000  0.000  0.205
  3  0.000  0.051  0.000  0.154  0.000  0.000  0.000  0.000  0.000  0.205
  4  0.000  0.051  0.000  0.152  0.000  0.000  0.000  0.000  0.000  0.202
tot  0.000  0.204  0.000  0.611  0.000  0.000  0.000  0.000  0.000  0.815
 
band   6 # energy    2.42398073 # occ.  1.00000000
 
ion      s     py     pz     px    dxy    dyz    dz2    dxz    dx2    tot
  1  0.000  0.152  0.000  0.051  0.000  0.000  0.000  0.000  0.000  0.202
  2  0.000  0.154  0.000  0.051  0.000  0.000  0.000  0.000  0.000  0.205
  3  0.000  0.154  0.000  0.051  0.000  0.000  0.000  0.000  0.000  0.205
  4  0.000  0.152  0.000  0.051  0.000  0.000  0.000  0.000  0.000  0.202
tot  0.000  0.611  0.000  0.204  0.000  0.000  0.000  0.000  0.000  0.815
 
band   7 # energy    2.57043484 # occ.  1.00000000
 
ion      s     py     pz     px    dxy    dyz    dz2    dxz    dx2    tot
  1  0.000  0.051  0.000  0.153  0.000  0.000  0.000  0.000  0.000  0.204
  2  0.000  0.050  0.000  0.151  0.000  0.000  0.000  0.000  0.000  0.202
  3  0.000  0.050  0.000  0.151  0.000  0.000  0.000  0.000  0.000  0.202
  4  0.000  0.051  0.000  0.153  0.000  0.000  0.000  0.000  0.000  0.204
tot  0.000  0.203  0.000  0.609  0.000  0.000  0.000  0.000  0.000  0.812
 
band   8 # energy    2.57047987 # occ.  1.00000000
 
ion      s     py     pz     px    dxy    dyz    dz2    dxz    dx2    tot
  1  0.000  0.153  0.000  0.051  0.000  0.000  0.000  0.000  0.000  0.204
  2  0.000  0.151  0.000  0.050  0.000  0.000  0.000  0.000  0.000  0.202
  3  0.000  0.151  0.000  0.050  0.000  0.000  0.000  0.000  0.000  0.202
  4  0.000  0.153  0.000  0.051  0.000  0.000  0.000  0.000  0.000  0.204
tot  0.000  0.609  0.000  0.203  0.000  0.000  0.000  0.000  0.000  0.812
 
band   9 # energy    9.04326352 # occ.  0.00000000
 
ion      s     py     pz     px    dxy    dyz    dz2    dxz    dx2    tot
  1  0.018  0.000  0.000  0.000  0.000  0.000  0.000  0.000  0.000  0.018
  2  0.018  0.000  0.000  0.000  0.000  0.000  0.000  0.000  0.000  0.018
  3  0.018  0.000  0.000  0.000  0.000  0.000  0.000  0.000  0.000  0.018
  4  0.018  0.000  0.000  0.000  0.000  0.000  0.000  0.000  0.000  0.018
tot  0.071  0.000  0.000  0.000  0.000  0.000  0.000  0.000  0.000  0.071
 
band  10 # energy   13.74479219 # occ.  0.00000000
 
ion      s     py     pz     px    dxy    dyz    dz2    dxz    dx2    tot
  1  0.000  0.030  0.000  0.091  0.000  0.000  0.000  0.000  0.000  0.121
  2  0.000  0.031  0.000  0.092  0.000  0.000  0.000  0.000  0.000  0.123
  3  0.000  0.031  0.000  0.092  0.000  0.000  0.000  0.000  0.000  0.123
  4  0.000  0.030  0.000  0.091  0.000  0.000  0.000  0.000  0.000  0.121
tot  0.000  0.122  0.000  0.366  0.000  0.000  0.000  0.000  0.000  0.488
 
band  11 # energy   13.74484069 # occ.  0.00000000
 
ion      s     py     pz     px    dxy    dyz    dz2    dxz    dx2    tot
  1  0.000  0.091  0.000  0.030  0.000  0.000  0.000  0.000  0.000  0.121
  2  0.000  0.092  0.000  0.031  0.000  0.000  0.000  0.000  0.000  0.123
  3  0.000  0.092  0.000  0.031  0.000  0.000  0.000  0.000  0.000  0.123
  4  0.000  0.091  0.000  0.030  0.000  0.000  0.000  0.000  0.000  0.121
tot  0.000  0.366  0.000  0.122  0.000  0.000  0.000  0.000  0.000  0.488
 
band  12 # energy   14.44428582 # occ.  0.00000000
 
ion      s     py     pz     px    dxy    dyz    dz2    dxz    dx2    tot
  1  0.000  0.028  0.000  0.085  0.000  0.000  0.000  0.000  0.000  0.114
  2  0.000  0.028  0.000  0.084  0.000  0.000  0.000  0.000  0.000  0.111
  3  0.000  0.028  0.000  0.084  0.000  0.000  0.000  0.000  0.000  0.111
  4  0.000  0.028  0.000  0.085  0.000  0.000  0.000  0.000  0.000  0.114
tot  0.000  0.113  0.000  0.338  0.000  0.000  0.000  0.000  0.000  0.451
 
band  13 # energy   14.44433028 # occ.  0.00000000
 
ion      s     py     pz     px    dxy    dyz    dz2    dxz    dx2    tot
  1  0.000  0.085  0.000  0.028  0.000  0.000  0.000  0.000  0.000  0.114
  2  0.000  0.084  0.000  0.028  0.000  0.000  0.000  0.000  0.000  0.111
  3  0.000  0.084  0.000  0.028  0.000  0.000  0.000  0.000  0.000  0.111
  4  0.000  0.085  0.000  0.028  0.000  0.000  0.000  0.000  0.000  0.114
tot  0.000  0.338  0.000  0.113  0.000  0.000  0.000  0.000  0.000  0.451
 
band  14 # energy   16.32738540 # occ.  0.00000000
 
ion      s     py     pz     px    dxy    dyz    dz2    dxz    dx2    tot
  1  0.175  0.000  0.000  0.000  0.000  0.000  0.000  0.000  0.000  0.175
  2  0.177  0.000  0.000  0.000  0.000  0.000  0.000  0.000  0.000  0.177
  3  0.139  0.000  0.000  0.000  0.000  0.000  0.000  0.000  0.000  0.139
  4  0.137  0.000  0.000  0.000  0.000  0.000  0.000  0.000  0.000  0.137
tot  0.629  0.000  0.000  0.000  0.000  0.000  0.000  0.000  0.000  0.629
 

 k-point    2 :    0.10000000 0.00000000 0.00000000     weight = 0.00600000

band   1 # energy  -15.51052383 # occ.  1.00000000
 
ion      s     py     pz     px    dxy    dyz    dz2    dxz    dx2    tot
  1  0.151  0.001  0.000  0.002  0.000  0.000  0.000  0.000  0.000  0.153
  2  0.151  0.001  0.000  0.002  0.000  0.000  0.000  0.000  0.000  0.154
  3  0.151  0.001  0.000  0.002  0.000  0.000  0.000  0.000  0.000  0.154
  4  0.151  0.001  0.000  0.002  0.000  0.000  0.000  0.000  0.000  0.153
tot  0.604  0.002  0.000  0.007  0.000  0.000  0.000  0.000  0.000  0.614
 
band   2 # energy  -15.24570605 # occ.  1.00000000
 
ion      s     py     pz     px    dxy    dyz    dz2    dxz    dx2    tot
  1  0.156  0.001  0.000  0.002  0.000  0.000  0.000  0.000  0.000  0.158
  2  0.155  0.001  0.000  0.002  0.000  0.000  0.000  0.000  0.000  0.158
  3  0.155  0.001  0.000  0.002  0.000  0.000  0.000  0.000  0.000  0.158
  4  0.156  0.001  0.000  0.002  0.000  0.000  0.000  0.000  0.000  0.158
tot  0.621  0.002  0.000  0.007  0.000  0.000  0.000  0.000  0.000  0.631
 
band   3 # energy   -3.00111182 # occ.  1.00000000
 
ion      s     py     pz     px    dxy    dyz    dz2    dxz    dx2    tot
  1  0.000  0.000  0.083  0.000  0.000  0.000  0.000  0.000  0.000  0.083
  2  0.000  0.000  0.090  0.000  0.000  0.000  0.000  0.000  0.000  0.090
  3  0.000  0.000  0.090  0.000  0.000  0.000  0.000  0.000  0.000  0.090
  4  0.000  0.000  0.083  0.000  0.000  0.000  0.000  0.000  0.000  0.083
tot  0.000  0.000  0.345  0.000  0.000  0.000  0.000  0.000  0.000  0.345
 
band   4 # energy   -1.04612078 # occ.  1.00000000
 
ion      s     py     pz     px    dxy    dyz    dz2    dxz    dx2    tot
  1  0.000  0.000  0.123  0.000  0.000  0.000  0.000  0.000  0.000  0.123
  2  0.000  0.000  0.113  0.000  0.000  0.000  0.000  0.000  0.000  0.113
  3  0.000  0.000  0.113  0.000  0.000  0.000  0.000  0.000  0.000  0.113
  4  0.000  0.000  0.123  0.000  0.000  0.000  0.000  0.000  0.000  0.123
tot  0.000  0.000  0.471  0.000  0.000  0.000  0.000  0.000  0.000  0.471
 
band   5 # energy    1.30906565 # occ.  1.00000000
 
ion      s     py     pz     px    dxy    dyz    dz2    dxz    dx2    tot
  1  0.013  0.045  0.000  0.136  0.000  0.000  0.000  0.000  0.000  0.195
  2  0.014  0.046  0.000  0.139  0.000  0.000  0.000  0.000  0.000  0.200
  3  0.014  0.046  0.000  0.139  0.000  0.000  0.000  0.000  0.000  0.200
  4  0.013  0.045  0.000  0.136  0.000  0.000  0.000  0.000  0.000  0.195
tot  0.055  0.183  0.000  0.550  0.000  0.000  0.000  0.000  0.000  0.789
 
band   6 # energy    1.49647089 # occ.  1.00000000
 
ion      s     py     pz     px    dxy    dyz    dz2    dxz    dx2    tot
  1  0.015  0.045  0.000  0.136  0.000  0.000  0.000  0.000  0.000  0.197
  2  0.014  0.045  0.000  0.134  0.000  0.000  0.000  0.000  0.000  0.193
  3  0.014  0.045  0.000  0.134  0.000  0.000  0.000  0.000  0.000  0.193
  4  0.015  0.045  0.000  0.136  0.000  0.000  0.000  0.000  0.000  0.197
tot  0.058  0.180  0.000  0.541  0.000  0.000  0.000  0.000  0.000  0.780
 
band   7 # energy    1.97205602 # occ.  1.00000000
 
ion      s     py     pz     px    dxy    dyz    dz2    dxz    dx2    tot
  1  0.000  0.151  0.000  0.050  0.000  0.000  0.000  0.000  0.000  0.201
  2  0.000  0.150  0.000  0.050  0.000  0.000  0.000  0.000  0.000  0.200
  3  0.000  0.150  0.000  0.050  0.000  0.000  0.000  0.000  0.000  0.200
  4  0.000  0.151  0.000  0.050  0.000  0.000  0.000  0.000  0.000  0.201
tot  0.000  0.602  0.000  0.201  0.000  0.000  0.000  0.000  0.000  0.803
 
band   8 # energy    2.46147255 # occ.  1.00000000
 
ion      s     py     pz     px    dxy    dyz    dz2    dxz    dx2    tot
  1  0.000  0.145  0.000  0.048  0.000  0.000  0.000  0.000  0.000  0.193
  2  0.000  0.146  0.000  0.049  0.000  0.000  0.000  0.000  0.000  0.195
  3  0.000  0.146  0.000  0.049  0.000  0.000  0.000  0.000  0.000  0.195
  4  0.000  0.145  0.000  0.048  0.000  0.000  0.000  0.000  0.000  0.193
tot  0.000  0.582  0.000  0.194  0.000  0.000  0.000  0.000  0.000  0.775
 
band   9 # energy    9.34357181 # occ.  0.00000000
 
ion      s     py     pz     px    dxy    dyz    dz2    dxz    dx2    tot
  1  0.017  0.000  0.000  0.001  0.000  0.000  0.000  0.000  0.000  0.018
  2  0.017  0.000  0.000  0.001  0.000  0.000  0.000  0.000  0.000  0.018
  3  0.017  0.000  0.000  0.001  0.000  0.000  0.000  0.000  0.000  0.018
  4  0.017  0.000  0.000  0.001  0.000  0.000  0.000  0.000  0.000  0.018
tot  0.068  0.001  0.000  0.003  0.000  0.000  0.000  0.000  0.000  0.072
 
band  10 # energy   13.67933448 # occ.  0.00000000
 
ion      s     py     pz     px    dxy    dyz    dz2    dxz    dx2    tot
  1  0.016  0.025  0.000  0.075  0.000  0.000  0.000  0.000  0.000  0.116
  2  0.014  0.026  0.000  0.079  0.000  0.000  0.000  0.000  0.000  0.119
  3  0.014  0.026  0.000  0.079  0.000  0.000  0.000  0.000  0.000  0.119
  4  0.016  0.025  0.000  0.075  0.000  0.000  0.000  0.000  0.000  0.116
tot  0.058  0.103  0.000  0.308  0.000  0.000  0.000  0.000  0.000  0.469
 
band  11 # energy   13.84369421 # occ.  0.00000000
 
ion      s     py     pz     px    dxy    dyz    dz2    dxz    dx2    tot
  1  0.013  0.026  0.000  0.079  0.000  0.000  0.000  0.000  0.000  0.118
  2  0.016  0.025  0.000  0.074  0.000  0.000  0.000  0.000  0.000  0.115
  3  0.016  0.025  0.000  0.074  0.000  0.000  0.000  0.000  0.000  0.115
  4  0.013  0.026  0.000  0.079  0.000  0.000  0.000  0.000  0.000  0.119
tot  0.058  0.102  0.000  0.307  0.000  0.000  0.000  0.000  0.000  0.467
 
band  12 # energy   14.83249840 # occ.  0.00000000
 
ion      s     py     pz     px    dxy    dyz    dz2    dxz    dx2    tot
  1  0.000  0.093  0.000  0.031  0.000  0.000  0.000  0.000  0.000  0.124
  2  0.000  0.095  0.000  0.032  0.000  0.000  0.000  0.000  0.000  0.127
  3  0.000  0.095  0.000  0.032  0.000  0.000  0.000  0.000  0.000  0.127
  4  0.000  0.093  0.000  0.031  0.000  0.000  0.000  0.000  0.000  0.124
tot  0.000  0.377  0.000  0.126  0.000  0.000  0.000  0.000  0.000  0.502
 
band  13 # energy   15.37021888 # occ.  0.00000000
 
ion      s     py     pz     px    dxy    dyz    dz2    dxz    dx2    tot
  1  0.000  0.090  0.000  0.030  0.000  0.000  0.000  0.000  0.000  0.121
  2  0.000  0.088  0.000  0.029  0.000  0.000  0.000  0.000  0.000  0.117
  3  0.000  0.088  0.000  0.029  0.000  0.000  0.000  0.000  0.000  0.117
  4  0.000  0.090  0.000  0.030  0.000  0.000  0.000  0.000  0.000  0.121
tot  0.000  0.357  0.000  0.119  0.000  0.000  0.000  0.000  0.000  0.475
 
band  14 # energy   17.12639648 # occ.  0.00000000
 
ion      s     py     pz     px    dxy    dyz    dz2    dxz    dx2    tot
  1  0.136  0.006  0.000  0.018  0.000  0.000  0.000  0.000  0.000  0.160
  2  0.134  0.007  0.001  0.021  0.000  0.000  0.000  0.000  0.000  0.163
  3  0.133  0.007  0.001  0.020  0.000  0.000  0.000  0.000  0.000  0.161
  4  0.133  0.006  0.000  0.017  0.000  0.000  0.000  0.000  0.000  0.157
tot  0.536  0.025  0.002  0.076  0.000  0.000  0.000  0.000  0.000  0.640
 

 k-point    3 :    0.20000000 0.00000000 0.00000000     weight = 0.00600000

band   1 # energy  -14.78413203 # occ.  1.00000000
 
ion      s     py     pz     px    dxy    dyz    dz2    dxz    dx2    tot
  1  0.145  0.002  0.000  0.007  0.000  0.000  0.000  0.000  0.000  0.155
  2  0.146  0.002  0.000  0.007  0.000  0.000  0.000  0.000  0.000  0.156
  3  0.146  0.002  0.000  0.007  0.000  0.000  0.000  0.000  0.000  0.156
  4  0.145  0.002  0.000  0.007  0.000  0.000  0.000  0.000  0.000  0.155
tot  0.583  0.009  0.000  0.028  0.000  0.000  0.000  0.000  0.000  0.620
 
band   2 # energy  -14.51503351 # occ.  1.00000000
 
ion      s     py     pz     px    dxy    dyz    dz2    dxz    dx2    tot
  1  0.151  0.002  0.000  0.007  0.000  0.000  0.000  0.000  0.000  0.160
  2  0.150  0.002  0.000  0.007  0.000  0.000  0.000  0.000  0.000  0.160
  3  0.150  0.002  0.000  0.007  0.000  0.000  0.000  0.000  0.000  0.160
  4  0.151  0.002  0.000  0.007  0.000  0.000  0.000  0.000  0.000  0.160
tot  0.603  0.009  0.000  0.027  0.000  0.000  0.000  0.000  0.000  0.639
 
band   3 # energy   -2.07847179 # occ.  1.00000000
 
ion      s     py     pz     px    dxy    dyz    dz2    dxz    dx2    tot
  1  0.000  0.000  0.086  0.000  0.000  0.000  0.000  0.000  0.000  0.086
  2  0.000  0.000  0.088  0.000  0.000  0.000  0.000  0.000  0.000  0.088
  3  0.000  0.000  0.088  0.000  0.000  0.000  0.000  0.000  0.000  0.088
  4  0.000  0.000  0.086  0.000  0.000  0.000  0.000  0.000  0.000  0.086
tot  0.000  0.000  0.347  0.000  0.000  0.000  0.000  0.000  0.000  0.347
 
band   4 # energy   -1.02580282 # occ.  1.00000000
 
ion      s     py     pz     px    dxy    dyz    dz2    dxz    dx2    tot
  1  0.038  0.035  0.000  0.106  0.000  0.000  0.000  0.000  0.000  0.180
  2  0.038  0.036  0.000  0.109  0.000  0.000  0.000  0.000  0.000  0.183
  3  0.038  0.036  0.000  0.109  0.000  0.000  0.000  0.000  0.000  0.183
  4  0.038  0.035  0.000  0.106  0.000  0.000  0.000  0.000  0.000  0.179
tot  0.152  0.143  0.000  0.430  0.000  0.000  0.000  0.000  0.000  0.725
 
band   5 # energy   -0.92129573 # occ.  1.00000000
 
ion      s     py     pz     px    dxy    dyz    dz2    dxz    dx2    tot
  1  0.041  0.036  0.000  0.109  0.000  0.000  0.000  0.000  0.000  0.186
  2  0.041  0.036  0.000  0.107  0.000  0.000  0.000  0.000  0.000  0.183
  3  0.041  0.036  0.000  0.107  0.000  0.000  0.000  0.000  0.000  0.183
  4  0.041  0.036  0.000  0.109  0.000  0.000  0.000  0.000  0.000  0.186
tot  0.163  0.144  0.000  0.431  0.000  0.000  0.000  0.000  0.000  0.738
 
band   6 # energy   -0.26617384 # occ.  1.00000000
 
ion      s     py     pz     px    dxy    dyz    dz2    dxz    dx2    tot
  1  0.000  0.000  0.121  0.000  0.000  0.000  0.000  0.000  0.000  0.121
  2  0.000  0.000  0.119  0.000  0.000  0.000  0.000  0.000  0.000  0.119
  3  0.000  0.000  0.119  0.000  0.000  0.000  0.000  0.000  0.000  0.119
  4  0.000  0.000  0.121  0.000  0.000  0.000  0.000  0.000  0.000  0.121
tot  0.000  0.000  0.479  0.000  0.000  0.000  0.000  0.000  0.000  0.479
 
band   7 # energy    1.05514934 # occ.  1.00000000
 
ion      s     py     pz     px    dxy    dyz    dz2    dxz    dx2    tot
  1  0.000  0.143  0.000  0.048  0.000  0.000  0.000  0.000  0.000  0.191
  2  0.000  0.146  0.000  0.049  0.000  0.000  0.000  0.000  0.000  0.195
  3  0.000  0.146  0.000  0.049  0.000  0.000  0.000  0.000  0.000  0.195
  4  0.000  0.143  0.000  0.048  0.000  0.000  0.000  0.000  0.000  0.191
tot  0.000  0.579  0.000  0.193  0.000  0.000  0.000  0.000  0.000  0.772
 
band   8 # energy    1.37258348 # occ.  1.00000000
 
ion      s     py     pz     px    dxy    dyz    dz2    dxz    dx2    tot
  1  0.000  0.144  0.000  0.048  0.000  0.000  0.000  0.000  0.000  0.192
  2  0.000  0.142  0.000  0.047  0.000  0.000  0.000  0.000  0.000  0.189
  3  0.000  0.142  0.000  0.047  0.000  0.000  0.000  0.000  0.000  0.189
  4  0.000  0.144  0.000  0.048  0.000  0.000  0.000  0.000  0.000  0.192
tot  0.000  0.572  0.000  0.191  0.000  0.000  0.000  0.000  0.000  0.762
 
band   9 # energy   10.24733994 # occ.  0.00000000
 
ion      s     py     pz     px    dxy    dyz    dz2    dxz    dx2    tot
  1  0.015  0.001  0.000  0.003  0.000  0.000  0.000  0.000  0.000  0.018
  2  0.015  0.001  0.000  0.002  0.000  0.000  0.000  0.000  0.000  0.018
  3  0.015  0.001  0.000  0.002  0.000  0.000  0.000  0.000  0.000  0.018
  4  0.015  0.001  0.000  0.003  0.000  0.000  0.000  0.000  0.000  0.018
tot  0.059  0.003  0.000  0.010  0.000  0.000  0.000  0.000  0.000  0.073
 
band  10 # energy   13.26267065 # occ.  0.00000000
 
ion      s     py     pz     px    dxy    dyz    dz2    dxz    dx2    tot
  1  0.046  0.016  0.000  0.048  0.000  0.000  0.000  0.000  0.000  0.109
  2  0.049  0.015  0.000  0.044  0.000  0.000  0.000  0.000  0.000  0.107
  3  0.049  0.015  0.000  0.044  0.000  0.000  0.000  0.000  0.000  0.107
  4  0.046  0.016  0.000  0.048  0.000  0.000  0.000  0.000  0.000  0.109
tot  0.189  0.061  0.000  0.183  0.000  0.000  0.000  0.000  0.000  0.433
 
band  11 # energy   13.49453261 # occ.  0.00000000
 
ion      s     py     pz     px    dxy    dyz    dz2    dxz    dx2    tot
  1  0.048  0.014  0.000  0.041  0.000  0.000  0.000  0.000  0.000  0.103
  2  0.045  0.015  0.000  0.045  0.000  0.000  0.000  0.000  0.000  0.105
  3  0.045  0.015  0.000  0.045  0.000  0.000  0.000  0.000  0.000  0.105
  4  0.048  0.014  0.000  0.041  0.000  0.000  0.000  0.000  0.000  0.103
tot  0.187  0.057  0.000  0.171  0.000  0.000  0.000  0.000  0.000  0.415
 
band  12 # energy   14.64636705 # occ.  0.00000000
 
ion      s     py     pz     px    dxy    dyz    dz2    dxz    dx2    tot
  1  0.000  0.000  0.126  0.000  0.000  0.000  0.000  0.000  0.000  0.126
  2  0.000  0.000  0.149  0.000  0.000  0.000  0.000  0.000  0.000  0.149
  3  0.000  0.000  0.149  0.000  0.000  0.000  0.000  0.000  0.000  0.149
  4  0.000  0.000  0.126  0.000  0.000  0.000  0.000  0.000  0.000  0.126
tot  0.000  0.000  0.549  0.000  0.000  0.000  0.000  0.000  0.000  0.549
 
band  13 # energy   15.33709576 # occ.  0.00000000
 
ion      s     py     pz     px    dxy    dyz    dz2    dxz    dx2    tot
  1  0.000  0.000  0.158  0.000  0.000  0.000  0.000  0.000  0.000  0.158
  2  0.000  0.000  0.144  0.000  0.000  0.000  0.000  0.000  0.000  0.144
  3  0.000  0.000  0.144  0.000  0.000  0.000  0.000  0.000  0.000  0.144
  4  0.000  0.000  0.158  0.000  0.000  0.000  0.000  0.000  0.000  0.158
tot  0.000  0.000  0.604  0.000  0.000  0.000  0.000  0.000  0.000  0.604
 
band  14 # energy   17.45452024 # occ.  0.00000000
 
ion      s     py     pz     px    dxy    dyz    dz2    dxz    dx2    tot
  1  0.000  0.000  0.079  0.000  0.000  0.000  0.000  0.000  0.000  0.079
  2  0.000  0.000  0.062  0.000  0.000  0.000  0.000  0.000  0.000  0.062
  3  0.000  0.000  0.062  0.000  0.000  0.000  0.000  0.000  0.000  0.062
  4  0.000  0.000  0.079  0.000  0.000  0.000  0.000  0.000  0.000  0.079
tot  0.000  0.000  0.282  0.000  0.000  0.000  0.000  0.000  0.000  0.282
 

 k-point    4 :    0.30000000 0.00000000 0.00000000     weight = 0.00600000

band   1 # energy  -13.59188995 # occ.  1.00000000
 
ion      s     py     pz     px    dxy    dyz    dz2    dxz    dx2    tot
  1  0.137  0.005  0.000  0.015  0.000  0.000  0.000  0.000  0.000  0.157
  2  0.138  0.005  0.000  0.015  0.000  0.000  0.000  0.000  0.000  0.159
  3  0.138  0.005  0.000  0.015  0.000  0.000  0.000  0.000  0.000  0.158
  4  0.137  0.005  0.000  0.015  0.000  0.000  0.000  0.000  0.000  0.157
tot  0.551  0.020  0.000  0.060  0.000  0.000  0.000  0.000  0.000  0.632
 
band   2 # energy  -13.32478148 # occ.  1.00000000
 
ion      s     py     pz     px    dxy    dyz    dz2    dxz    dx2    tot
  1  0.143  0.005  0.000  0.015  0.000  0.000  0.000  0.000  0.000  0.163
  2  0.142  0.005  0.000  0.015  0.000  0.000  0.000  0.000  0.000  0.162
  3  0.142  0.005  0.000  0.015  0.000  0.000  0.000  0.000  0.000  0.162
  4  0.143  0.005  0.000  0.015  0.000  0.000  0.000  0.000  0.000  0.163
tot  0.571  0.020  0.000  0.059  0.000  0.000  0.000  0.000  0.000  0.650
 
band   3 # energy   -4.03674928 # occ.  1.00000000
 
ion      s     py     pz     px    dxy    dyz    dz2    dxz    dx2    tot
  1  0.061  0.028  0.000  0.084  0.000  0.000  0.000  0.000  0.000  0.174
  2  0.062  0.029  0.000  0.086  0.000  0.000  0.000  0.000  0.000  0.177
  3  0.062  0.029  0.000  0.086  0.000  0.000  0.000  0.000  0.000  0.177
  4  0.061  0.028  0.000  0.084  0.000  0.000  0.000  0.000  0.000  0.173
tot  0.245  0.114  0.000  0.341  0.000  0.000  0.000  0.000  0.000  0.700
 
band   4 # energy   -3.97390105 # occ.  1.00000000
 
ion      s     py     pz     px    dxy    dyz    dz2    dxz    dx2    tot
  1  0.063  0.029  0.000  0.088  0.000  0.000  0.000  0.000  0.000  0.179
  2  0.062  0.029  0.000  0.086  0.000  0.000  0.000  0.000  0.000  0.177
  3  0.062  0.029  0.000  0.086  0.000  0.000  0.000  0.000  0.000  0.177
  4  0.063  0.029  0.000  0.088  0.000  0.000  0.000  0.000  0.000  0.180
tot  0.248  0.116  0.000  0.348  0.000  0.000  0.000  0.000  0.000  0.712
 
band   5 # energy   -0.64272031 # occ.  1.00000000
 
ion      s     py     pz     px    dxy    dyz    dz2    dxz    dx2    tot
  1  0.000  0.000  0.088  0.000  0.000  0.000  0.000  0.000  0.000  0.088
  2  0.000  0.000  0.091  0.000  0.000  0.000  0.000  0.000  0.000  0.091
  3  0.000  0.000  0.091  0.000  0.000  0.000  0.000  0.000  0.000  0.091
  4  0.000  0.000  0.088  0.000  0.000  0.000  0.000  0.000  0.000  0.088
tot  0.000  0.000  0.357  0.000  0.000  0.000  0.000  0.000  0.000  0.357
 
band   6 # energy   -0.04287552 # occ.  1.00000000
 
ion      s     py     pz     px    dxy    dyz    dz2    dxz    dx2    tot
  1  0.000  0.146  0.000  0.049  0.000  0.000  0.000  0.000  0.000  0.194
  2  0.000  0.142  0.000  0.047  0.000  0.000  0.000  0.000  0.000  0.189
  3  0.000  0.142  0.000  0.047  0.000  0.000  0.000  0.000  0.000  0.189
  4  0.000  0.146  0.000  0.049  0.000  0.000  0.000  0.000  0.000  0.194
tot  0.000  0.575  0.000  0.192  0.000  0.000  0.000  0.000  0.000  0.766
 
band   7 # energy    0.17381395 # occ.  1.00000000
 
ion      s     py     pz     px    dxy    dyz    dz2    dxz    dx2    tot
  1  0.000  0.141  0.000  0.047  0.000  0.000  0.000  0.000  0.000  0.188
  2  0.000  0.145  0.000  0.048  0.000  0.000  0.000  0.000  0.000  0.194
  3  0.000  0.145  0.000  0.048  0.000  0.000  0.000  0.000  0.000  0.194
  4  0.000  0.141  0.000  0.047  0.000  0.000  0.000  0.000  0.000  0.188
tot  0.000  0.572  0.000  0.191  0.000  0.000  0.000  0.000  0.000  0.763
 
band   8 # energy    1.02171061 # occ.  1.00000000
 
ion      s     py     pz     px    dxy    dyz    dz2    dxz    dx2    tot
  1  0.000  0.000  0.124  0.000  0.000  0.000  0.000  0.000  0.000  0.124
  2  0.000  0.000  0.121  0.000  0.000  0.000  0.000  0.000  0.000  0.121
  3  0.000  0.000  0.121  0.000  0.000  0.000  0.000  0.000  0.000  0.121
  4  0.000  0.000  0.124  0.000  0.000  0.000  0.000  0.000  0.000  0.124
tot  0.000  0.000  0.489  0.000  0.000  0.000  0.000  0.000  0.000  0.489
 
band   9 # energy   11.07549003 # occ.  0.00000000
 
ion      s     py     pz     px    dxy    dyz    dz2    dxz    dx2    tot
  1  0.000  0.000  0.110  0.000  0.000  0.000  0.000  0.000  0.000  0.110
  2  0.000  0.000  0.130  0.000  0.000  0.000  0.000  0.000  0.000  0.130
  3  0.000  0.000  0.130  0.000  0.000  0.000  0.000  0.000  0.000  0.130
  4  0.000  0.000  0.110  0.000  0.000  0.000  0.000  0.000  0.000  0.110
tot  0.000  0.000  0.479  0.000  0.000  0.000  0.000  0.000  0.000  0.479
 
band  10 # energy   11.74035374 # occ.  0.00000000
 
ion      s     py     pz     px    dxy    dyz    dz2    dxz    dx2    tot
  1  0.012  0.002  0.000  0.007  0.000  0.000  0.000  0.000  0.000  0.020
  2  0.010  0.002  0.000  0.006  0.000  0.000  0.000  0.000  0.000  0.018
  3  0.010  0.002  0.000  0.006  0.000  0.000  0.000  0.000  0.000  0.018
  4  0.012  0.002  0.000  0.007  0.000  0.000  0.000  0.000  0.000  0.020
tot  0.043  0.009  0.000  0.026  0.000  0.000  0.000  0.000  0.000  0.077
 
band  11 # energy   12.34197675 # occ.  0.00000000
 
ion      s     py     pz     px    dxy    dyz    dz2    dxz    dx2    tot
  1  0.000  0.000  0.146  0.000  0.000  0.000  0.000  0.000  0.000  0.146
  2  0.000  0.000  0.129  0.000  0.000  0.000  0.000  0.000  0.000  0.129
  3  0.000  0.000  0.129  0.000  0.000  0.000  0.000  0.000  0.000  0.129
  4  0.000  0.000  0.146  0.000  0.000  0.000  0.000  0.000  0.000  0.146
tot  0.000  0.000  0.549  0.000  0.000  0.000  0.000  0.000  0.000  0.549
 
band  12 # energy   12.48632063 # occ.  0.00000000
 
ion      s     py     pz     px    dxy    dyz    dz2    dxz    dx2    tot
  1  0.061  0.009  0.000  0.026  0.000  0.000  0.000  0.000  0.000  0.096
  2  0.069  0.008  0.000  0.025  0.000  0.000  0.000  0.000  0.000  0.102
  3  0.069  0.008  0.000  0.025  0.000  0.000  0.000  0.000  0.000  0.102
  4  0.061  0.009  0.000  0.026  0.000  0.000  0.000  0.000  0.000  0.096
tot  0.261  0.034  0.000  0.102  0.000  0.000  0.000  0.000  0.000  0.397
 
band  13 # energy   12.71212639 # occ.  0.00000000
 
ion      s     py     pz     px    dxy    dyz    dz2    dxz    dx2    tot
  1  0.070  0.009  0.000  0.026  0.000  0.000  0.000  0.000  0.000  0.105
  2  0.064  0.009  0.000  0.028  0.000  0.000  0.000  0.000  0.000  0.100
  3  0.064  0.009  0.000  0.028  0.000  0.000  0.000  0.000  0.000  0.100
  4  0.070  0.009  0.000  0.026  0.000  0.000  0.000  0.000  0.000  0.105
tot  0.268  0.036  0.000  0.108  0.000  0.000  0.000  0.000  0.000  0.411
 
band  14 # energy   18.42752785 # occ.  0.00000000
 
ion      s     py     pz     px    dxy    dyz    dz2    dxz    dx2    tot
  1  0.000  0.000  0.080  0.000  0.000  0.000  0.000  0.000  0.000  0.080
  2  0.000  0.000  0.064  0.000  0.000  0.000  0.000  0.000  0.000  0.064
  3  0.000  0.000  0.064  0.000  0.000  0.000  0.000  0.000  0.000  0.064
  4  0.000  0.000  0.080  0.000  0.000  0.000  0.000  0.000  0.000  0.080
tot  0.000  0.000  0.289  0.000  0.000  0.000  0.000  0.000  0.000  0.289
 

 k-point    5 :    0.40000000 0.00000000 0.00000000     weight = 0.00600000

band   1 # energy  -11.90334732 # occ.  1.00000000
 
ion      s     py     pz     px    dxy    dyz    dz2    dxz    dx2    tot
  1  0.132  0.008  0.000  0.023  0.000  0.000  0.000  0.000  0.000  0.163
  2  0.134  0.008  0.000  0.023  0.000  0.000  0.000  0.000  0.000  0.165
  3  0.134  0.008  0.000  0.023  0.000  0.000  0.000  0.000  0.000  0.164
  4  0.132  0.008  0.000  0.023  0.000  0.000  0.000  0.000  0.000  0.163
tot  0.532  0.031  0.000  0.092  0.000  0.000  0.000  0.000  0.000  0.655
 
band   2 # energy  -11.74102116 # occ.  1.00000000
 
ion      s     py     pz     px    dxy    dyz    dz2    dxz    dx2    tot
  1  0.136  0.008  0.000  0.024  0.000  0.000  0.000  0.000  0.000  0.169
  2  0.135  0.008  0.000  0.025  0.000  0.000  0.000  0.000  0.000  0.168
  3  0.135  0.008  0.000  0.025  0.000  0.000  0.000  0.000  0.000  0.168
  4  0.136  0.008  0.000  0.024  0.000  0.000  0.000  0.000  0.000  0.169
tot  0.542  0.033  0.000  0.098  0.000  0.000  0.000  0.000  0.000  0.673
 
band   3 # energy   -6.87972896 # occ.  1.00000000
 
ion      s     py     pz     px    dxy    dyz    dz2    dxz    dx2    tot
  1  0.080  0.023  0.000  0.068  0.000  0.000  0.000  0.000  0.000  0.171
  2  0.077  0.023  0.000  0.068  0.000  0.000  0.000  0.000  0.000  0.168
  3  0.077  0.023  0.000  0.068  0.000  0.000  0.000  0.000  0.000  0.168
  4  0.080  0.023  0.000  0.068  0.000  0.000  0.000  0.000  0.000  0.171
tot  0.313  0.091  0.000  0.272  0.000  0.000  0.000  0.000  0.000  0.676
 
band   4 # energy   -6.73516101 # occ.  1.00000000
 