<?xml version="1.0" encoding="ISO-8859-1"?>
<modeling>
 <generator>
  <i name="program" type="string">vasp </i>
  <i name="version" type="string">5.2.12  </i>
  <i name="subversion" type="string">11Nov11 complex                                                      parallel </i>
  <i name="platform" type="string">LinuxIFC </i>
  <i name="date" type="string">2012 10 17 </i>
  <i name="time" type="string">09:36:46 </i>
 </generator>
 <incar>
  <i type="string" name="PREC">accurate</i>
  <i type="int" name="ISPIN">     2</i>
  <i name="ENCUT">    150.00000000</i>
  <i type="logical" name="LREAL"> F  </i>
  <i type="int" name="ISMEAR">     1</i>
  <i name="SIGMA">      0.05000000</i>
  <i type="logical" name="LORBIT"> F  </i>
 </incar>
 <kpoints>
  <generation param="Gamma">
   <v type="int" name="divisions">      10       10       10 </v>
   <v name="usershift">      0.00000000       0.00000000       0.00000000 </v>
   <v name="genvec1">      0.10000000       0.00000000       0.00000000 </v>
   <v name="genvec2">      0.00000000       0.10000000       0.00000000 </v>
   <v name="genvec3">      0.00000000       0.00000000       0.10000000 </v>
   <v name="shift">      0.00000000       0.00000000       0.00000000 </v>
  </generation>
  <varray name="kpointlist" >
   <v>       0.00000000       0.00000000       0.00000000 </v>
   <v>       0.10000000       0.00000000       0.00000000 </v>
   <v>       0.20000000       0.00000000       0.00000000 </v>
   <v>       0.30000000       0.00000000       0.00000000 </v>
   <v>       0.40000000       0.00000000       0.00000000 </v>
   <v>       0.50000000       0.00000000       0.00000000 </v>
   <v>       0.10000000       0.10000000       0.00000000 </v>
   <v>       0.20000000       0.10000000       0.00000000 </v>
   <v>       0.30000000       0.10000000       0.00000000 </v>
   <v>       0.40000000       0.10000000       0.00000000 </v>
   <v>       0.20000000       0.20000000       0.00000000 </v>
   <v>       0.30000000       0.20000000       0.00000000 </v>
   <v>       0.40000000       0.20000000       0.00000000 </v>
   <v>       0.30000000       0.30000000       0.00000000 </v>
   <v>       0.00000000       0.00000000       0.10000000 </v>
   <v>       0.10000000       0.00000000       0.10000000 </v>
   <v>       0.20000000       0.00000000       0.10000000 </v>
   <v>       0.30000000       0.00000000       0.10000000 </v>
   <v>       0.40000000       0.00000000       0.10000000 </v>
   <v>       0.50000000       0.00000000       0.10000000 </v>
   <v>       0.10000000       0.10000000       0.10000000 </v>
   <v>       0.20000000       0.10000000       0.10000000 </v>
   <v>       0.30000000       0.10000000       0.10000000 </v>
   <v>       0.40000000       0.10000000       0.10000000 </v>
   <v>       0.20000000       0.20000000       0.10000000 </v>
   <v>       0.30000000       0.20000000       0.10000000 </v>
   <v>       0.40000000       0.20000000       0.10000000 </v>
   <v>       0.30000000       0.30000000       0.10000000 </v>
   <v>       0.00000000       0.00000000       0.20000000 </v>
   <v>       0.10000000       0.00000000       0.20000000 </v>
   <v>       0.20000000       0.00000000       0.20000000 </v>
   <v>       0.30000000       0.00000000       0.20000000 </v>
   <v>       0.40000000       0.00000000       0.20000000 </v>
   <v>       0.50000000       0.00000000       0.20000000 </v>
   <v>       0.10000000       0.10000000       0.20000000 </v>
   <v>       0.20000000       0.10000000       0.20000000 </v>
   <v>       0.30000000       0.10000000       0.20000000 </v>
   <v>       0.40000000       0.10000000       0.20000000 </v>
   <v>       0.20000000       0.20000000       0.20000000 </v>
   <v>       0.30000000       0.20000000       0.20000000 </v>
   <v>       0.40000000       0.20000000       0.20000000 </v>
   <v>       0.30000000       0.30000000       0.20000000 </v>
   <v>       0.00000000       0.00000000       0.30000000 </v>
   <v>       0.10000000       0.00000000       0.30000000 </v>
   <v>       0.20000000       0.00000000       0.30000000 </v>
   <v>       0.30000000       0.00000000       0.30000000 </v>
   <v>       0.40000000       0.00000000       0.30000000 </v>
   <v>       0.50000000       0.00000000       0.30000000 </v>
   <v>       0.10000000       0.10000000       0.30000000 </v>
   <v>       0.20000000       0.10000000       0.30000000 </v>
   <v>       0.30000000       0.10000000       0.30000000 </v>
   <v>       0.40000000       0.10000000       0.30000000 </v>
   <v>       0.20000000       0.20000000       0.30000000 </v>
   <v>       0.30000000       0.20000000       0.30000000 </v>
   <v>       0.40000000       0.20000000       0.30000000 </v>
   <v>       0.30000000       0.30000000       0.30000000 </v>
   <v>       0.00000000       0.00000000       0.40000000 </v>
   <v>       0.10000000       0.00000000       0.40000000 </v>
   <v>       0.20000000       0.00000000       0.40000000 </v>
   <v>       0.30000000       0.00000000       0.40000000 </v>
   <v>       0.40000000       0.00000000       0.40000000 </v>
   <v>       0.50000000       0.00000000       0.40000000 </v>
   <v>       0.10000000       0.10000000       0.40000000 </v>
   <v>       0.20000000       0.10000000       0.40000000 </v>
   <v>       0.30000000       0.10000000       0.40000000 </v>
   <v>       0.40000000       0.10000000       0.40000000 </v>
   <v>       0.20000000       0.20000000       0.40000000 </v>
   <v>       0.30000000       0.20000000       0.40000000 </v>
   <v>       0.40000000       0.20000000       0.40000000 </v>
   <v>       0.30000000       0.30000000       0.40000000 </v>
   <v>       0.00000000       0.00000000       0.50000000 </v>
   <v>       0.10000000       0.00000000       0.50000000 </v>
   <v>       0.20000000       0.00000000       0.50000000 </v>
   <v>       0.30000000       0.00000000       0.50000000 </v>
   <v>       0.40000000       0.00000000       0.50000000 </v>
   <v>       0.50000000       0.00000000       0.50000000 </v>
   <v>       0.10000000       0.10000000       0.50000000 </v>
   <v>       0.20000000       0.10000000       0.50000000 </v>
   <v>       0.30000000       0.10000000       0.50000000 </v>
   <v>       0.40000000       0.10000000       0.50000000 </v>
   <v>       0.20000000       0.20000000       0.50000000 </v>
   <v>       0.30000000       0.20000000       0.50000000 </v>
   <v>       0.40000000       0.20000000       0.50000000 </v>
   <v>       0.30000000       0.30000000       0.50000000 </v>
  </varray>
  <varray name="weights" >
   <v>       0.00100000 </v>
   <v>       0.00600000 </v>
   <v>       0.00600000 </v>
   <v>       0.00600000 </v>
   <v>       0.00600000 </v>
   <v>       0.00300000 </v>
   <v>       0.00600000 </v>
   <v>       0.01200000 </v>
   <v>       0.01200000 </v>
   <v>       0.01200000 </v>
   <v>       0.00600000 </v>
   <v>       0.01200000 </v>
   <v>       0.00600000 </v>
   <v>       0.00600000 </v>
   <v>       0.00200000 </v>
   <v>       0.01200000 </v>
   <v>       0.01200000 </v>
   <v>       0.01200000 </v>
   <v>       0.01200000 </v>
   <v>       0.00600000 </v>
   <v>       0.01200000 </v>
   <v>       0.02400000 </v>
   <v>       0.02400000 </v>
   <v>       0.02400000 </v>
   <v>       0.01200000 </v>
   <v>       0.02400000 </v>
   <v>       0.01200000 </v>
   <v>       0.01200000 </v>
   <v>       0.00200000 </v>
   <v>       0.01200000 </v>
   <v>       0.01200000 </v>
   <v>       0.01200000 </v>
   <v>       0.01200000 </v>
   <v>       0.00600000 </v>
   <v>       0.01200000 </v>
   <v>       0.02400000 </v>
   <v>       0.02400000 </v>
   <v>       0.02400000 </v>
   <v>       0.01200000 </v>
   <v>       0.02400000 </v>
   <v>       0.01200000 </v>
   <v>       0.01200000 </v>
   <v>       0.00200000 </v>
   <v>       0.01200000 </v>
   <v>       0.01200000 </v>
   <v>       0.01200000 </v>
   <v>       0.01200000 </v>
   <v>       0.00600000 </v>
   <v>       0.01200000 </v>
   <v>       0.02400000 </v>
   <v>       0.02400000 </v>
   <v>       0.02400000 </v>
   <v>       0.01200000 </v>
   <v>       0.02400000 </v>
   <v>       0.01200000 </v>
   <v>       0.01200000 </v>
   <v>       0.00200000 </v>
   <v>       0.01200000 </v>
   <v>       0.01200000 </v>
   <v>       0.01200000 </v>
   <v>       0.01200000 </v>
   <v>       0.00600000 </v>
   <v>       0.01200000 </v>
   <v>       0.02400000 </v>
   <v>       0.02400000 </v>
   <v>       0.02400000 </v>
   <v>       0.01200000 </v>
   <v>       0.02400000 </v>
   <v>       0.01200000 </v>
   <v>       0.01200000 </v>
   <v>       0.00100000 </v>
   <v>       0.00600000 </v>
   <v>       0.00600000 </v>
   <v>       0.00600000 </v>
   <v>       0.00600000 </v>
   <v>       0.00300000 </v>
   <v>       0.00600000 </v>
   <v>       0.01200000 </v>
   <v>       0.01200000 </v>
   <v>       0.01200000 </v>
   <v>       0.00600000 </v>
   <v>       0.01200000 </v>
   <v>       0.00600000 </v>
   <v>       0.00600000 </v>
  </varray>
 </kpoints>
 <parameters>
  <separator name="general" >
   <i type="string" name="SYSTEM">unknown system</i>
   <i type="logical" name="LCOMPAT"> F  </i>
  </separator>
  <separator name="electronic" >
   <i type="string" name="PREC">accura</i>
   <i name="ENMAX">    150.00000000</i>
   <i name="ENAUG">    644.87300000</i>
   <i name="EDIFF">      0.00010000</i>
   <i type="int" name="IALGO">    38</i>
   <i type="int" name="IWAVPR">    10</i>
   <i type="int" name="NBANDS">    14</i>
   <i name="NELECT">     16.00000000</i>
   <i type="int" name="TURBO">     0</i>
   <i type="int" name="IRESTART">     0</i>
   <i type="int" name="NREBOOT">     0</i>
   <i type="int" name="NMIN">     0</i>
   <i name="EREF">      0.00000000</i>
   <separator name="electronic smearing" >
    <i type="int" name="ISMEAR">     1</i>
    <i name="SIGMA">      0.05000000</i>
    <i name="KSPACING">      0.50000000</i>
    <i type="logical" name="KGAMMA"> T  </i>
   </separator>
   <separator name="electronic projectors" >
    <i type="logical" name="LREAL"> F  </i>
    <v name="ROPT">      0.00000000</v>
    <i type="int" name="LMAXPAW">  -100</i>
    <i type="int" name="LMAXMIX">     2</i>
    <i type="logical" name="NLSPLINE"> F  </i>
   </separator>
   <separator name="electronic startup" >
    <i type="int" name="ISTART">     0</i>
    <i type="int" name="ICHARG">     2</i>
    <i type="int" name="INIWAV">     1</i>
   </separator>
   <separator name="electronic spin" >
    <i type="int" name="ISPIN">     2</i>
    <i type="logical" name="LNONCOLLINEAR"> F  </i>
    <v name="MAGMOM">      1.00000000      1.00000000      1.00000000      1.00000000</v>
    <i name="NUPDOWN">     -1.00000000</i>
    <i type="logical" name="LSORBIT"> F  </i>
    <v name="SAXIS">      0.00000000      0.00000000      1.00000000</v>
    <i type="logical" name="LSPIRAL"> F  </i>
    <v name="QSPIRAL">      0.00000000      0.00000000      0.00000000</v>
    <i type="logical" name="LZEROZ"> F  </i>
   </separator>
   <separator name="electronic exchange-correlation" >
    <i type="logical" name="LASPH"> F  </i>
    <i type="logical" name="LMETAGGA"> F  </i>
   </separator>
   <separator name="electronic convergence" >
    <i type="int" name="NELM">    60</i>
    <i type="int" name="NELMDL">    -5</i>
    <i type="int" name="NELMIN">     2</i>
    <i name="ENINI">    150.00000000</i>
    <separator name="electronic convergence detail" >
     <i type="logical" name="LDIAG"> T  </i>
     <i type="logical" name="LSUBROT"> T  </i>
     <i name="WEIMIN">      0.00000000</i>
     <i name="EBREAK">      0.00000179</i>
     <i name="DEPER">      0.30000000</i>
     <i type="int" name="NRMM">     4</i>
     <i name="TIME">      0.40000000</i>
    </separator>
   </separator>
   <separator name="electronic mixer" >
    <i name="AMIX">      0.40000000</i>
    <i name="BMIX">      1.00000000</i>
    <i name="AMIN">      0.10000000</i>
    <i name="AMIX_MAG">      1.60000000</i>
    <i name="BMIX_MAG">      1.00000000</i>
    <separator name="electronic mixer details" >
     <i type="int" name="IMIX">     4</i>
     <i type="int" name="MAXMIX">   -45</i>
     <i name="WC">    100.00000000</i>
     <i type="int" name="INIMIX">     1</i>
     <i type="int" name="MIXPRE">     1</i>
     <i type="int" name="MREMOVE">     5</i>
    </separator>
   </separator>
   <separator name="electronic dipolcorrection" >
    <i type="logical" name="LDIPOL"> F  </i>
    <i type="logical" name="LMONO"> F  </i>
    <i type="int" name="IDIPOL">     0</i>
    <i name="EPSILON">      1.00000000</i>
    <v name="DIPOL">   -100.00000000   -100.00000000   -100.00000000</v>
    <i name="EFIELD">      0.00000000</i>
   </separator>
  </separator>
  <separator name="grids" >
   <i type="int" name="NGX">    10</i>
   <i type="int" name="NGY">    10</i>
   <i type="int" name="NGZ">    28</i>
   <i type="int" name="NGXF">    20</i>
   <i type="int" name="NGYF">    20</i>
   <i type="int" name="NGZF">    56</i>
   <i type="logical" name="ADDGRID"> F  </i>
  </separator>
  <separator name="ionic" >
   <i type="int" name="NSW">     0</i>
   <i type="int" name="IBRION">    -1</i>
   <i type="int" name="ISIF">     2</i>
   <i name="PSTRESS">      0.00000000</i>
   <i name="EDIFFG">      0.00100000</i>
   <i type="int" name="NFREE">     0</i>
   <i name="POTIM">      0.50000000</i>
   <i name="SMASS">     -3.00000000</i>
   <i name="SCALEE">      1.00000000</i>
  </separator>
  <separator name="ionic md" >
   <i name="TEBEG">      0.00010000</i>
   <i name="TEEND">      0.00010000</i>
   <i type="int" name="NBLOCK">     1</i>
   <i type="int" name="KBLOCK">     1</i>
   <i type="int" name="NPACO">   256</i>
   <i name="APACO">     16.00000000</i>
  </separator>
  <separator name="symmetry" >
   <i type="int" name="ISYM">     2</i>
   <i name="SYMPREC">      0.00001000</i>
  </separator>
  <separator name="dos" >
   <i type="logical" name="LORBIT"> F  </i>
   <v name="RWIGS">     -1.00000000</v>
   <i type="int" name="NEDOS">   301</i>
   <i name="EMIN">     10.00000000</i>
   <i name="EMAX">    -10.00000000</i>
   <i name="EFERMI">      0.00000000</i>
  </separator>
  <separator name="writing" >
   <i type="int" name="NWRITE">     2</i>
   <i type="logical" name="LWAVE"> T  </i>
   <i type="logical" name="LCHARG"> T  </i>
   <i type="logical" name="LPARD"> F  </i>
   <i type="logical" name="LVTOT"> F  </i>
   <i type="logical" name="LVHAR"> F  </i>
   <i type="logical" name="LELF"> F  </i>
   <i type="logical" name="LOPTICS"> F  </i>
   <v name="STM">      0.00000000      0.00000000      0.00000000      0.00000000      0.00000000      0.00000000      0.00000000</v>
  </separator>
  <separator name="performance" >
   <i type="int" name="NPAR">     1</i>
   <i type="int" name="NSIM">     4</i>
   <i type="int" name="NBLK">    -1</i>
   <i type="logical" name="LPLANE"> T  </i>
   <i type="logical" name="LSCALAPACK"> F  </i>
   <i type="logical" name="LSCAAWARE"> F  </i>
   <i type="logical" name="LSCALU"> F  </i>
   <i type="logical" name="LASYNC"> F  </i>
   <i type="logical" name="LORBITALREAL"> F  </i>
  </separator>
  <separator name="miscellaneous" >
   <i type="int" name="IDIOT">     3</i>
   <i type="logical" name="LMUSIC"> F  </i>
   <v name="POMASS">     12.01100000</v>
   <v name="DARWINR">      0.00000000</v>
   <v name="DARWINV">      1.00000000</v>
   <i type="logical" name="LCORR"> T  </i>
  </separator>
  <i type="logical" name="GGA_COMPAT"> T  </i>
  <i type="logical" name="LBERRY"> F  </i>
  <i type="int" name="ICORELEVEL">     0</i>
  <i type="logical" name="LDAU"> F  </i>
  <i type="int" name="I_CONSTRAINED_M">     0</i>
  <separator name="electronic exchange-correlation" >
   <i type="string" name="GGA">--</i>
   <i type="int" name="VOSKOWN">     0</i>
   <i type="logical" name="LHFCALC"> F  </i>
   <i type="string" name="PRECFOCK"></i>
   <i type="logical" name="LHFONE"> F  </i>
   <i type="logical" name="LRHFCALC"> F  </i>
   <i type="logical" name="LTHOMAS"> F  </i>
   <i type="logical" name="LMODELHF"> F  </i>
   <i name="ENCUT4O">     -1.00000000</i>
   <i type="int" name="EXXOEP">     0</i>
   <i type="int" name="FOURORBIT">     0</i>
   <i name="AEXX">      0.00000000</i>
   <i name="HFALPHA">      0.00000000</i>
   <i name="ALDAX">      1.00000000</i>
   <i name="AGGAX">      1.00000000</i>
   <i name="ALDAC">      1.00000000</i>
   <i name="AGGAC">      1.00000000</i>
   <i type="int" name="NKREDX">     1</i>
   <i type="int" name="NKREDY">     1</i>
   <i type="int" name="NKREDZ">     1</i>
   <i type="logical" name="SHIFTRED"> F  </i>
   <i type="logical" name="ODDONLY"> F  </i>
   <i type="logical" name="EVENONLY"> F  </i>
   <i type="int" name="LMAXFOCK">     0</i>
   <i type="int" name="NMAXFOCKAE">     0</i>
   <i type="logical" name="LFOCKAEDFT"> F  </i>
   <i name="HFSCREEN">      0.00000000</i>
   <i name="HFSCREENC">      0.00000000</i>
  </separator>
  <separator name="vdW DFT" >
   <i type="logical" name="LUSE_VDW"> F  </i>
   <i name="Zab_VDW">     -0.84910000</i>
   <i name="PARAM1">      0.12340000</i>
   <i name="PARAM2">      1.00000000</i>
   <i name="PARAM3">      0.00000000</i>
  </separator>
  <separator name="model GW" >
   <i type="int" name="MODEL_GW">     0</i>
   <i name="MODEL_EPS0">      5.27839982</i>
   <i name="MODEL_ALPHA">      1.00000000</i>
  </separator>
  <separator name="linear response parameters" >
   <i type="logical" name="LEPSILON"> F  </i>
   <i type="logical" name="LRPA"> F  </i>
   <i type="logical" name="LNABLA"> F  </i>
   <i type="logical" name="LVEL"> F  </i>
   <i type="int" name="KINTER">     0</i>
   <i name="CSHIFT">      0.10000000</i>
   <i name="OMEGAMAX">     -1.00000000</i>
  </separator>
  <separator name="orbital magnetization" >
   <i type="logical" name="NUCIND"> F  </i>
   <v name="MAGPOS">      0.00000000      0.00000000      0.00000000</v>
   <i type="logical" name="LNICSALL"> T  </i>
   <i type="logical" name="ORBITALMAG"> F  </i>
   <i type="logical" name="LMAGBLOCH"> F  </i>
   <i type="logical" name="LCHIMAG"> F  </i>
   <i type="logical" name="LGAUGE"> T  </i>
   <i type="int" name="MAGATOM">     0</i>
   <v name="MAGDIPOL">      0.00000000      0.00000000      0.00000000</v>
   <v name="AVECCONST">      0.00000000      0.00000000      0.00000000</v>
  </separator>
  <separator name="response functions" >
   <i type="logical" name="LADDER"> F  </i>
   <i type="logical" name="LHARTREE"> T  </i>
   <i type="int" name="IBSE">     0</i>
   <i type="logical" name="LTCTE"> F  </i>
   <i type="logical" name="LTETE"> F  </i>
   <i type="logical" name="LFXCEPS"> F  </i>
   <i type="logical" name="L2ORDER"> F  </i>
   <i type="logical" name="LUSEW"> F  </i>
   <i name="ENCUTGW">     -2.00000000</i>
   <i name="ENCUTGWSOFT">     -2.00000000</i>
   <i name="ENCUTLF">     -1.00000000</i>
   <i type="int" name="LMAXMP2">    -1</i>
   <i name="SCISSOR">      0.00000000</i>
   <i type="int" name="NOMEGA">     0</i>
   <i type="int" name="NOMEGAR">     0</i>
   <i type="int" name="NBANDSGW">    -1</i>
   <i type="int" name="NBANDSO">    -1</i>
   <i type="int" name="NBANDSV">    -1</i>
   <i name="OPTEMAX">      0.00000000</i>
   <i type="int" name="NELM">     1</i>
   <i type="int" name="DIM">     3</i>
   <i type="int" name="ANTIRES">     0</i>
   <i name="OMEGAMAX">    -30.00000000</i>
   <i name="OMEGATL">   -200.00000000</i>
   <i type="int" name="OMEGAGRID">     0</i>
   <i name="CSHIFT">     -0.10000000</i>
   <i type="logical" name="SELFENERGY"> F  </i>
   <i type="logical" name="LSPECTRAL"> F  </i>
   <i type="logical" name="ODDONLYGW"> F  </i>
   <i type="logical" name="EVENONLYGW"> F  </i>
   <i type="int" name="NKREDLFX">     1</i>
   <i type="int" name="NKREDLFY">     1</i>
   <i type="int" name="NKREDLFZ">     1</i>
   <i type="int" name="MAXMEM">  1800</i>
   <i type="int" name="TELESCOPE">     0</i>
  </separator>
 </parameters>
 <atominfo>
  <atoms>       4 </atoms>
  <types>       1 </types>
  <array name="atoms" >
   <dimension dim="1">ion</dimension>
   <field type="string">element</field>
   <field type="int">atomtype</field>
   <set>
    <rc><c>C </c><c>   1</c></rc>
    <rc><c>C </c><c>   1</c></rc>
    <rc><c>C </c><c>   1</c></rc>
    <rc><c>C </c><c>   1</c></rc>
   </set>
  </array>
  <array name="atomtypes" >
   <dimension dim="1">type</dimension>
   <field type="int">atomspertype</field>
   <field type="string">element</field>
   <field>mass</field>
   <field>valence</field>
   <field type="string">pseudopotential</field>
   <set>
    <rc><c>   4</c><c>C </c><c>     12.01100000</c><c>      4.00000000</c><c> PAW_PBE C 08Apr2002                    </c></rc>
   </set>
  </array>
 </atominfo>
 <structure name="initialpos" >
  <crystal>
   <varray name="basis" >
    <v>       2.46120000       0.00000000       0.00000000 </v>
    <v>      -1.23060000       2.13146172       0.00000000 </v>
    <v>       0.00000000       0.00000000       6.70790000 </v>
   </varray>
   <i name="volume">     35.18933212 </i>
   <varray name="rec_basis" >
    <v>       0.40630587       0.23458080       0.00000000 </v>
    <v>       0.00000000       0.46916160       0.00000000 </v>
    <v>       0.00000000       0.00000000       0.14907795 </v>
   </varray>
  </crystal>
  <varray name="positions" >
   <v>       0.00000000       0.00000000       0.00000000 </v>
   <v>       0.33333333       0.66666667       0.00000000 </v>
   <v>       0.33333333       0.66666667       0.50000000 </v>
   <v>       0.66666667       0.33333333       0.50000000 </v>
  </varray>
 </structure>
 <calculation>
  <scstep>
   <time name="dav">    2.80    2.80</time>
   <time name="total">    2.93    2.93</time>
   <energy>
    <i name="alphaZ">     37.04766603 </i>
    <i name="ewald">   -460.60042082 </i>
    <i name="hartreedc">   -148.78490796 </i>
    <i name="XCdc">     56.10990884 </i>
    <i name="pawpsdc">    150.95130483 </i>
    <i name="pawaedc">   -155.51722924 </i>
    <i name="eentropy">     -0.00003453 </i>
    <i name="bandstr">    -60.93857422 </i>
    <i name="atom">    572.71350124 </i>
    <i name="e_fr_energy">     -9.01878582 </i>
    <i name="e_wo_entrp">     -9.01875129 </i>
    <i name="e_0_energy">     -9.01877431 </i>
   </energy>
  </scstep>
  <scstep>
   <time name="dav">    3.07    3.07</time>
   <time name="total">    3.09    3.09</time>
   <energy>
    <i name="e_fr_energy">    -35.09432891 </i>
    <i name="e_wo_entrp">    -35.09425941 </i>
    <i name="e_0_energy">    -35.09430574 </i>
   </energy>
  </scstep>
  <scstep>
   <time name="dav">    3.06    3.06</time>
   <time name="total">    3.08    3.09</time>
   <energy>
    <i name="e_fr_energy">    -35.57253970 </i>
    <i name="e_wo_entrp">    -35.57250386 </i>
    <i name="e_0_energy">    -35.57252776 </i>
   </energy>
  </scstep>
  <scstep>
   <time name="dav">    2.86    2.86</time>
   <time name="total">    2.88    2.89</time>
   <energy>
    <i name="e_fr_energy">    -35.57559458 </i>
    <i name="e_wo_entrp">    -35.57555917 </i>
    <i name="e_0_energy">    -35.57558278 </i>
   </energy>
  </scstep>
  <scstep>
   <time name="dav">    2.96    2.96</time>
   <time name="total">    3.17    3.18</time>
   <energy>
    <i name="e_fr_energy">    -35.57563603 </i>
    <i name="e_wo_entrp">    -35.57560063 </i>
    <i name="e_0_energy">    -35.57562423 </i>
   </energy>
  </scstep>
  <scstep>
   <time name="dav">    2.64    2.64</time>
   <time name="total">    2.94    3.02</time>
   <energy>
    <i name="e_fr_energy">    -36.25826491 </i>
    <i name="e_wo_entrp">    -36.25829490 </i>
    <i name="e_0_energy">    -36.25827491 </i>
   </energy>
  </scstep>
  <scstep>
   <time name="dav">    2.60    2.60</time>
   <time name="total">    2.90    2.92</time>
   <energy>
    <i name="e_fr_energy">    -36.67198468 </i>
    <i name="e_wo_entrp">    -36.67204660 </i>
    <i name="e_0_energy">    -36.67200532 </i>
   </energy>
  </scstep>
  <scstep>
   <time name="dav">    2.79    2.79</time>
   <time name="total">    3.10    3.11</time>
   <energy>
    <i name="e_fr_energy">    -36.62938371 </i>
    <i name="e_wo_entrp">    -36.62944424 </i>
    <i name="e_0_energy">    -36.62940389 </i>
   </energy>
  </scstep>
  <scstep>
   <time name="dav">    2.68    2.68</time>
   <time name="total">    2.98    3.00</time>
   <energy>
    <i name="e_fr_energy">    -36.64420110 </i>
    <i name="e_wo_entrp">    -36.64425375 </i>
    <i name="e_0_energy">    -36.64421865 </i>
   </energy>
  </scstep>
  <scstep>
   <time name="dav">    2.95    2.96</time>
   <time name="total">    3.26    3.27</time>
   <energy>
    <i name="e_fr_energy">    -36.64227023 </i>
    <i name="e_wo_entrp">    -36.64233188 </i>
    <i name="e_0_energy">    -36.64229078 </i>
   </energy>
  </scstep>
  <scstep>
   <time name="dav">    2.75    2.75</time>
   <time name="total">    3.05    3.07</time>
   <energy>
    <i name="e_fr_energy">    -36.64210832 </i>
    <i name="e_wo_entrp">    -36.64216994 </i>
    <i name="e_0_energy">    -36.64212886 </i>
   </energy>
  </scstep>
  <scstep>
   <time name="dav">    2.30    2.30</time>
   <time name="total">    2.42    2.43</time>
   <energy>
    <i name="alphaZ">     37.04766603 </i>
    <i name="ewald">   -460.60042082 </i>
    <i name="hartreedc">   -170.72720361 </i>
    <i name="XCdc">     56.94639945 </i>
    <i name="pawpsdc">    243.92681747 </i>
    <i name="pawaedc">   -247.52210401 </i>
    <i name="eentropy">      0.00006161 </i>
    <i name="bandstr">    -68.42679366 </i>
    <i name="atom">    572.71350124 </i>
    <i name="e_fr_energy">    -36.64207631 </i>
    <i name="e_wo_entrp">    -36.64213792 </i>
    <i name="e_0_energy">    -36.64209684 </i>
   </energy>
  </scstep>
  <parameters_embedded>
   <separator name="dft+d2" >
    <i type="logical" name="LVDW"> F  </i>
   </separator>
  </parameters_embedded>
  <structure>
   <crystal>
    <varray name="basis" >
     <v>       2.46120000       0.00000000       0.00000000 </v>
     <v>      -1.23060000       2.13146172       0.00000000 </v>
     <v>       0.00000000       0.00000000       6.70790000 </v>
    </varray>
    <i name="volume">     35.18933212 </i>
    <varray name="rec_basis" >
     <v>       0.40630587       0.23458080       0.00000000 </v>
     <v>       0.00000000       0.46916160       0.00000000 </v>
     <v>       0.00000000       0.00000000       0.14907795 </v>
    </varray>
   </crystal>
   <varray name="positions" >
    <v>       0.00000000       0.00000000       0.00000000 </v>
    <v>       0.33333333       0.66666667       0.00000000 </v>
    <v>       0.33333333       0.66666667       0.50000000 </v>
    <v>       0.66666667       0.33333333       0.50000000 </v>
   </varray>
  </structure>
  <varray name="forces" >
   <v>       0.00000000       0.00000000       0.00000000 </v>
   <v>       0.00000000       0.00000000       0.00000000 </v>
   <v>       0.00000000       0.00000000       0.00000000 </v>
   <v>       0.00000000       0.00000000       0.00000000 </v>
  </varray>
  <varray name="stress" >
   <v>    -961.65321489       0.00000000       0.00000000 </v>
   <v>       0.00000000    -961.65321489       0.00000000 </v>
   <v>       0.00000000       0.00000000   -1046.91800431 </v>
  </varray>
  <energy>
   <i name="e_fr_energy">    -36.64207631 </i>
   <i name="e_wo_entrp">    -36.64209684 </i>
   <i name="e_0_energy">      0.00006161 </i>
  </energy>
  <time name="totalsc">   36.94   37.23</time>
  <eigenvalues>
   <array>
    <dimension dim="1">band</dimension>
    <dimension dim="2">kpoint</dimension>
    <dimension dim="3">spin</dimension>
    <field>eigene</field>
    <field>occ</field>
    <set>
     <set comment="spin 1">
      <set comment="kpoint 1">
       <r>  -15.7501    1.0000 </r>
       <r>  -15.4862    1.0000 </r>
       <r>   -3.2748    1.0000 </r>
       <r>   -1.1141    1.0000 </r>
       <r>    2.4239    1.0000 </r>
       <r>    2.4240    1.0000 </r>
       <r>    2.5704    1.0000 </r>
       <r>    2.5705    1.0000 </r>
       <r>    9.0433    0.0000 </r>
       <r>   13.7448    0.0000 </r>
       <r>   13.7448    0.0000 </r>
       <r>   14.4443    0.0000 </r>
       <r>   14.4443    0.0000 </r>
       <r>   16.3274    0.0000 </r>
      </set>
      <set comment="kpoint 2">
       <r>  -15.5105    1.0000 </r>
       <r>  -15.2457    1.0000 </r>
       <r>   -3.0011    1.0000 </r>
       <r>   -1.0461    1.0000 </r>
       <r>    1.3091    1.0000 </r>
       <r>    1.4965    1.0000 </r>
       <r>    1.9721    1.0000 </r>
       <r>    2.4615    1.0000 </r>
       <r>    9.3436    0.0000 </r>
       <r>   13.6793    0.0000 </r>
       <r>   13.8437    0.0000 </r>
       <r>   14.8325    0.0000 </r>
       <r>   15.3702    0.0000 </r>
       <r>   17.1264    0.0000 </r>
      </set>
      <set comment="kpoint 3">
       <r>  -14.7841    1.0000 </r>
       <r>  -14.5150    1.0000 </r>
       <r>   -2.0785    1.0000 </r>
       <r>   -1.0258    1.0000 </r>
       <r>   -0.9213    1.0000 </r>
       <r>   -0.2662    1.0000 </r>
       <r>    1.0551    1.0000 </r>
       <r>    1.3726    1.0000 </r>
       <r>   10.2473    0.0000 </r>
       <r>   13.2627    0.0000 </r>
       <r>   13.4945    0.0000 </r>
       <r>   14.6464    0.0000 </r>
       <r>   15.3371    0.0000 </r>
       <r>   17.4545    0.0000 </r>
      </set>
      <set comment="kpoint 4">
       <r>  -13.5919    1.0000 </r>
       <r>  -13.3248    1.0000 </r>
       <r>   -4.0367    1.0000 </r>
       <r>   -3.9739    1.0000 </r>
       <r>   -0.6427    1.0000 </r>
       <r>   -0.0429    1.0000 </r>
       <r>    0.1738    1.0000 </r>
       <r>    1.0217    1.0000 </r>
       <r>   11.0755    0.0000 </r>
       <r>   11.7404    0.0000 </r>
       <r>   12.3420    0.0000 </r>
       <r>   12.4863    0.0000 </r>
       <r>   12.7121    0.0000 </r>
       <r>   18.4275    0.0000 </r>
      </set>
      <set comment="kpoint 5">
       <r>  -11.9033    1.0000 </r>
       <r>  -11.7410    1.0000 </r>
       <r>   -6.8797    1.0000 </r>
       <r>   -6.7352    1.0000 </r>
       <r>   -0.8138    1.0000 </r>
       <r>   -0.5917    1.0000 </r>
       <r>    1.0362    1.0000 </r>
       <r>    2.6571    1.0000 </r>
       <r>    8.1051    0.0000 </r>
       <r>    9.4961    0.0000 </r>
       <r>   11.9516    0.0000 </r>
       <r>   12.3425    0.0000 </r>
       <r>   13.8485    0.0000 </r>
       <r>   19.2010    0.0000 </r>
      </set>
      <set comment="kpoint 6">
       <r>  -10.3256    1.0000 </r>
       <r>  -10.2657    1.0000 </r>
       <r>   -8.6490    1.0000 </r>
       <r>   -8.5949    1.0000 </r>
       <r>   -1.0667    1.0000 </r>
       <r>   -0.8460    1.0000 </r>
       <r>    2.5303    1.0000 </r>
       <r>    3.3293    1.0000 </r>
       <r>    6.8058    0.0000 </r>
       <r>    7.9731    0.0000 </r>
       <r>   11.8779    0.0000 </r>
       <r>   12.2634    0.0000 </r>
       <r>   16.4055    0.0000 </r>
       <r>   16.6045    0.0000 </r>
      </set>
      <set comment="kpoint 7">
       <r>  -15.0294    1.0000 </r>
       <r>  -14.7612    1.0000 </r>
       <r>   -2.3936    1.0000 </r>
       <r>   -0.6281    1.0000 </r>
       <r>   -0.0627    1.0000 </r>
       <r>   -0.0005    1.0000 </r>
       <r>    1.0029    1.0000 </r>
       <r>    1.0514    1.0000 </r>
       <r>    9.9445    0.0000 </r>
       <r>   14.3474    0.0000 </r>
       <r>   14.4912    0.0000 </r>
       <r>   15.3836    0.0000 </r>
       <r>   15.5061    0.0000 </r>
       <r>   15.5517    0.0000 </r>
      </set>
      <set comment="kpoint 8">
       <r>  -14.0662    1.0000 </r>
       <r>  -13.7948    1.0000 </r>
       <r>   -2.6266    1.0000 </r>
       <r>   -2.5244    1.0000 </r>
       <r>   -1.1743    1.0000 </r>
       <r>   -0.3084    1.0000 </r>
       <r>   -0.1736    1.0000 </r>
       <r>    0.4323    1.0000 </r>
       <r>   11.1475    0.0000 </r>
       <r>   12.7971    0.0000 </r>
       <r>   13.6319    0.0000 </r>
       <r>   14.1088    0.0000 </r>
       <r>   14.2739    0.0000 </r>
       <r>   17.5887    0.0000 </r>
      </set>
      <set comment="kpoint 9">
       <r>  -12.6191    1.0000 </r>
       <r>  -12.4076    1.0000 </r>
       <r>   -5.4207    1.0000 </r>
       <r>   -5.3360    1.0000 </r>
       <r>   -1.2560    1.0000 </r>
       <r>   -1.1318    1.0000 </r>
       <r>    0.4123    1.0000 </r>
       <r>    1.9527    1.0000 </r>
       <r>    9.6794    0.0000 </r>
       <r>   10.7435    0.0000 </r>
       <r>   12.9464    0.0000 </r>
       <r>   13.4691    0.0000 </r>
       <r>   13.7987    0.0000 </r>
       <r>   18.5576    0.0000 </r>
      </set>
      <set comment="kpoint 10">
       <r>  -10.7828    1.0000 </r>
       <r>  -10.6281    1.0000 </r>
       <r>   -7.9039    1.0000 </r>
       <r>   -7.7985    1.0000 </r>
       <r>   -1.7783    1.0000 </r>
       <r>   -1.6723    1.0000 </r>
       <r>    2.3531    1.0000 </r>
       <r>    3.3762    1.0000 </r>
       <r>    7.3241    0.0000 </r>
       <r>    8.3952    0.0000 </r>
       <r>   13.1480    0.0000 </r>
       <r>   13.5670    0.0000 </r>
       <r>   15.3288    0.0000 </r>
       <r>   18.0928    0.0000 </r>
      </set>
      <set comment="kpoint 11">
       <r>  -12.8502    1.0000 </r>
       <r>  -12.6248    1.0000 </r>
       <r>   -4.3339    1.0000 </r>
       <r>   -4.3052    1.0000 </r>
       <r>   -2.2595    1.0000 </r>
       <r>   -2.2169    1.0000 </r>
       <r>    0.2043    1.0000 </r>
       <r>    1.7357    1.0000 </r>
       <r>   10.5118    0.0000 </r>
       <r>   11.3116    0.0000 </r>
       <r>   12.6501    0.0000 </r>
       <r>   16.2143    0.0000 </r>
       <r>   16.5557    0.0000 </r>
       <r>   17.4208    0.0000 </r>
      </set>
      <set comment="kpoint 12">
       <r>  -11.2200    1.0000 </r>
       <r>  -11.0159    1.0000 </r>
       <r>   -6.5327    1.0000 </r>
       <r>   -6.4578    1.0000 </r>
       <r>   -3.3981    1.0000 </r>
       <r>   -3.3301    1.0000 </r>
       <r>    2.0515    1.0000 </r>
       <r>    3.3051    1.0000 </r>
       <r>    8.0208    0.0000 </r>
       <r>    8.7398    0.0000 </r>
       <r>   14.6989    0.0000 </r>
       <r>   16.2150    0.0000 </r>
       <r>   16.6253    0.0000 </r>
       <r>   17.5492    0.0000 </r>
      </set>
      <set comment="kpoint 13">
       <r>   -9.6739    1.0000 </r>
       <r>   -9.6093    1.0000 </r>
       <r>   -8.2036    1.0000 </r>
       <r>   -8.0850    1.0000 </r>
       <r>   -3.6139    1.0000 </r>
       <r>   -3.6016    1.0000 </r>
       <r>    3.6694    1.0000 </r>
       <r>    4.2405    1.0000 </r>
       <r>    6.9091    0.0000 </r>
       <r>    7.2125    0.0000 </r>
       <r>   16.1399    0.0000 </r>
       <r>   16.6317    0.0000 </r>
       <r>   17.1177    0.0000 </r>
       <r>   17.2208    0.0000 </r>
      </set>
      <set comment="kpoint 14">
       <r>   -9.4805    1.0000 </r>
       <r>   -9.3711    1.0000 </r>
       <r>   -7.6376    1.0000 </r>
       <r>   -7.5672    1.0000 </r>
       <r>   -4.8896    1.0000 </r>
       <r>   -4.8476    1.0000 </r>
       <r>    4.0125    1.0000 </r>
       <r>    5.0446    0.9331 </r>
       <r>    6.4005    0.0000 </r>
       <r>    7.0096    0.0000 </r>
       <r>   16.4186    0.0000 </r>
       <r>   16.4663    0.0000 </r>
       <r>   16.9184    0.0000 </r>
       <r>   18.3549    0.0000 </r>
      </set>
      <set comment="kpoint 15">
       <r>  -15.7440    1.0000 </r>
       <r>  -15.4934    1.0000 </r>
       <r>   -3.3222    1.0000 </r>
       <r>   -1.2247    1.0000 </r>
       <r>    2.2827    1.0000 </r>
       <r>    2.2827    1.0000 </r>
       <r>    2.5243    1.0000 </r>
       <r>    2.5244    1.0000 </r>
       <r>    9.1841    0.0000 </r>
       <r>   13.6924    0.0000 </r>
       <r>   13.6925    0.0000 </r>
       <r>   14.4297    0.0000 </r>
       <r>   14.4297    0.0000 </r>
       <r>   16.2745    0.0000 </r>
      </set>
      <set comment="kpoint 16">
       <r>  -15.5033    1.0000 </r>
       <r>  -15.2520    1.0000 </r>
       <r>   -2.9722    1.0000 </r>
       <r>   -1.1152    1.0000 </r>
       <r>    1.4947    1.0000 </r>
       <r>    1.6227    1.0000 </r>
       <r>    1.9709    1.0000 </r>
       <r>    2.3498    1.0000 </r>
       <r>    9.4806    0.0000 </r>
       <r>   13.6916    0.0000 </r>
       <r>   13.8589    0.0000 </r>
       <r>   14.8284    0.0000 </r>
       <r>   15.3693    0.0000 </r>
       <r>   16.3901    0.0000 </r>
      </set>
      <set comment="kpoint 17">
       <r>  -14.7803    1.0000 </r>
       <r>  -14.5282    1.0000 </r>
       <r>   -2.0535    1.0000 </r>
       <r>   -1.0728    1.0000 </r>
       <r>   -0.9591    1.0000 </r>
       <r>   -0.3190    1.0000 </r>
       <r>    1.0577    1.0000 </r>
       <r>    1.0979    1.0000 </r>
       <r>   10.3760    0.0000 </r>
       <r>   13.2174    0.0000 </r>
       <r>   13.3404    0.0000 </r>
       <r>   14.7203    0.0000 </r>
       <r>   15.4610    0.0000 </r>
       <r>   17.2164    0.0000 </r>
      </set>
      <set comment="kpoint 18">
       <r>  -13.5849    1.0000 </r>
       <r>  -13.3265    1.0000 </r>
       <r>   -4.0325    1.0000 </r>
       <r>   -3.9519    1.0000 </r>
       <r>   -0.5682    1.0000 </r>
       <r>    0.0538    1.0000 </r>
       <r>    0.1832    1.0000 </r>
       <r>    0.9801    1.0000 </r>
       <r>   11.3312    0.0000 </r>
       <r>   11.8961    0.0000 </r>
       <r>   12.4015    0.0000 </r>
       <r>   12.5046    0.0000 </r>
       <r>   12.7182    0.0000 </r>
       <r>   18.3171    0.0000 </r>
      </set>
      <set comment="kpoint 19">
       <r>  -11.8942    1.0000 </r>
       <r>  -11.7271    1.0000 </r>
       <r>   -6.8532    1.0000 </r>
       <r>   -6.7312    1.0000 </r>
       <r>   -0.7924    1.0000 </r>
       <r>   -0.5822    1.0000 </r>
       <r>    1.1872    1.0000 </r>
       <r>    2.6325    1.0000 </r>
       <r>    8.1353    0.0000 </r>
       <r>    9.5162    0.0000 </r>
       <r>   11.9728    0.0000 </r>
       <r>   12.3576    0.0000 </r>
       <r>   13.9827    0.0000 </r>
       <r>   19.1069    0.0000 </r>
      </set>
      <set comment="kpoint 20">
       <r>  -10.3226    1.0000 </r>
       <r>  -10.2678    1.0000 </r>
       <r>   -8.6471    1.0000 </r>
       <r>   -8.5971    1.0000 </r>
       <r>   -1.0644    1.0000 </r>
       <r>   -0.8461    1.0000 </r>
       <r>    2.5556    1.0000 </r>
       <r>    3.3226    1.0000 </r>
       <r>    6.7986    0.0000 </r>
       <r>    7.9294    0.0000 </r>
       <r>   11.8869    0.0000 </r>
       <r>   12.2565    0.0000 </r>
       <r>   16.5166    0.0000 </r>
       <r>   16.6946    0.0000 </r>
      </set>
      <set comment="kpoint 21">
       <r>  -15.0234    1.0000 </r>
       <r>  -14.7707    1.0000 </r>
       <r>   -2.3734    1.0000 </r>
       <r>   -0.6887    1.0000 </r>
       <r>   -0.0627    1.0000 </r>
       <r>    0.0018    1.0000 </r>
       <r>    1.0012    1.0000 </r>
       <r>    1.0522    1.0000 </r>
       <r>   10.0751    0.0000 </r>
       <r>   14.3193    0.0000 </r>
       <r>   14.3454    0.0000 </r>
       <r>   15.3871    0.0000 </r>
       <r>   15.4967    0.0000 </r>
       <r>   15.5727    0.0000 </r>
      </set>
      <set comment="kpoint 22">
       <r>  -14.0605    1.0000 </r>
       <r>  -13.8042    1.0000 </r>
       <r>   -2.6276    1.0000 </r>
       <r>   -2.5318    1.0000 </r>
       <r>   -1.1727    1.0000 </r>
       <r>   -0.3094    1.0000 </r>
       <r>   -0.2310    1.0000 </r>
       <r>    0.3676    1.0000 </r>
       <r>   11.2693    0.0000 </r>
       <r>   12.7552    0.0000 </r>
       <r>   13.5309    0.0000 </r>
       <r>   14.0897    0.0000 </r>
       <r>   14.2271    0.0000 </r>
       <r>   17.5699    0.0000 </r>
      </set>
      <set comment="kpoint 23">
       <r>  -12.6137    1.0000 </r>
       <r>  -12.4026    1.0000 </r>
       <r>   -5.4116    1.0000 </r>
       <r>   -5.3308    1.0000 </r>
       <r>   -1.2073    1.0000 </r>
       <r>   -1.1287    1.0000 </r>
       <r>    0.4847    1.0000 </r>
       <r>    1.8960    1.0000 </r>
       <r>    9.6123    0.0000 </r>
       <r>   10.6767    0.0000 </r>
       <r>   13.0653    0.0000 </r>
       <r>   13.4981    0.0000 </r>
       <r>   13.7937    0.0000 </r>
       <r>   18.4166    0.0000 </r>
      </set>
      <set comment="kpoint 24">
       <r>  -10.7776    1.0000 </r>
       <r>  -10.6233    1.0000 </r>
       <r>   -7.8930    1.0000 </r>
       <r>   -7.7901    1.0000 </r>
       <r>   -1.7902    1.0000 </r>
       <r>   -1.6587    1.0000 </r>
       <r>    2.3214    1.0000 </r>
       <r>    3.4088    1.0000 </r>
       <r>    7.2457    0.0000 </r>
       <r>    8.3450    0.0000 </r>
       <r>   13.1780    0.0000 </r>
       <r>   13.5734    0.0000 </r>
       <r>   15.4288    0.0000 </r>
       <r>   18.0912    0.0000 </r>
      </set>
      <set comment="kpoint 25">
       <r>  -12.8477    1.0000 </r>
       <r>  -12.6293    1.0000 </r>
       <r>   -4.3417    1.0000 </r>
       <r>   -4.3260    1.0000 </r>
       <r>   -2.1862    1.0000 </r>
       <r>   -2.1380    1.0000 </r>
       <r>    0.2881    1.0000 </r>
       <r>    1.6821    1.0000 </r>
       <r>   10.4980    0.0000 </r>
       <r>   11.1847    0.0000 </r>
       <r>   12.7596    0.0000 </r>
       <r>   16.3757    0.0000 </r>
       <r>   16.6197    0.0000 </r>
       <r>   17.4024    0.0000 </r>
      </set>
      <set comment="kpoint 26">
       <r>  -11.2011    1.0000 </r>
       <r>  -11.0192    1.0000 </r>
       <r>   -6.5139    1.0000 </r>
       <r>   -6.4470    1.0000 </r>
       <r>   -3.3930    1.0000 </r>
       <r>   -3.3234    1.0000 </r>
       <r>    2.0936    1.0000 </r>
       <r>    3.3063    1.0000 </r>
       <r>    8.0689    0.0000 </r>
       <r>    8.7532    0.0000 </r>
       <r>   14.7900    0.0000 </r>
       <r>   16.2331    0.0000 </r>
       <r>   16.6670    0.0000 </r>
       <r>   17.4420    0.0000 </r>
      </set>
      <set comment="kpoint 27">
       <r>   -9.6711    1.0000 </r>
       <r>   -9.6112    1.0000 </r>
       <r>   -8.2127    1.0000 </r>
       <r>   -8.1182    1.0000 </r>
       <r>   -3.6153    1.0000 </r>
       <r>   -3.6050    1.0000 </r>
       <r>    3.5946    1.0000 </r>
       <r>    4.1897    1.0000 </r>
       <r>    6.8963    0.0000 </r>
       <r>    7.1981    0.0000 </r>
       <r>   16.1097    0.0000 </r>
       <r>   16.6133    0.0000 </r>
       <r>   16.7561    0.0000 </r>
       <r>   17.0290    0.0000 </r>
      </set>
      <set comment="kpoint 28">
       <r>   -9.4764    1.0000 </r>
       <r>   -9.3747    1.0000 </r>
       <r>   -7.6351    1.0000 </r>
       <r>   -7.5689    1.0000 </r>
       <r>   -4.8878    1.0000 </r>
       <r>   -4.8480    1.0000 </r>
       <r>    4.0427    1.0000 </r>
       <r>    5.0187    1.0345 </r>
       <r>    6.4200    0.0000 </r>
       <r>    6.9889    0.0000 </r>
       <r>   16.1476    0.0000 </r>
       <r>   16.3337    0.0000 </r>
       <r>   17.2475    0.0000 </r>
       <r>   18.4720    0.0000 </r>
      </set>
      <set comment="kpoint 29">
       <r>  -15.7272    1.0000 </r>
       <r>  -15.5131    1.0000 </r>
       <r>   -3.1990    1.0000 </r>
       <r>   -1.6700    1.0000 </r>
       <r>    2.2766    1.0000 </r>
       <r>    2.2766    1.0000 </r>
       <r>    2.5055    1.0000 </r>
       <r>    2.5056    1.0000 </r>
       <r>    9.5724    0.0000 </r>
       <r>   13.6975    0.0000 </r>
       <r>   13.6975    0.0000 </r>
       <r>   13.8556    0.0000 </r>
       <r>   13.8557    0.0000 </r>
       <r>   15.2625    0.0000 </r>
      </set>
      <set comment="kpoint 30">
       <r>  -15.4860    1.0000 </r>
       <r>  -15.2717    1.0000 </r>
       <r>   -2.8781    1.0000 </r>
       <r>   -1.3995    1.0000 </r>
       <r>    1.4418    1.0000 </r>
       <r>    1.6111    1.0000 </r>
       <r>    1.9039    1.0000 </r>
       <r>    2.3316    1.0000 </r>
       <r>    9.8677    0.0000 </r>
       <r>   13.6972    0.0000 </r>
       <r>   13.8560    0.0000 </r>
       <r>   14.7715    0.0000 </r>
       <r>   14.9866    0.0000 </r>
       <r>   15.5433    0.0000 </r>
      </set>
      <set comment="kpoint 31">
       <r>  -14.7634    1.0000 </r>
       <r>  -14.5471    1.0000 </r>
       <r>   -1.9276    1.0000 </r>
       <r>   -1.0739    1.0000 </r>
       <r>   -0.9652    1.0000 </r>
       <r>   -0.5827    1.0000 </r>
       <r>    1.0291    1.0000 </r>
       <r>    1.0747    1.0000 </r>
       <r>   10.7485    0.0000 </r>
       <r>   13.2273    0.0000 </r>
       <r>   13.3234    0.0000 </r>
       <r>   14.7699    0.0000 </r>
       <r>   15.3838    0.0000 </r>
       <r>   16.4607    0.0000 </r>
      </set>
      <set comment="kpoint 32">
       <r>  -13.5688    1.0000 </r>
       <r>  -13.3566    1.0000 </r>
       <r>   -4.0343    1.0000 </r>
       <r>   -3.9718    1.0000 </r>
       <r>   -0.5434    1.0000 </r>
       <r>    0.0387    1.0000 </r>
       <r>    0.1659    1.0000 </r>
       <r>    0.8211    1.0000 </r>
       <r>   11.3510    0.0000 </r>
       <r>   12.2646    0.0000 </r>
       <r>   12.2976    0.0000 </r>
       <r>   12.5225    0.0000 </r>
       <r>   12.7104    0.0000 </r>
       <r>   17.5313    0.0000 </r>
      </set>
      <set comment="kpoint 33">
       <r>  -11.8799    1.0000 </r>
       <r>  -11.7424    1.0000 </r>
       <r>   -6.8439    1.0000 </r>
       <r>   -6.7405    1.0000 </r>
       <r>   -0.6962    1.0000 </r>
       <r>   -0.5814    1.0000 </r>
       <r>    1.3108    1.0000 </r>
       <r>    2.5122    1.0000 </r>
       <r>    8.3858    0.0000 </r>
       <r>    9.4424    0.0000 </r>
       <r>   11.9991    0.0000 </r>
       <r>   12.3354    0.0000 </r>
       <r>   14.3478    0.0000 </r>
       <r>   18.8257    0.0000 </r>
      </set>
      <set comment="kpoint 34">
       <r>  -10.3141    1.0000 </r>
       <r>  -10.2739    1.0000 </r>
       <r>   -8.6413    1.0000 </r>
       <r>   -8.6033    1.0000 </r>
       <r>   -0.9634    1.0000 </r>
       <r>   -0.8463    1.0000 </r>
       <r>    2.6288    1.0000 </r>
       <r>    3.3037    1.0000 </r>
       <r>    7.0420    0.0000 </r>
       <r>    7.8104    0.0000 </r>
       <r>   11.9159    0.0000 </r>
       <r>   12.2349    0.0000 </r>
       <r>   16.8633    0.0000 </r>
       <r>   16.9536    0.0000 </r>
      </set>
      <set comment="kpoint 35">
       <r>  -15.0061    1.0000 </r>
       <r>  -14.7898    1.0000 </r>
       <r>   -2.2470    1.0000 </r>
       <r>   -0.8616    1.0000 </r>
       <r>   -0.0551    1.0000 </r>
       <r>    0.0312    1.0000 </r>
       <r>    0.9491    1.0000 </r>
       <r>    1.0355    1.0000 </r>
       <r>   10.4568    0.0000 </r>
       <r>   14.3096    0.0000 </r>
       <r>   14.3378    0.0000 </r>
       <r>   15.3996    0.0000 </r>
       <r>   15.4974    0.0000 </r>
       <r>   15.6225    0.0000 </r>
      </set>
      <set comment="kpoint 36">
       <r>  -14.0441    1.0000 </r>
       <r>  -13.8322    1.0000 </r>
       <r>   -2.6147    1.0000 </r>
       <r>   -2.5599    1.0000 </r>
       <r>   -1.0788    1.0000 </r>
       <r>   -0.3086    1.0000 </r>
       <r>   -0.2161    1.0000 </r>
       <r>    0.2664    1.0000 </r>
       <r>   11.6242    0.0000 </r>
       <r>   12.8580    0.0000 </r>
       <r>   13.5069    0.0000 </r>
       <r>   14.1156    0.0000 </r>
       <r>   14.2225    0.0000 </r>
       <r>   16.9618    0.0000 </r>
      </set>
      <set comment="kpoint 37">
       <r>  -12.5953    1.0000 </r>
       <r>  -12.4176    1.0000 </r>
       <r>   -5.3856    1.0000 </r>
       <r>   -5.3356    1.0000 </r>
       <r>   -1.2477    1.0000 </r>
       <r>   -1.1302    1.0000 </r>
       <r>    0.6004    1.0000 </r>
       <r>    1.8259    1.0000 </r>
       <r>    9.6525    0.0000 </r>
       <r>   10.6452    0.0000 </r>
       <r>   13.4289    0.0000 </r>
       <r>   13.5126    0.0000 </r>
       <r>   13.7989    0.0000 </r>
       <r>   17.9332    0.0000 </r>
      </set>
      <set comment="kpoint 38">
       <r>  -10.7725    1.0000 </r>
       <r>  -10.6411    1.0000 </r>
       <r>   -7.8889    1.0000 </r>
       <r>   -7.7832    1.0000 </r>
       <r>   -1.7645    1.0000 </r>
       <r>   -1.6787    1.0000 </r>
       <r>    2.4464    1.0000 </r>
       <r>    3.3536    1.0000 </r>
       <r>    7.2670    0.0000 </r>
       <r>    8.1267    0.0000 </r>
       <r>   13.2140    0.0000 </r>
       <r>   13.5335    0.0000 </r>
       <r>   15.7164    0.0000 </r>
       <r>   18.0372    0.0000 </r>
      </set>
      <set comment="kpoint 39">
       <r>  -12.8322    1.0000 </r>
       <r>  -12.6548    1.0000 </r>
       <r>   -4.3497    1.0000 </r>
       <r>   -4.3412    1.0000 </r>
       <r>   -2.2390    1.0000 </r>
       <r>   -2.2082    1.0000 </r>
       <r>    0.3231    1.0000 </r>
       <r>    1.5177    1.0000 </r>
       <r>   10.4978    0.0000 </r>
       <r>   10.9589    0.0000 </r>
       <r>   13.0834    0.0000 </r>
       <r>   16.3323    0.0000 </r>
       <r>   16.6018    0.0000 </r>
       <r>   17.3192    0.0000 </r>
      </set>
      <set comment="kpoint 40">
       <r>  -11.1834    1.0000 </r>
       <r>  -11.0267    1.0000 </r>
       <r>   -6.5011    1.0000 </r>
       <r>   -6.4368    1.0000 </r>
       <r>   -3.3571    1.0000 </r>
       <r>   -3.3032    1.0000 </r>
       <r>    2.1984    1.0000 </r>
       <r>    3.2170    1.0000 </r>
       <r>    8.0970    0.0000 </r>
       <r>    8.7343    0.0000 </r>
       <r>   15.0087    0.0000 </r>
       <r>   16.2415    0.0000 </r>
       <r>   16.7023    0.0000 </r>
       <r>   17.1902    0.0000 </r>
      </set>
      <set comment="kpoint 41">
       <r>   -9.6627    1.0000 </r>
       <r>   -9.6166    1.0000 </r>
       <r>   -8.2092    1.0000 </r>
       <r>   -8.1246    1.0000 </r>
       <r>   -3.6536    1.0000 </r>
       <r>   -3.6096    1.0000 </r>
       <r>    3.6625    1.0000 </r>
       <r>    4.1606    1.0000 </r>
       <r>    6.7444    0.0000 </r>
       <r>    7.1589    0.0000 </r>
       <r>   16.0831    0.0000 </r>
       <r>   16.3527    0.0000 </r>
       <r>   16.6507    0.0000 </r>
       <r>   16.8850    0.0000 </r>
      </set>
      <set comment="kpoint 42">
       <r>   -9.4957    1.0000 </r>
       <r>   -9.3890    1.0000 </r>
       <r>   -7.6346    1.0000 </r>
       <r>   -7.6071    1.0000 </r>
       <r>   -4.9033    1.0000 </r>
       <r>   -4.8827    1.0000 </r>
       <r>    4.1110    1.0000 </r>
       <r>    4.8347    1.0000 </r>
       <r>    6.4117    0.0000 </r>
       <r>    6.9160    0.0000 </r>
       <r>   15.7796    0.0000 </r>
       <r>   16.0436    0.0000 </r>
       <r>   17.7729    0.0000 </r>
       <r>   18.7746    0.0000 </r>
      </set>
      <set comment="kpoint 43">
       <r>  -15.6984    1.0000 </r>
       <r>  -15.5413    1.0000 </r>
       <r>   -2.9890    1.0000 </r>
       <r>   -1.9358    1.0000 </r>
       <r>    2.6357    1.0000 </r>
       <r>    2.6357    1.0000 </r>
       <r>    2.6570    1.0000 </r>
       <r>    2.6571    1.0000 </r>
       <r>   10.1912    0.0000 </r>
       <r>   13.7328    0.0000 </r>
       <r>   13.7328    0.0000 </r>
       <r>   13.8291    0.0000 </r>
       <r>   13.8291    0.0000 </r>
       <r>   14.2398    0.0000 </r>
      </set>
      <set comment="kpoint 44">
       <r>  -15.4555    1.0000 </r>
       <r>  -15.3019    1.0000 </r>
       <r>   -2.6940    1.0000 </r>
       <r>   -1.5800    1.0000 </r>
       <r>    1.4297    1.0000 </r>
       <r>    1.5126    1.0000 </r>
       <r>    1.8842    1.0000 </r>
       <r>    2.1070    1.0000 </r>
       <r>   10.4854    0.0000 </r>
       <r>   13.6465    0.0000 </r>
       <r>   13.9996    0.0000 </r>
       <r>   14.5072    0.0000 </r>
       <r>   14.7829    0.0000 </r>
       <r>   15.0315    0.0000 </r>
      </set>
      <set comment="kpoint 45">
       <r>  -14.7366    1.0000 </r>
       <r>  -14.5766    1.0000 </r>
       <r>   -1.7429    1.0000 </r>
       <r>   -1.0845    1.0000 </r>
       <r>   -0.9714    1.0000 </r>
       <r>   -0.8415    1.0000 </r>
       <r>    1.0193    1.0000 </r>
       <r>    1.0275    1.0000 </r>
       <r>   11.3376    0.0000 </r>
       <r>   13.2430    0.0000 </r>
       <r>   13.3102    0.0000 </r>
       <r>   14.8384    0.0000 </r>
       <r>   15.0574    0.0000 </r>
       <r>   15.6711    0.0000 </r>
      </set>
      <set comment="kpoint 46">
       <r>  -13.5407    1.0000 </r>
       <r>  -13.3821    1.0000 </r>
       <r>   -4.0254    1.0000 </r>
       <r>   -3.9742    1.0000 </r>
       <r>   -0.3557    1.0000 </r>
       <r>    0.1177    1.0000 </r>
       <r>    0.1454    1.0000 </r>
       <r>    0.5055    1.0000 </r>
       <r>   11.5277    0.0000 </r>
       <r>   12.1413    0.0000 </r>
       <r>   12.5334    0.0000 </r>
       <r>   12.6381    0.0000 </r>
       <r>   12.9514    0.0000 </r>
       <r>   16.6512    0.0000 </r>
      </set>
      <set comment="kpoint 47">
       <r>  -11.8573    1.0000 </r>
       <r>  -11.7654    1.0000 </r>
       <r>   -6.8289    1.0000 </r>
       <r>   -6.7539    1.0000 </r>
       <r>   -0.6965    1.0000 </r>
       <r>   -0.5820    1.0000 </r>
       <r>    1.4727    1.0000 </r>
       <r>    2.3236    1.0000 </r>
       <r>    8.4713    0.0000 </r>
       <r>    9.2695    0.0000 </r>
       <r>   12.0370    0.0000 </r>
       <r>   12.3007    0.0000 </r>
       <r>   14.9046    0.0000 </r>
       <r>   18.1648    0.0000 </r>
      </set>
      <set comment="kpoint 48">
       <r>  -10.3344    1.0000 </r>
       <r>  -10.2791    1.0000 </r>
       <r>   -8.6144    1.0000 </r>
       <r>   -8.5608    1.0000 </r>
       <r>   -0.9204    1.0000 </r>
       <r>   -0.8304    1.0000 </r>
       <r>    2.9320    1.0000 </r>
       <r>    3.3143    1.0000 </r>
       <r>    7.0445    0.0000 </r>
       <r>    7.4862    0.0000 </r>
       <r>   11.9646    0.0000 </r>
       <r>   12.1745    0.0000 </r>
       <r>   17.3224    0.0000 </r>
       <r>   17.3495    0.0000 </r>
      </set>
      <set comment="kpoint 49">
       <r>  -14.9761    1.0000 </r>
       <r>  -14.8183    1.0000 </r>
       <r>   -2.0425    1.0000 </r>
       <r>   -1.0206    1.0000 </r>
       <r>   -0.0187    1.0000 </r>
       <r>    0.0374    1.0000 </r>
       <r>    1.0994    1.0000 </r>
       <r>    1.1358    1.0000 </r>
       <r>   11.0629    0.0000 </r>
       <r>   14.3777    0.0000 </r>
       <r>   14.3990    0.0000 </r>
       <r>   15.0712    0.0000 </r>
       <r>   15.4225    0.0000 </r>
       <r>   15.6554    0.0000 </r>
      </set>
      <set comment="kpoint 50">
       <r>  -14.0180    1.0000 </r>
       <r>  -13.8598    1.0000 </r>
       <r>   -2.6089    1.0000 </r>
       <r>   -2.5631    1.0000 </r>
       <r>   -0.8834    1.0000 </r>
       <r>   -0.3313    1.0000 </r>
       <r>   -0.2209    1.0000 </r>
       <r>    0.0253    1.0000 </r>
       <r>   12.1738    0.0000 </r>
       <r>   12.9653    0.0000 </r>
       <r>   13.4965    0.0000 </r>
       <r>   14.1418    0.0000 </r>
       <r>   14.2185    0.0000 </r>
       <r>   16.0554    0.0000 </r>
      </set>
      <set comment="kpoint 51">
       <r>  -12.5611    1.0000 </r>
       <r>  -12.4458    1.0000 </r>
       <r>   -5.3793    1.0000 </r>
       <r>   -5.3291    1.0000 </r>
       <r>   -1.2195    1.0000 </r>
       <r>   -1.1645    1.0000 </r>
       <r>    0.7375    1.0000 </r>
       <r>    1.6308    1.0000 </r>
       <r>    9.9071    0.0000 </r>
       <r>   10.5014    0.0000 </r>
       <r>   13.5552    0.0000 </r>
       <r>   13.7892    0.0000 </r>
       <r>   13.9951    0.0000 </r>
       <r>   17.2842    0.0000 </r>
      </set>
      <set comment="kpoint 52">
       <r>  -10.7532    1.0000 </r>
       <r>  -10.6512    1.0000 </r>
       <r>   -7.8672    1.0000 </r>
       <r>   -7.7978    1.0000 </r>
       <r>   -1.7147    1.0000 </r>
       <r>   -1.6795    1.0000 </r>
       <r>    2.6584    1.0000 </r>
       <r>    3.2266    1.0000 </r>
       <r>    7.4434    0.0000 </r>
       <r>    7.9960    0.0000 </r>
       <r>   13.2691    0.0000 </r>
       <r>   13.4925    0.0000 </r>
       <r>   16.1569    0.0000 </r>
       <r>   18.0148    0.0000 </r>
      </set>
      <set comment="kpoint 53">
       <r>  -12.8036    1.0000 </r>
       <r>  -12.6795    1.0000 </r>
       <r>   -4.3217    1.0000 </r>
       <r>   -4.3191    1.0000 </r>
       <r>   -2.2438    1.0000 </r>
       <r>   -2.2117    1.0000 </r>
       <r>    0.5214    1.0000 </r>
       <r>    1.3470    1.0000 </r>
       <r>   10.6829    0.0000 </r>
       <r>   10.9296    0.0000 </r>
       <r>   13.6141    0.0000 </r>
       <r>   16.3237    0.0000 </r>
       <r>   16.6553    0.0000 </r>
       <r>   16.8234    0.0000 </r>
      </set>
      <set comment="kpoint 54">
       <r>  -11.1626    1.0000 </r>
       <r>  -11.0573    1.0000 </r>
       <r>   -6.5027    1.0000 </r>
       <r>   -6.4528    1.0000 </r>
       <r>   -3.3776    1.0000 </r>
       <r>   -3.3140    1.0000 </r>
       <r>    2.2796    1.0000 </r>
       <r>    3.0337    1.0000 </r>
       <r>    8.1783    0.0000 </r>
       <r>    8.6462    0.0000 </r>
       <r>   15.3019    0.0000 </r>
       <r>   16.2247    0.0000 </r>
       <r>   16.5956    0.0000 </r>
       <r>   16.8810    0.0000 </r>
      </set>
      <set comment="kpoint 55">
       <r>   -9.6762    1.0000 </r>
       <r>   -9.6248    1.0000 </r>
       <r>   -8.2131    1.0000 </r>
       <r>   -8.1817    1.0000 </r>
       <r>   -3.6457    1.0000 </r>
       <r>   -3.6008    1.0000 </r>
       <r>    3.7809    1.0000 </r>
       <r>    4.1535    1.0000 </r>
       <r>    6.7447    0.0000 </r>
       <r>    6.9924    0.0000 </r>
       <r>   16.0312    0.0000 </r>
       <r>   16.1287    0.0000 </r>
       <r>   16.6396    0.0000 </r>
       <r>   16.7465    0.0000 </r>
      </set>
      <set comment="kpoint 56">
       <r>   -9.4792    1.0000 </r>
       <r>   -9.4052    1.0000 </r>
       <r>   -7.6236    1.0000 </r>
       <r>   -7.6159    1.0000 </r>
       <r>   -4.9058    1.0000 </r>
       <r>   -4.8738    1.0000 </r>
       <r>    4.2507    1.0000 </r>
       <r>    4.7140    1.0000 </r>
       <r>    6.4969    0.0000 </r>
       <r>    6.8321    0.0000 </r>
       <r>   15.5276    0.0000 </r>
       <r>   15.7464    0.0000 </r>
       <r>   18.3704    0.0000 </r>
       <r>   19.2462    0.0000 </r>
      </set>
      <set comment="kpoint 57">
       <r>  -15.6624    1.0000 </r>
       <r>  -15.5806    1.0000 </r>
       <r>   -2.8673    1.0000 </r>
       <r>   -2.2491    1.0000 </r>
       <r>    2.6355    1.0000 </r>
       <r>    2.6355    1.0000 </r>
       <r>    2.6458    1.0000 </r>
       <r>    2.6459    1.0000 </r>
       <r>   10.9916    0.0000 </r>
       <r>   12.9631    0.0000 </r>
       <r>   13.7500    0.0000 </r>
       <r>   13.7500    0.0000 </r>
       <r>   13.7990    0.0000 </r>
       <r>   13.7990    0.0000 </r>
      </set>
      <set comment="kpoint 58">
       <r>  -15.4214    1.0000 </r>
       <r>  -15.3411    1.0000 </r>
       <r>   -2.5772    1.0000 </r>
       <r>   -1.8979    1.0000 </r>
       <r>    1.4297    1.0000 </r>
       <r>    1.4444    1.0000 </r>
       <r>    1.8846    1.0000 </r>
       <r>    1.8970    1.0000 </r>
       <r>   11.2765    0.0000 </r>
       <r>   13.2019    0.0000 </r>
       <r>   13.7007    0.0000 </r>
       <r>   13.9868    0.0000 </r>
       <r>   14.7857    0.0000 </r>
       <r>   14.9444    0.0000 </r>
      </set>
      <set comment="kpoint 59">
       <r>  -14.7022    1.0000 </r>
       <r>  -14.6144    1.0000 </r>
       <r>   -1.6279    1.0000 </r>
       <r>   -1.1380    1.0000 </r>
       <r>   -1.0787    1.0000 </r>
       <r>   -0.9709    1.0000 </r>
       <r>    1.0113    1.0000 </r>
       <r>    1.0281    1.0000 </r>
       <r>   12.0937    0.0000 </r>
       <r>   13.2522    0.0000 </r>
       <r>   13.2756    0.0000 </r>
       <r>   14.0517    0.0000 </r>
       <r>   14.9634    0.0000 </r>
       <r>   15.3333    0.0000 </r>
      </set>
      <set comment="kpoint 60">
       <r>  -13.4889    1.0000 </r>
       <r>  -13.4164    1.0000 </r>
       <r>   -3.9761    1.0000 </r>
       <r>   -3.9627    1.0000 </r>
       <r>   -0.2315    1.0000 </r>
       <r>    0.1133    1.0000 </r>
       <r>    0.1456    1.0000 </r>
       <r>    0.2994    1.0000 </r>
       <r>   11.6889    0.0000 </r>
       <r>   12.2394    0.0000 </r>
       <r>   12.6352    0.0000 </r>
       <r>   12.7332    0.0000 </r>
       <r>   13.7075    0.0000 </r>
       <r>   15.5118    0.0000 </r>
      </set>
      <set comment="kpoint 61">
       <r>  -11.8283    1.0000 </r>
       <r>  -11.7597    1.0000 </r>
       <r>   -6.7826    1.0000 </r>
       <r>   -6.7751    1.0000 </r>
       <r>   -0.7311    1.0000 </r>
       <r>   -0.6103    1.0000 </r>
       <r>    1.7066    1.0000 </r>
       <r>    2.0080    1.0000 </r>
       <r>    8.6051    0.0000 </r>
       <r>    9.0713    0.0000 </r>
       <r>   12.1611    0.0000 </r>
       <r>   12.2704    0.0000 </r>
       <r>   15.5925    0.0000 </r>
       <r>   17.3752    0.0000 </r>
      </set>
      <set comment="kpoint 62">
       <r>  -10.3209    1.0000 </r>
       <r>  -10.2914    1.0000 </r>
       <r>   -8.6026    1.0000 </r>
       <r>   -8.5757    1.0000 </r>
       <r>   -0.9185    1.0000 </r>
       <r>   -0.8307    1.0000 </r>
       <r>    3.0620    1.0000 </r>
       <r>    3.2291    1.0000 </r>
       <r>    7.0900    0.0000 </r>
       <r>    7.3172    0.0000 </r>
       <r>   12.0156    0.0000 </r>
       <r>   12.1246    0.0000 </r>
       <r>   17.7728    0.0000 </r>
       <r>   17.9321    0.0000 </r>
      </set>
      <set comment="kpoint 63">
       <r>  -14.9383    1.0000 </r>
       <r>  -14.8563    1.0000 </r>
       <r>   -1.9570    1.0000 </r>
       <r>   -1.3333    1.0000 </r>
       <r>    0.0160    1.0000 </r>
       <r>    0.0330    1.0000 </r>
       <r>    1.1290    1.0000 </r>
       <r>    1.1355    1.0000 </r>
       <r>   11.8428    0.0000 </r>
       <r>   13.7109    0.0000 </r>
       <r>   14.3739    0.0000 </r>
       <r>   14.4068    0.0000 </r>
       <r>   15.4126    0.0000 </r>
       <r>   15.6574    0.0000 </r>
      </set>
      <set comment="kpoint 64">
       <r>  -13.9761    1.0000 </r>
       <r>  -13.8954    1.0000 </r>
       <r>   -2.6047    1.0000 </r>
       <r>   -2.5680    1.0000 </r>
       <r>   -0.7466    1.0000 </r>
       <r>   -0.3223    1.0000 </r>
       <r>   -0.3058    1.0000 </r>
       <r>   -0.2332    1.0000 </r>
       <r>   12.7939    0.0000 </r>
       <r>   13.1830    0.0000 </r>
       <r>   13.3561    0.0000 </r>
       <r>   14.1678    0.0000 </r>
       <r>   14.2366    0.0000 </r>
       <r>   14.9252    0.0000 </r>
      </set>
      <set comment="kpoint 65">
       <r>  -12.5297    1.0000 </r>
       <r>  -12.4784    1.0000 </r>
       <r>   -5.3686    1.0000 </r>
       <r>   -5.3258    1.0000 </r>
       <r>   -1.1934    1.0000 </r>
       <r>   -1.1762    1.0000 </r>
       <r>    0.8650    1.0000 </r>
       <r>    1.4014    1.0000 </r>
       <r>   10.1019    0.0000 </r>
       <r>   10.4506    0.0000 </r>
       <r>   13.6063    0.0000 </r>
       <r>   13.7455    0.0000 </r>
       <r>   14.6973    0.0000 </r>
       <r>   16.3143    0.0000 </r>
      </set>
      <set comment="kpoint 66">
       <r>  -10.7286    1.0000 </r>
       <r>  -10.6758    1.0000 </r>
       <r>   -7.8473    1.0000 </r>
       <r>   -7.8180    1.0000 </r>
       <r>   -1.7131    1.0000 </r>
       <r>   -1.6869    1.0000 </r>
       <r>    2.8370    1.0000 </r>
       <r>    3.0636    1.0000 </r>
       <r>    7.5394    0.0000 </r>
       <r>    7.8304    0.0000 </r>
       <r>   13.3197    0.0000 </r>
       <r>   13.4391    0.0000 </r>
       <r>   16.6751    0.0000 </r>
       <r>   17.7396    0.0000 </r>
      </set>
      <set comment="kpoint 67">
       <r>  -12.7726    1.0000 </r>
       <r>  -12.7145    1.0000 </r>
       <r>   -4.3227    1.0000 </r>
       <r>   -4.2995    1.0000 </r>
       <r>   -2.2260    1.0000 </r>
       <r>   -2.2077    1.0000 </r>
       <r>    0.6512    1.0000 </r>
       <r>    1.0980    1.0000 </r>
       <r>   10.8735    0.0000 </r>
       <r>   11.1065    0.0000 </r>
       <r>   14.2692    0.0000 </r>
       <r>   15.7681    0.0000 </r>
       <r>   16.5539    0.0000 </r>
       <r>   16.6542    0.0000 </r>
      </set>
      <set comment="kpoint 68">
       <r>  -11.1311    1.0000 </r>
       <r>  -11.0654    1.0000 </r>
       <r>   -6.4911    1.0000 </r>
       <r>   -6.4485    1.0000 </r>
       <r>   -3.3123    1.0000 </r>
       <r>   -3.2949    1.0000 </r>
       <r>    2.5531    1.0000 </r>
       <r>    2.8709    1.0000 </r>
       <r>    8.4341    0.0000 </r>
       <r>    8.5842    0.0000 </r>
       <r>   15.6437    0.0000 </r>
       <r>   16.2018    0.0000 </r>
       <r>   16.6062    0.0000 </r>
       <r>   16.8057    0.0000 </r>
      </set>
      <set comment="kpoint 69">
       <r>   -9.6634    1.0000 </r>
       <r>   -9.6361    1.0000 </r>
       <r>   -8.2048    1.0000 </r>
       <r>   -8.1908    1.0000 </r>
       <r>   -3.6109    1.0000 </r>
       <r>   -3.6095    1.0000 </r>
       <r>    3.9150    1.0000 </r>
       <r>    4.0737    1.0000 </r>
       <r>    6.9176    0.0000 </r>
       <r>    6.9314    0.0000 </r>
       <r>   15.9953    0.0000 </r>
       <r>   15.9990    0.0000 </r>
       <r>   16.6616    0.0000 </r>
       <r>   16.7811    0.0000 </r>
      </set>
      <set comment="kpoint 70">
       <r>   -9.4593    1.0000 </r>
       <r>   -9.4352    1.0000 </r>
       <r>   -7.6599    1.0000 </r>
       <r>   -7.6305    1.0000 </r>
       <r>   -4.9960    1.0000 </r>
       <r>   -4.9518    1.0000 </r>
       <r>    4.2501    1.0000 </r>
       <r>    4.5426    1.0000 </r>
       <r>    6.5595    0.0000 </r>
       <r>    6.5719    0.0000 </r>
       <r>   15.3888    0.0000 </r>
       <r>   15.4862    0.0000 </r>
       <r>   18.8936    0.0000 </r>
       <r>   19.4478    0.0000 </r>
      </set>
      <set comment="kpoint 71">
       <r>  -15.6219    1.0000 </r>
       <r>  -15.6219    1.0000 </r>
       <r>   -2.5696    1.0000 </r>
       <r>   -2.5696    1.0000 </r>
       <r>    2.6387    1.0000 </r>
       <r>    2.6387    1.0000 </r>
       <r>    2.6388    1.0000 </r>
       <r>    2.6388    1.0000 </r>
       <r>   11.9305    0.0000 </r>
       <r>   11.9305    0.0000 </r>
       <r>   13.7723    0.0000 </r>
       <r>   13.7723    0.0000 </r>
       <r>   13.7724    0.0000 </r>
       <r>   13.7724    0.0000 </r>
      </set>
      <set comment="kpoint 72">
       <r>  -15.3813    1.0000 </r>
       <r>  -15.3813    1.0000 </r>
       <r>   -2.2183    1.0000 </r>
       <r>   -2.2183    1.0000 </r>
       <r>    1.4368    1.0000 </r>
       <r>    1.4368    1.0000 </r>
       <r>    1.8896    1.0000 </r>
       <r>    1.8896    1.0000 </r>
       <r>   12.2054    0.0000 </r>
       <r>   12.2054    0.0000 </r>
       <r>   13.9821    0.0000 </r>
       <r>   13.9821    0.0000 </r>
       <r>   14.9246    0.0000 </r>
       <r>   14.9246    0.0000 </r>
      </set>
      <set comment="kpoint 73">
       <r>  -14.6645    1.0000 </r>
       <r>  -14.6644    1.0000 </r>
       <r>   -1.4499    1.0000 </r>
       <r>   -1.4499    1.0000 </r>
       <r>   -1.0815    1.0000 </r>
       <r>   -1.0815    1.0000 </r>
       <r>    1.0056    1.0000 </r>
       <r>    1.0057    1.0000 </r>
       <r>   12.9279    0.0000 </r>
       <r>   12.9279    0.0000 </r>
       <r>   13.2779    0.0000 </r>
       <r>   13.2779    0.0000 </r>
       <r>   15.0286    0.0000 </r>
       <r>   15.0286    0.0000 </r>
      </set>
      <set comment="kpoint 74">
       <r>  -13.4538    1.0000 </r>
       <r>  -13.4538    1.0000 </r>
       <r>   -3.9932    1.0000 </r>
       <r>   -3.9932    1.0000 </r>
       <r>   -0.0057    1.0000 </r>
       <r>   -0.0057    1.0000 </r>
       <r>    0.1108    1.0000 </r>
       <r>    0.1108    1.0000 </r>
       <r>   11.8648    0.0000 </r>
       <r>   11.8648    0.0000 </r>
       <r>   12.6825    0.0000 </r>
       <r>   12.6825    0.0000 </r>
       <r>   14.5678    0.0000 </r>
       <r>   14.5678    0.0000 </r>
      </set>
      <set comment="kpoint 75">
       <r>  -11.7882    1.0000 </r>
       <r>  -11.7882    1.0000 </r>
       <r>   -6.7434    1.0000 </r>
       <r>   -6.7434    1.0000 </r>
       <r>   -0.6081    1.0000 </r>
       <r>   -0.6081    1.0000 </r>
       <r>    1.8515    1.0000 </r>
       <r>    1.8515    1.0000 </r>
       <r>    9.0368    0.0000 </r>
       <r>    9.0368    0.0000 </r>
       <r>   12.2177    0.0000 </r>
       <r>   12.2177    0.0000 </r>
       <r>   16.3980    0.0000 </r>
       <r>   16.3980    0.0000 </r>
      </set>
      <set comment="kpoint 76">
       <r>  -10.3080    1.0000 </r>
       <r>  -10.3080    1.0000 </r>
       <r>   -8.6030    1.0000 </r>
       <r>   -8.6030    1.0000 </r>
       <r>   -0.9538    1.0000 </r>
       <r>   -0.9538    1.0000 </r>
       <r>    2.9611    1.0000 </r>
       <r>    2.9611    1.0000 </r>
       <r>    7.0991    0.0000 </r>
       <r>    7.0991    0.0000 </r>
       <r>   12.0656    0.0000 </r>
       <r>   12.0656    0.0000 </r>
       <r>   18.1098    0.0000 </r>
       <r>   18.1098    0.0000 </r>
      </set>
      <set comment="kpoint 77">
       <r>  -14.8991    1.0000 </r>
       <r>  -14.8991    1.0000 </r>
       <r>   -1.6459    1.0000 </r>
       <r>   -1.6459    1.0000 </r>
       <r>    0.0245    1.0000 </r>
       <r>    0.0245    1.0000 </r>
       <r>    1.1297    1.0000 </r>
       <r>    1.1297    1.0000 </r>
       <r>   12.7509    0.0000 </r>
       <r>   12.7509    0.0000 </r>
       <r>   14.3710    0.0000 </r>
       <r>   14.3710    0.0000 </r>
       <r>   15.6438    0.0000 </r>
       <r>   15.6439    0.0000 </r>
      </set>
      <set comment="kpoint 78">
       <r>  -13.9391    1.0000 </r>
       <r>  -13.9391    1.0000 </r>
       <r>   -2.6042    1.0000 </r>
       <r>   -2.6042    1.0000 </r>
       <r>   -0.5419    1.0000 </r>
       <r>   -0.5419    1.0000 </r>
       <r>   -0.3683    1.0000 </r>
       <r>   -0.3682    1.0000 </r>
       <r>   13.0613    0.0000 </r>
       <r>   13.0613    0.0000 </r>
       <r>   13.9106    0.0000 </r>
       <r>   13.9106    0.0000 </r>
       <r>   14.2215    0.0000 </r>
       <r>   14.2215    0.0000 </r>
      </set>
      <set comment="kpoint 79">
       <r>  -12.4957    1.0000 </r>
       <r>  -12.4957    1.0000 </r>
       <r>   -5.3437    1.0000 </r>
       <r>   -5.3437    1.0000 </r>
       <r>   -1.1820    1.0000 </r>
       <r>   -1.1820    1.0000 </r>
       <r>    1.1296    1.0000 </r>
       <r>    1.1296    1.0000 </r>
       <r>   10.2670    0.0000 </r>
       <r>   10.2670    0.0000 </r>
       <r>   13.6992    0.0000 </r>
       <r>   13.6992    0.0000 </r>
       <r>   15.4864    0.0000 </r>
       <r>   15.4864    0.0000 </r>
      </set>
      <set comment="kpoint 80">
       <r>  -10.7106    1.0000 </r>
       <r>  -10.7106    1.0000 </r>
       <r>   -7.8206    1.0000 </r>
       <r>   -7.8206    1.0000 </r>
       <r>   -1.6920    1.0000 </r>
       <r>   -1.6920    1.0000 </r>
       <r>    2.9382    1.0000 </r>
       <r>    2.9382    1.0000 </r>
       <r>    7.7076    0.0000 </r>
       <r>    7.7076    0.0000 </r>
       <r>   13.3752    0.0000 </r>
       <r>   13.3752    0.0000 </r>
       <r>   17.1747    0.0000 </r>
       <r>   17.1747    0.0000 </r>
      </set>
      <set comment="kpoint 81">
       <r>  -12.7328    1.0000 </r>
       <r>  -12.7327    1.0000 </r>
       <r>   -4.2890    1.0000 </r>
       <r>   -4.2889    1.0000 </r>
       <r>   -2.2083    1.0000 </r>
       <r>   -2.2083    1.0000 </r>
       <r>    0.9276    1.0000 </r>
       <r>    0.9276    1.0000 </r>
       <r>   10.9902    0.0000 </r>
       <r>   10.9902    0.0000 </r>
       <r>   15.0311    0.0000 </r>
       <r>   15.0311    0.0000 </r>
       <r>   16.6388    0.0000 </r>
       <r>   16.6388    0.0000 </r>
      </set>
      <set comment="kpoint 82">
       <r>  -11.1005    1.0000 </r>
       <r>  -11.1004    1.0000 </r>
       <r>   -6.4655    1.0000 </r>
       <r>   -6.4655    1.0000 </r>
       <r>   -3.3034    1.0000 </r>
       <r>   -3.3034    1.0000 </r>
       <r>    2.6476    1.0000 </r>
       <r>    2.6476    1.0000 </r>
       <r>    8.5895    0.0000 </r>
       <r>    8.5895    0.0000 </r>
       <r>   15.9387    0.0000 </r>
       <r>   15.9387    0.0000 </r>
       <r>   16.6438    0.0000 </r>
       <r>   16.6438    0.0000 </r>
      </set>
      <set comment="kpoint 83">
       <r>   -9.6453    1.0000 </r>
       <r>   -9.6453    1.0000 </r>
       <r>   -8.1810    1.0000 </r>
       <r>   -8.1810    1.0000 </r>
       <r>   -3.6262    1.0000 </r>
       <r>   -3.6262    1.0000 </r>
       <r>    4.1986    1.0000 </r>
       <r>    4.1987    1.0000 </r>
       <r>    6.9816    0.0000 </r>
       <r>    6.9816    0.0000 </r>
       <r>   15.9743    0.0000 </r>
       <r>   15.9743    0.0000 </r>
       <r>   16.7120    0.0000 </r>
       <r>   16.7120    0.0000 </r>
      </set>
      <set comment="kpoint 84">
       <r>   -9.4637    1.0000 </r>
       <r>   -9.4637    1.0000 </r>
       <r>   -7.6430    1.0000 </r>
       <r>   -7.6430    1.0000 </r>
       <r>   -4.9774    1.0000 </r>
       <r>   -4.9774    1.0000 </r>
       <r>    4.5025    1.0000 </r>
       <r>    4.5025    1.0000 </r>
       <r>    6.6576    0.0000 </r>
       <r>    6.6576    0.0000 </r>
       <r>   15.3698    0.0000 </r>
       <r>   15.3698    0.0000 </r>
       <r>   19.5502    0.0000 </r>
       <r>   19.5550    0.0000 </r>
      </set>
     </set>
     <set comment="spin 2">
      <set comment="kpoint 1">
       <r>  -15.7496    1.0000 </r>
       <r>  -15.4858    1.0000 </r>
       <r>   -3.2743    1.0000 </r>
       <r>   -1.1136    1.0000 </r>
       <r>    2.4241    1.0000 </r>
       <r>    2.4241    1.0000 </r>
       <r>    2.5706    1.0000 </r>
       <r>    2.5706    1.0000 </r>
       <r>    9.0439    0.0000 </r>
       <r>   13.7470    0.0000 </r>
       <r>   13.7470    0.0000 </r>
       <r>   14.4464    0.0000 </r>
       <r>   14.4464    0.0000 </r>
       <r>   16.3298    0.0000 </r>
      </set>
      <set comment="kpoint 2">
       <r>  -15.5101    1.0000 </r>
       <r>  -15.2453    1.0000 </r>
       <r>   -3.0007    1.0000 </r>
       <r>   -1.0456    1.0000 </r>
       <r>    1.3093    1.0000 </r>
       <r>    1.4967    1.0000 </r>
       <r>    1.9723    1.0000 </r>
       <r>    2.4616    1.0000 </r>
       <r>    9.3442    0.0000 </r>
       <r>   13.6812    0.0000 </r>
       <r>   13.8456    0.0000 </r>
       <r>   14.8346    0.0000 </r>
       <r>   15.3723    0.0000 </r>
       <r>   16.6989    0.0000 </r>
      </set>
      <set comment="kpoint 3">
       <r>  -14.7837    1.0000 </r>
       <r>  -14.5146    1.0000 </r>
       <r>   -2.0780    1.0000 </r>
       <r>   -1.0255    1.0000 </r>
       <r>   -0.9210    1.0000 </r>
       <r>   -0.2657    1.0000 </r>
       <r>    1.0555    1.0000 </r>
       <r>    1.3729    1.0000 </r>
       <r>   10.2479    0.0000 </r>
       <r>   13.2643    0.0000 </r>
       <r>   13.4961    0.0000 </r>
       <r>   14.6468    0.0000 </r>
       <r>   15.3376    0.0000 </r>
       <r>   17.4552    0.0000 </r>
      </set>
      <set comment="kpoint 4">
       <r>  -13.5915    1.0000 </r>
       <r>  -13.3244    1.0000 </r>
       <r>   -4.0363    1.0000 </r>
       <r>   -3.9735    1.0000 </r>
       <r>   -0.6423    1.0000 </r>
       <r>   -0.0424    1.0000 </r>
       <r>    0.1742    1.0000 </r>
       <r>    1.0222    1.0000 </r>
       <r>   11.0760    0.0000 </r>
       <r>   11.7409    0.0000 </r>
       <r>   12.3425    0.0000 </r>
       <r>   12.4878    0.0000 </r>
       <r>   12.7136    0.0000 </r>
       <r>   18.4285    0.0000 </r>
      </set>
      <set comment="kpoint 5">
       <r>  -11.9030    1.0000 </r>
       <r>  -11.7406    1.0000 </r>
       <r>   -6.8793    1.0000 </r>
       <r>   -6.7347    1.0000 </r>
       <r>   -0.8133    1.0000 </r>
       <r>   -0.5913    1.0000 </r>
       <r>    1.0365    1.0000 </r>
       <r>    2.6575    1.0000 </r>
       <r>    8.1056    0.0000 </r>
       <r>    9.4966    0.0000 </r>
       <r>   11.9529    0.0000 </r>
       <r>   12.3439    0.0000 </r>
       <r>   13.8491    0.0000 </r>
       <r>   19.2026    0.0000 </r>
      </set>
      <set comment="kpoint 6">
       <r>  -10.3254    1.0000 </r>
       <r>  -10.2655    1.0000 </r>
       <r>   -8.6484    1.0000 </r>
       <r>   -8.5943    1.0000 </r>
       <r>   -1.0662    1.0000 </r>
       <r>   -0.8455    1.0000 </r>
       <r>    2.5303    1.0000 </r>
       <r>    3.3298    1.0000 </r>
       <r>    6.8064    0.0000 </r>
       <r>    7.9737    0.0000 </r>
       <r>   11.8793    0.0000 </r>
       <r>   12.2649    0.0000 </r>
       <r>   16.4052    0.0000 </r>
       <r>   16.6059    0.0000 </r>
      </set>
      <set comment="kpoint 7">
       <r>  -15.0289    1.0000 </r>
       <r>  -14.7608    1.0000 </r>
       <r>   -2.3932    1.0000 </r>
       <r>   -0.6276    1.0000 </r>
       <r>   -0.0625    1.0000 </r>
       <r>   -0.0002    1.0000 </r>
       <r>    1.0033    1.0000 </r>
       <r>    1.0518    1.0000 </r>
       <r>    9.9451    0.0000 </r>
       <r>   14.3491    0.0000 </r>
       <r>   14.4929    0.0000 </r>
       <r>   15.3853    0.0000 </r>
       <r>   15.5064    0.0000 </r>
       <r>   15.5535    0.0000 </r>
      </set>
      <set comment="kpoint 8">
       <r>  -14.0658    1.0000 </r>
       <r>  -13.7944    1.0000 </r>
       <r>   -2.6263    1.0000 </r>
       <r>   -2.5241    1.0000 </r>
       <r>   -1.1739    1.0000 </r>
       <r>   -0.3079    1.0000 </r>
       <r>   -0.1731    1.0000 </r>
       <r>    0.4328    1.0000 </r>
       <r>   11.1481    0.0000 </r>
       <r>   12.7974    0.0000 </r>
       <r>   13.6324    0.0000 </r>
       <r>   14.1102    0.0000 </r>
       <r>   14.2754    0.0000 </r>
       <r>   17.5900    0.0000 </r>
      </set>
      <set comment="kpoint 9">
       <r>  -12.6187    1.0000 </r>
       <r>  -12.4072    1.0000 </r>
       <r>   -5.4203    1.0000 </r>
       <r>   -5.3356    1.0000 </r>
       <r>   -1.2554    1.0000 </r>
       <r>   -1.1313    1.0000 </r>
       <r>    0.4126    1.0000 </r>
       <r>    1.9532    1.0000 </r>
       <r>    9.6798    0.0000 </r>
       <r>   10.7440    0.0000 </r>
       <r>   12.9470    0.0000 </r>
       <r>   13.4704    0.0000 </r>
       <r>   13.8000    0.0000 </r>
       <r>   18.5590    0.0000 </r>
      </set>
      <set comment="kpoint 10">
       <r>  -10.7825    1.0000 </r>
       <r>  -10.6278    1.0000 </r>
       <r>   -7.9034    1.0000 </r>
       <r>   -7.7980    1.0000 </r>
       <r>   -1.7778    1.0000 </r>
       <r>   -1.6718    1.0000 </r>
       <r>    2.3533    1.0000 </r>
       <r>    3.3766    1.0000 </r>
       <r>    7.3246    0.0000 </r>
       <r>    8.3957    0.0000 </r>
       <r>   13.1493    0.0000 </r>
       <r>   13.5684    0.0000 </r>
       <r>   15.3293    0.0000 </r>
       <r>   18.0934    0.0000 </r>
      </set>
      <set comment="kpoint 11">
       <r>  -12.8498    1.0000 </r>
       <r>  -12.6244    1.0000 </r>
       <r>   -4.3336    1.0000 </r>
       <r>   -4.3050    1.0000 </r>
       <r>   -2.2588    1.0000 </r>
       <r>   -2.2162    1.0000 </r>
       <r>    0.2047    1.0000 </r>
       <r>    1.7362    1.0000 </r>
       <r>   10.5120    0.0000 </r>
       <r>   11.3120    0.0000 </r>
       <r>   12.6507    0.0000 </r>
       <r>   16.2156    0.0000 </r>
       <r>   16.5569    0.0000 </r>
       <r>   17.4227    0.0000 </r>
      </set>
      <set comment="kpoint 12">
[...]
       </set>
       <set comment="band 10">
        <r>  0.0000  0.0003  0.0000  0.0007  0.0000  0.0000  0.0000  0.0000  0.0000 </r>
        <r>  0.0004  0.0005  0.0000  0.0004  0.0000  0.0000  0.0000  0.0000  0.0000 </r>
        <r>  0.0000  0.0000  0.2491  0.0000  0.0000  0.0000  0.0000  0.0000  0.0000 </r>
        <r>  0.0000  0.0000  0.2508  0.0000  0.0000  0.0000  0.0000  0.0000  0.0000 </r>
       </set>
       <set comment="band 11">
        <r>  0.0069  0.0073  0.0000  0.0031  0.0000  0.0000  0.0000  0.0000  0.0000 </r>
        <r>  0.0124  0.0152  0.0000  0.0078  0.0000  0.0000  0.0000  0.0000  0.0000 </r>
        <r>  0.0000  0.0000  0.0560  0.0000  0.0000  0.0000  0.0000  0.0000  0.0000 </r>
        <r>  0.0000  0.0000  0.0501  0.0000  0.0000  0.0000  0.0000  0.0000  0.0000 </r>
       </set>
       <set comment="band 12">
        <r>  0.0000  0.0000  0.0501  0.0000  0.0000  0.0000  0.0000  0.0000  0.0000 </r>
        <r>  0.0000  0.0000  0.0560  0.0000  0.0000  0.0000  0.0000  0.0000  0.0000 </r>
        <r>  0.0124  0.0152  0.0000  0.0078  0.0000  0.0000  0.0000  0.0000  0.0000 </r>
        <r>  0.0069  0.0073  0.0000  0.0031  0.0000  0.0000  0.0000  0.0000  0.0000 </r>
       </set>
       <set comment="band 13">
        <r>  0.0426  0.0506  0.0000  0.0945  0.0000  0.0000  0.0000  0.0000  0.0000 </r>
        <r>  0.0369  0.0563  0.0000  0.1035  0.0000  0.0000  0.0000  0.0000  0.0000 </r>
        <r>  0.0000  0.0000  0.0002  0.0000  0.0000  0.0000  0.0000  0.0000  0.0000 </r>
        <r>  0.0000  0.0000  0.0058  0.0000  0.0000  0.0000  0.0000  0.0000  0.0000 </r>
       </set>
       <set comment="band 14">
        <r>  0.0000  0.0000  0.0058  0.0000  0.0000  0.0000  0.0000  0.0000  0.0000 </r>
        <r>  0.0000  0.0000  0.0002  0.0000  0.0000  0.0000  0.0000  0.0000  0.0000 </r>
        <r>  0.0369  0.0564  0.0000  0.1035  0.0000  0.0000  0.0000  0.0000  0.0000 </r>
        <r>  0.0426  0.0506  0.0000  0.0945  0.0000  0.0000  0.0000  0.0000  0.0000 </r>
       </set>
      </set>
      <set comment="kpoint 82">
       <set comment="band 1">
        <r>  0.2597  0.0466  0.0000  0.0272  0.0000  0.0000  0.0000  0.0000  0.0000 </r>
        <r>  0.2605  0.0465  0.0000  0.0271  0.0000  0.0000  0.0000  0.0000  0.0000 </r>
        <r>  0.0000  0.0000  0.0000  0.0000  0.0000  0.0000  0.0000  0.0000  0.0000 </r>
        <r>  0.0000  0.0000  0.0000  0.0000  0.0000  0.0000  0.0000  0.0000  0.0000 </r>
       </set>
       <set comment="band 2">
        <r>  0.0000  0.0000  0.0000  0.0000  0.0000  0.0000  0.0000  0.0000  0.0000 </r>
        <r>  0.0000  0.0000  0.0000  0.0000  0.0000  0.0000  0.0000  0.0000  0.0000 </r>
        <r>  0.2605  0.0465  0.0000  0.0271  0.0000  0.0000  0.0000  0.0000  0.0000 </r>
        <r>  0.2597  0.0466  0.0000  0.0272  0.0000  0.0000  0.0000  0.0000  0.0000 </r>
       </set>
       <set comment="band 3">
        <r>  0.1855  0.0449  0.0000  0.1260  0.0000  0.0000  0.0000  0.0000  0.0000 </r>
        <r>  0.1850  0.0452  0.0000  0.1262  0.0000  0.0000  0.0000  0.0000  0.0000 </r>
        <r>  0.0000  0.0000  0.0000  0.0000  0.0000  0.0000  0.0000  0.0000  0.0000 </r>
        <r>  0.0000  0.0000  0.0000  0.0000  0.0000  0.0000  0.0000  0.0000  0.0000 </r>
       </set>
       <set comment="band 4">
        <r>  0.0000  0.0000  0.0000  0.0000  0.0000  0.0000  0.0000  0.0000  0.0000 </r>
        <r>  0.0000  0.0000  0.0000  0.0000  0.0000  0.0000  0.0000  0.0000  0.0000 </r>
        <r>  0.1850  0.0452  0.0000  0.1262  0.0000  0.0000  0.0000  0.0000  0.0000 </r>
        <r>  0.1855  0.0449  0.0000  0.1260  0.0000  0.0000  0.0000  0.0000  0.0000 </r>
       </set>
       <set comment="band 5">
        <r>  0.0279  0.1923  0.0000  0.1178  0.0000  0.0000  0.0000  0.0000  0.0000 </r>
        <r>  0.0277  0.1924  0.0000  0.1180  0.0000  0.0000  0.0000  0.0000  0.0000 </r>
        <r>  0.0000  0.0000  0.0000  0.0000  0.0000  0.0000  0.0000  0.0000  0.0000 </r>
        <r>  0.0000  0.0000  0.0001  0.0000  0.0000  0.0000  0.0000  0.0000  0.0000 </r>
       </set>
       <set comment="band 6">
        <r>  0.0000  0.0000  0.0001  0.0000  0.0000  0.0000  0.0000  0.0000  0.0000 </r>
        <r>  0.0000  0.0000  0.0000  0.0000  0.0000  0.0000  0.0000  0.0000  0.0000 </r>
        <r>  0.0277  0.1924  0.0000  0.1180  0.0000  0.0000  0.0000  0.0000  0.0000 </r>
        <r>  0.0279  0.1923  0.0000  0.1178  0.0000  0.0000  0.0000  0.0000  0.0000 </r>
       </set>
       <set comment="band 7">
        <r>  0.0000  0.0000  0.2188  0.0000  0.0000  0.0000  0.0000  0.0000  0.0000 </r>
        <r>  0.0000  0.0000  0.2203  0.0000  0.0000  0.0000  0.0000  0.0000  0.0000 </r>
        <r>  0.0007  0.0002  0.0000  0.0002  0.0000  0.0000  0.0000  0.0000  0.0000 </r>
        <r>  0.0009  0.0005  0.0000  0.0006  0.0000  0.0000  0.0000  0.0000  0.0000 </r>
       </set>
       <set comment="band 8">
        <r>  0.0009  0.0005  0.0000  0.0006  0.0000  0.0000  0.0000  0.0000  0.0000 </r>
        <r>  0.0007  0.0002  0.0000  0.0002  0.0000  0.0000  0.0000  0.0000  0.0000 </r>
        <r>  0.0000  0.0000  0.2203  0.0000  0.0000  0.0000  0.0000  0.0000  0.0000 </r>
        <r>  0.0000  0.0000  0.2188  0.0000  0.0000  0.0000  0.0000  0.0000  0.0000 </r>
       </set>
       <set comment="band 9">
        <r>  0.0000  0.0000  0.2334  0.0000  0.0000  0.0000  0.0000  0.0000  0.0000 </r>
        <r>  0.0000  0.0000  0.2311  0.0000  0.0000  0.0000  0.0000  0.0000  0.0000 </r>
        <r>  0.0003  0.0004  0.0000  0.0006  0.0000  0.0000  0.0000  0.0000  0.0000 </r>
        <r>  0.0002  0.0002  0.0000  0.0005  0.0000  0.0000  0.0000  0.0000  0.0000 </r>
       </set>
       <set comment="band 10">
        <r>  0.0002  0.0002  0.0000  0.0005  0.0000  0.0000  0.0000  0.0000  0.0000 </r>
        <r>  0.0003  0.0004  0.0000  0.0006  0.0000  0.0000  0.0000  0.0000  0.0000 </r>
        <r>  0.0000  0.0000  0.2311  0.0000  0.0000  0.0000  0.0000  0.0000  0.0000 </r>
        <r>  0.0000  0.0000  0.2334  0.0000  0.0000  0.0000  0.0000  0.0000  0.0000 </r>
       </set>
       <set comment="band 11">
        <r>  0.0014  0.0025  0.0000  0.0103  0.0000  0.0000  0.0000  0.0000  0.0000 </r>
        <r>  0.0192  0.0370  0.0000  0.0274  0.0000  0.0000  0.0000  0.0000  0.0000 </r>
        <r>  0.0000  0.0000  0.0366  0.0000  0.0000  0.0000  0.0000  0.0000  0.0000 </r>
        <r>  0.0000  0.0000  0.0322  0.0000  0.0000  0.0000  0.0000  0.0000  0.0000 </r>
       </set>
       <set comment="band 12">
        <r>  0.0000  0.0000  0.0322  0.0000  0.0000  0.0000  0.0000  0.0000  0.0000 </r>
        <r>  0.0000  0.0000  0.0366  0.0000  0.0000  0.0000  0.0000  0.0000  0.0000 </r>
        <r>  0.0192  0.0370  0.0000  0.0274  0.0000  0.0000  0.0000  0.0000  0.0000 </r>
        <r>  0.0014  0.0025  0.0000  0.0103  0.0000  0.0000  0.0000  0.0000  0.0000 </r>
       </set>
       <set comment="band 13">
        <r>  0.0886  0.0760  0.0000  0.0565  0.0000  0.0000  0.0000  0.0000  0.0000 </r>
        <r>  0.0648  0.0398  0.0000  0.0502  0.0000  0.0000  0.0000  0.0000  0.0000 </r>
        <r>  0.0000  0.0000  0.0104  0.0000  0.0000  0.0000  0.0000  0.0000  0.0000 </r>
        <r>  0.0000  0.0000  0.0137  0.0000  0.0000  0.0000  0.0000  0.0000  0.0000 </r>
       </set>
       <set comment="band 14">
        <r>  0.0000  0.0000  0.0137  0.0000  0.0000  0.0000  0.0000  0.0000  0.0000 </r>
        <r>  0.0000  0.0000  0.0104  0.0000  0.0000  0.0000  0.0000  0.0000  0.0000 </r>
        <r>  0.0648  0.0398  0.0000  0.0502  0.0000  0.0000  0.0000  0.0000  0.0000 </r>
        <r>  0.0886  0.0760  0.0000  0.0565  0.0000  0.0000  0.0000  0.0000  0.0000 </r>
       </set>
      </set>
      <set comment="kpoint 83">
       <set comment="band 1">
        <r>  0.2716  0.0297  0.0000  0.0479  0.0000  0.0000  0.0000  0.0000  0.0000 </r>
        <r>  0.2738  0.0295  0.0000  0.0473  0.0000  0.0000  0.0000  0.0000  0.0000 </r>
        <r>  0.0000  0.0000  0.0000  0.0000  0.0000  0.0000  0.0000  0.0000  0.0000 </r>
        <r>  0.0000  0.0000  0.0000  0.0000  0.0000  0.0000  0.0000  0.0000  0.0000 </r>
       </set>
       <set comment="band 2">
        <r>  0.0000  0.0000  0.0000  0.0000  0.0000  0.0000  0.0000  0.0000  0.0000 </r>
        <r>  0.0000  0.0000  0.0000  0.0000  0.0000  0.0000  0.0000  0.0000  0.0000 </r>
        <r>  0.2738  0.0295  0.0000  0.0473  0.0000  0.0000  0.0000  0.0000  0.0000 </r>
        <r>  0.2716  0.0297  0.0000  0.0479  0.0000  0.0000  0.0000  0.0000  0.0000 </r>
       </set>
       <set comment="band 3">
        <r>  0.1733  0.0415  0.0000  0.1212  0.0000  0.0000  0.0000  0.0000  0.0000 </r>
        <r>  0.1714  0.0418  0.0000  0.1220  0.0000  0.0000  0.0000  0.0000  0.0000 </r>
        <r>  0.0000  0.0000  0.0000  0.0000  0.0000  0.0000  0.0000  0.0000  0.0000 </r>
        <r>  0.0000  0.0000  0.0000  0.0000  0.0000  0.0000  0.0000  0.0000  0.0000 </r>
       </set>
       <set comment="band 4">
        <r>  0.0000  0.0000  0.0000  0.0000  0.0000  0.0000  0.0000  0.0000  0.0000 </r>
        <r>  0.0000  0.0000  0.0000  0.0000  0.0000  0.0000  0.0000  0.0000  0.0000 </r>
        <r>  0.1714  0.0418  0.0000  0.1220  0.0000  0.0000  0.0000  0.0000  0.0000 </r>
        <r>  0.1733  0.0415  0.0000  0.1212  0.0000  0.0000  0.0000  0.0000  0.0000 </r>
       </set>
       <set comment="band 5">
        <r>  0.0364  0.2121  0.0000  0.0906  0.0000  0.0000  0.0000  0.0000  0.0000 </r>
        <r>  0.0363  0.2124  0.0000  0.0907  0.0000  0.0000  0.0000  0.0000  0.0000 </r>
        <r>  0.0000  0.0000  0.0000  0.0000  0.0000  0.0000  0.0000  0.0000  0.0000 </r>
        <r>  0.0000  0.0000  0.0000  0.0000  0.0000  0.0000  0.0000  0.0000  0.0000 </r>
       </set>
       <set comment="band 6">
        <r>  0.0000  0.0000  0.0000  0.0000  0.0000  0.0000  0.0000  0.0000  0.0000 </r>
        <r>  0.0000  0.0000  0.0000  0.0000  0.0000  0.0000  0.0000  0.0000  0.0000 </r>
        <r>  0.0363  0.2124  0.0000  0.0907  0.0000  0.0000  0.0000  0.0000  0.0000 </r>
        <r>  0.0364  0.2121  0.0000  0.0906  0.0000  0.0000  0.0000  0.0000  0.0000 </r>
       </set>
       <set comment="band 7">
        <r>  0.0000  0.0000  0.2217  0.0000  0.0000  0.0000  0.0000  0.0000  0.0000 </r>
        <r>  0.0000  0.0000  0.2260  0.0000  0.0000  0.0000  0.0000  0.0000  0.0000 </r>
        <r>  0.0004  0.0001  0.0000  0.0002  0.0000  0.0000  0.0000  0.0000  0.0000 </r>
        <r>  0.0000  0.0004  0.0000  0.0011  0.0000  0.0000  0.0000  0.0000  0.0000 </r>
       </set>
       <set comment="band 8">
        <r>  0.0000  0.0004  0.0000  0.0011  0.0000  0.0000  0.0000  0.0000  0.0000 </r>
        <r>  0.0004  0.0001  0.0000  0.0002  0.0000  0.0000  0.0000  0.0000  0.0000 </r>
        <r>  0.0000  0.0000  0.2260  0.0000  0.0000  0.0000  0.0000  0.0000  0.0000 </r>
        <r>  0.0000  0.0000  0.2217  0.0000  0.0000  0.0000  0.0000  0.0000  0.0000 </r>
       </set>
       <set comment="band 9">
        <r>  0.0000  0.0000  0.2180  0.0000  0.0000  0.0000  0.0000  0.0000  0.0000 </r>
        <r>  0.0000  0.0000  0.2129  0.0000  0.0000  0.0000  0.0000  0.0000  0.0000 </r>
        <r>  0.0002  0.0003  0.0000  0.0007  0.0000  0.0000  0.0000  0.0000  0.0000 </r>
        <r>  0.0005  0.0004  0.0000  0.0001  0.0000  0.0000  0.0000  0.0000  0.0000 </r>
       </set>
       <set comment="band 10">
        <r>  0.0005  0.0004  0.0000  0.0001  0.0000  0.0000  0.0000  0.0000  0.0000 </r>
        <r>  0.0002  0.0003  0.0000  0.0007  0.0000  0.0000  0.0000  0.0000  0.0000 </r>
        <r>  0.0000  0.0000  0.2129  0.0000  0.0000  0.0000  0.0000  0.0000  0.0000 </r>
        <r>  0.0000  0.0000  0.2180  0.0000  0.0000  0.0000  0.0000  0.0000  0.0000 </r>
       </set>
       <set comment="band 11">
        <r>  0.0215  0.0296  0.0000  0.0161  0.0000  0.0000  0.0000  0.0000  0.0000 </r>
        <r>  0.0403  0.0595  0.0000  0.0432  0.0000  0.0000  0.0000  0.0000  0.0000 </r>
        <r>  0.0000  0.0000  0.0141  0.0000  0.0000  0.0000  0.0000  0.0000  0.0000 </r>
        <r>  0.0000  0.0000  0.0109  0.0000  0.0000  0.0000  0.0000  0.0000  0.0000 </r>
       </set>
       <set comment="band 12">
        <r>  0.0000  0.0000  0.0109  0.0000  0.0000  0.0000  0.0000  0.0000  0.0000 </r>
        <r>  0.0000  0.0000  0.0141  0.0000  0.0000  0.0000  0.0000  0.0000  0.0000 </r>
        <r>  0.0403  0.0595  0.0000  0.0432  0.0000  0.0000  0.0000  0.0000  0.0000 </r>
        <r>  0.0215  0.0296  0.0000  0.0161  0.0000  0.0000  0.0000  0.0000  0.0000 </r>
       </set>
       <set comment="band 13">
        <r>  0.0711  0.0608  0.0000  0.0338  0.0000  0.0000  0.0000  0.0000  0.0000 </r>
        <r>  0.0455  0.0286  0.0000  0.0107  0.0000  0.0000  0.0000  0.0000  0.0000 </r>
        <r>  0.0000  0.0000  0.0207  0.0000  0.0000  0.0000  0.0000  0.0000  0.0000 </r>
        <r>  0.0000  0.0000  0.0238  0.0000  0.0000  0.0000  0.0000  0.0000  0.0000 </r>
       </set>
       <set comment="band 14">
        <r>  0.0000  0.0000  0.0238  0.0000  0.0000  0.0000  0.0000  0.0000  0.0000 </r>
        <r>  0.0000  0.0000  0.0207  0.0000  0.0000  0.0000  0.0000  0.0000  0.0000 </r>
        <r>  0.0455  0.0286  0.0000  0.0107  0.0000  0.0000  0.0000  0.0000  0.0000 </r>
        <r>  0.0711  0.0608  0.0000  0.0338  0.0000  0.0000  0.0000  0.0000  0.0000 </r>
       </set>
      </set>
      <set comment="kpoint 84">
       <set comment="band 1">
        <r>  0.2520  0.0641  0.0000  0.0331  0.0000  0.0000  0.0000  0.0000  0.0000 </r>
        <r>  0.2541  0.0636  0.0000  0.0328  0.0000  0.0000  0.0000  0.0000  0.0000 </r>
        <r>  0.0000  0.0000  0.0000  0.0000  0.0000  0.0000  0.0000  0.0000  0.0000 </r>
        <r>  0.0000  0.0000  0.0000  0.0000  0.0000  0.0000  0.0000  0.0000  0.0000 </r>
       </set>
       <set comment="band 2">
        <r>  0.0000  0.0000  0.0000  0.0000  0.0000  0.0000  0.0000  0.0000  0.0000 </r>
        <r>  0.0000  0.0000  0.0000  0.0000  0.0000  0.0000  0.0000  0.0000  0.0000 </r>
        <r>  0.2541  0.0636  0.0000  0.0328  0.0000  0.0000  0.0000  0.0000  0.0000 </r>
        <r>  0.2520  0.0641  0.0000  0.0331  0.0000  0.0000  0.0000  0.0000  0.0000 </r>
       </set>
       <set comment="band 3">
        <r>  0.2322  0.0705  0.0000  0.0598  0.0000  0.0000  0.0000  0.0000  0.0000 </r>
        <r>  0.2302  0.0713  0.0000  0.0602  0.0000  0.0000  0.0000  0.0000  0.0000 </r>
        <r>  0.0000  0.0000  0.0000  0.0000  0.0000  0.0000  0.0000  0.0000  0.0000 </r>
        <r>  0.0000  0.0000  0.0000  0.0000  0.0000  0.0000  0.0000  0.0000  0.0000 </r>
       </set>
       <set comment="band 4">
        <r>  0.0000  0.0000  0.0000  0.0000  0.0000  0.0000  0.0000  0.0000  0.0000 </r>
        <r>  0.0000  0.0000  0.0000  0.0000  0.0000  0.0000  0.0000  0.0000  0.0000 </r>
        <r>  0.2302  0.0713  0.0000  0.0602  0.0000  0.0000  0.0000  0.0000  0.0000 </r>
        <r>  0.2322  0.0705  0.0000  0.0598  0.0000  0.0000  0.0000  0.0000  0.0000 </r>
       </set>
       <set comment="band 5">
        <r>  0.0087  0.1270  0.0000  0.1782  0.0000  0.0000  0.0000  0.0000  0.0000 </r>
        <r>  0.0087  0.1271  0.0000  0.1784  0.0000  0.0000  0.0000  0.0000  0.0000 </r>
        <r>  0.0000  0.0000  0.0000  0.0000  0.0000  0.0000  0.0000  0.0000  0.0000 </r>
        <r>  0.0000  0.0000  0.0000  0.0000  0.0000  0.0000  0.0000  0.0000  0.0000 </r>
       </set>
       <set comment="band 6">
        <r>  0.0000  0.0000  0.0000  0.0000  0.0000  0.0000  0.0000  0.0000  0.0000 </r>
        <r>  0.0000  0.0000  0.0000  0.0000  0.0000  0.0000  0.0000  0.0000  0.0000 </r>
        <r>  0.0087  0.1271  0.0000  0.1784  0.0000  0.0000  0.0000  0.0000  0.0000 </r>
        <r>  0.0087  0.1270  0.0000  0.1782  0.0000  0.0000  0.0000  0.0000  0.0000 </r>
       </set>
       <set comment="band 7">
        <r>  0.0000  0.0000  0.2257  0.0000  0.0000  0.0000  0.0000  0.0000  0.0000 </r>
        <r>  0.0000  0.0000  0.2334  0.0000  0.0000  0.0000  0.0000  0.0000  0.0000 </r>
        <r>  0.0003  0.0002  0.0000  0.0001  0.0000  0.0000  0.0000  0.0000  0.0000 </r>
        <r>  0.0001  0.0008  0.0000  0.0003  0.0000  0.0000  0.0000  0.0000  0.0000 </r>
       </set>
       <set comment="band 8">
        <r>  0.0001  0.0008  0.0000  0.0003  0.0000  0.0000  0.0000  0.0000  0.0000 </r>
        <r>  0.0003  0.0002  0.0000  0.0001  0.0000  0.0000  0.0000  0.0000  0.0000 </r>
        <r>  0.0000  0.0000  0.2334  0.0000  0.0000  0.0000  0.0000  0.0000  0.0000 </r>
        <r>  0.0000  0.0000  0.2257  0.0000  0.0000  0.0000  0.0000  0.0000  0.0000 </r>
       </set>
       <set comment="band 9">
        <r>  0.0000  0.0000  0.2420  0.0000  0.0000  0.0000  0.0000  0.0000  0.0000 </r>
        <r>  0.0000  0.0000  0.2335  0.0000  0.0000  0.0000  0.0000  0.0000  0.0000 </r>
        <r>  0.0001  0.0002  0.0000  0.0002  0.0000  0.0000  0.0000  0.0000  0.0000 </r>
        <r>  0.0000  0.0003  0.0000  0.0009  0.0000  0.0000  0.0000  0.0000  0.0000 </r>
       </set>
       <set comment="band 10">
        <r>  0.0000  0.0003  0.0000  0.0009  0.0000  0.0000  0.0000  0.0000  0.0000 </r>
        <r>  0.0001  0.0002  0.0000  0.0002  0.0000  0.0000  0.0000  0.0000  0.0000 </r>
        <r>  0.0000  0.0000  0.2335  0.0000  0.0000  0.0000  0.0000  0.0000  0.0000 </r>
        <r>  0.0000  0.0000  0.2420  0.0000  0.0000  0.0000  0.0000  0.0000  0.0000 </r>
       </set>
       <set comment="band 11">
        <r>  0.0000  0.0000  0.0063  0.0000  0.0000  0.0000  0.0000  0.0000  0.0000 </r>
        <r>  0.0000  0.0000  0.0067  0.0000  0.0000  0.0000  0.0000  0.0000  0.0000 </r>
        <r>  0.0005  0.0144  0.0000  0.0136  0.0000  0.0000  0.0000  0.0000  0.0000 </r>
        <r>  0.0009  0.0000  0.0000  0.0000  0.0000  0.0000  0.0000  0.0000  0.0000 </r>
       </set>
       <set comment="band 12">
        <r>  0.0009  0.0000  0.0000  0.0000  0.0000  0.0000  0.0000  0.0000  0.0000 </r>
        <r>  0.0005  0.0144  0.0000  0.0136  0.0000  0.0000  0.0000  0.0000  0.0000 </r>
        <r>  0.0000  0.0000  0.0067  0.0000  0.0000  0.0000  0.0000  0.0000  0.0000 </r>
        <r>  0.0000  0.0000  0.0063  0.0000  0.0000  0.0000  0.0000  0.0000  0.0000 </r>
       </set>
       <set comment="band 13">
        <r>  0.0072  0.1096  0.0000  0.1488  0.0000  0.0000  0.0000  0.0000  0.0000 </r>
        <r>  0.0384  0.0051  0.0057  0.0028  0.0000  0.0000  0.0000  0.0000  0.0000 </r>
        <r>  0.0101  0.0014  0.0212  0.0007  0.0000  0.0000  0.0000  0.0000  0.0000 </r>
        <r>  0.0020  0.0292  0.0000  0.0389  0.0000  0.0000  0.0000  0.0000  0.0000 </r>
       </set>
       <set comment="band 14">
        <r>  0.0020  0.0287  0.0000  0.0393  0.0000  0.0000  0.0000  0.0000  0.0000 </r>
        <r>  0.0101  0.0013  0.0209  0.0009  0.0000  0.0000  0.0000  0.0000  0.0000 </r>
        <r>  0.0386  0.0055  0.0056  0.0019  0.0000  0.0000  0.0000  0.0000  0.0000 </r>
        <r>  0.0068  0.1116  0.0000  0.1477  0.0000  0.0000  0.0000  0.0000  0.0000 </r>
       </set>
      </set>
     </set>
    </set>
   </array>
  </projected>
 </calculation>
 <structure name="finalpos" >
  <crystal>
   <varray name="basis" >
    <v>       2.46120000       0.00000000       0.00000000 </v>
    <v>      -1.23060000       2.13146172       0.00000000 </v>
    <v>       0.00000000       0.00000000       6.70790000 </v>
   </varray>
   <i name="volume">     35.18933212 </i>
   <varray name="rec_basis" >
    <v>       0.40630587       0.23458080       0.00000000 </v>
    <v>       0.00000000       0.46916160       0.00000000 </v>
    <v>       0.00000000       0.00000000       0.14907795 </v>
   </varray>
  </crystal>
  <varray name="positions" >
   <v>       0.00000000       0.00000000       0.00000000 </v>
   <v>       0.33333333       0.66666667       0.00000000 </v>
   <v>       0.33333333       0.66666667       0.50000000 </v>
   <v>       0.66666667       0.33333333       0.50000000 </v>
  </varray>
 </structure>
</modeling>
